/*--------------------------------*- C++ -*----------------------------------*\
  =========                 |
  \\      /  F ield         | OpenFOAM: The Open Source CFD Toolbox
   \\    /   O peration     | Website:  https://openfoam.org
    \\  /    A nd           | Version:  12
     \\/     M anipulation  |
\*---------------------------------------------------------------------------*/
FoamFile
{
    format      ascii;
    class       volVectorField;
    location    "0.1";
    object      U;
}
// * * * * * * * * * * * * * * * * * * * * * * * * * * * * * * * * * * * * * //

dimensions      [0 1 -1 0 0 0 0];

internalField   nonuniform List<vector> 
12225
(
(9.86107 -0.874316 0)
(9.67244 -0.700185 0)
(9.45885 -0.387578 0)
(9.22445 -0.188456 0)
(9.00313 -0.0843679 0)
(8.80986 -0.0328425 0)
(8.64436 -0.00750678 0)
(8.50309 0.00508187 0)
(8.38257 0.0114103 0)
(8.27928 0.0145684 0)
(8.18978 0.0160942 0)
(8.11119 0.0168079 0)
(8.04102 0.0171608 0)
(7.97738 0.0174687 0)
(7.91701 0.0179317 0)
(7.86095 0.0195447 0)
(7.78526 0.0227582 0)
(7.75849 0.0361605 0)
(10.0547 0.263073 0)
(10.1201 0.360753 0)
(10.118 0.273842 0)
(10.0825 0.187123 0)
(10.0404 0.131208 0)
(9.99368 0.0969877 0)
(9.93975 0.0756372 0)
(9.87987 0.0618538 0)
(9.81711 0.0524786 0)
(9.75394 0.0457023 0)
(9.6918 0.0405869 0)
(9.6315 0.0366811 0)
(9.57336 0.0337436 0)
(9.5178 0.0317966 0)
(9.46383 0.0307068 0)
(9.4144 0.0325792 0)
(9.361 0.0346636 0)
(9.33815 0.0595662 0)
(9.99919 0.0460924 0)
(10.0244 0.0342282 0)
(10.0538 0.0149822 0)
(10.0707 0.0218616 0)
(10.0777 0.0367424 0)
(10.078 0.0461004 0)
(10.0718 0.0500678 0)
(10.0597 0.0512929 0)
(10.0432 0.0512434 0)
(10.0236 0.0505851 0)
(10.0018 0.0496959 0)
(9.9784 0.0488342 0)
(9.9538 0.0481668 0)
(9.92845 0.0479775 0)
(9.90218 0.0483725 0)
(9.87622 0.0509932 0)
(9.84944 0.0549026 0)
(9.82949 0.069505 0)
(9.99679 0.00643523 0)
(10.0085 0.0250418 0)
(10.0342 0.0389791 0)
(10.0527 0.0503638 0)
(10.0642 0.0571944 0)
(10.0728 0.0592807 0)
(10.0786 0.0590056 0)
(10.0811 0.0581317 0)
(10.0809 0.0571843 0)
(10.0785 0.0562445 0)
(10.0746 0.0553733 0)
(10.0691 0.0546724 0)
(10.0625 0.0542532 0)
(10.0548 0.05436 0)
(10.0462 0.0551758 0)
(10.0374 0.057796 0)
(10.0288 0.0618711 0)
(10.0234 0.0706343 0)
(9.99922 0.00674731 0)
(10.0081 0.0336052 0)
(10.0271 0.0460984 0)
(10.0417 0.0509264 0)
(10.0522 0.0540263 0)
(10.0619 0.0556521 0)
(10.0704 0.0560441 0)
(10.0769 0.0559168 0)
(10.0815 0.0556206 0)
(10.0848 0.0552533 0)
(10.0869 0.0548987 0)
(10.0879 0.0546774 0)
(10.0881 0.054722 0)
(10.0875 0.0552524 0)
(10.0864 0.05647 0)
(10.0852 0.0590026 0)
(10.0848 0.0626656 0)
(10.0867 0.0681532 0)
(10.0002 0.00908688 0)
(10.0078 0.0321645 0)
(10.0225 0.04198 0)
(10.0349 0.0457662 0)
(10.0446 0.0492637 0)
(10.0539 0.051845 0)
(10.0626 0.0530387 0)
(10.0699 0.0534587 0)
(10.076 0.0535851 0)
(10.081 0.0535893 0)
(10.0852 0.0535729 0)
(10.0886 0.0536598 0)
(10.0914 0.0539831 0)
(10.0937 0.0547242 0)
(10.0957 0.056048 0)
(10.0979 0.0582734 0)
(10.1008 0.0612319 0)
(10.1055 0.0647861 0)
(10.0003 0.00881638 0)
(10.0068 0.0275665 0)
(10.0189 0.0371659 0)
(10.0302 0.0418622 0)
(10.0393 0.0458275 0)
(10.048 0.0487051 0)
(10.0562 0.0501795 0)
(10.0635 0.0508521 0)
(10.0699 0.0512141 0)
(10.0755 0.0514449 0)
(10.0804 0.0516415 0)
(10.0848 0.0519187 0)
(10.0888 0.0523979 0)
(10.0924 0.0532181 0)
(10.0958 0.0544915 0)
(10.0995 0.0563481 0)
(10.1039 0.0586048 0)
(10.1095 0.0608937 0)
(10.0004 0.0078565 0)
(10.0057 0.0237526 0)
(10.016 0.0334674 0)
(10.0263 0.0387304 0)
(10.0349 0.0426771 0)
(10.043 0.0455318 0)
(10.0508 0.0471593 0)
(10.0579 0.048029 0)
(10.0643 0.0485713 0)
(10.07 0.0489668 0)
(10.0752 0.0493124 0)
(10.08 0.0497129 0)
(10.0845 0.0502731 0)
(10.0887 0.051093 0)
(10.0929 0.0522346 0)
(10.0973 0.0537188 0)
(10.1023 0.0553565 0)
(10.1082 0.0567765 0)
(10.0004 0.00697368 0)
(10.0049 0.020775 0)
(10.0136 0.0301492 0)
(10.0229 0.0355666 0)
(10.031 0.0394101 0)
(10.0387 0.0422394 0)
(10.0461 0.044012 0)
(10.0529 0.0450574 0)
(10.0592 0.0457454 0)
(10.0649 0.0462642 0)
(10.0702 0.0467143 0)
(10.0751 0.0471894 0)
(10.0798 0.0477756 0)
(10.0844 0.0485402 0)
(10.089 0.0495068 0)
(10.0938 0.0506401 0)
(10.0989 0.0517635 0)
(10.1047 0.0525805 0)
(10.0004 0.00619013 0)
(10.0042 0.0181992 0)
(10.0115 0.0269279 0)
(10.0198 0.0323269 0)
(10.0275 0.0361017 0)
(10.0347 0.0389082 0)
(10.0417 0.0407826 0)
(10.0484 0.0419626 0)
(10.0545 0.0427629 0)
(10.0601 0.0433726 0)
(10.0654 0.0438929 0)
(10.0705 0.0444054 0)
(10.0753 0.0449783 0)
(10.08 0.045654 0)
(10.0848 0.0464311 0)
(10.0897 0.047252 0)
(10.0948 0.0479663 0)
(10.1003 0.0483637 0)
(10.0003 0.00545655 0)
(10.0036 0.0158862 0)
(10.0098 0.0238579 0)
(10.0172 0.0291202 0)
(10.0244 0.0328106 0)
(10.0312 0.0355581 0)
(10.0378 0.0374744 0)
(10.0442 0.0387437 0)
(10.0501 0.0396257 0)
(10.0557 0.0402986 0)
(10.061 0.040861 0)
(10.066 0.0413827 0)
(10.0709 0.0419163 0)
(10.0757 0.0424868 0)
(10.0805 0.04308 0)
(10.0854 0.0436361 0)
(10.0905 0.0440364 0)
(10.0957 0.0441444 0)
(10.0003 0.00480702 0)
(10.0031 0.0139497 0)
(10.0085 0.0211981 0)
(10.0151 0.0262334 0)
(10.0218 0.0298025 0)
(10.0283 0.0324615 0)
(10.0346 0.0343703 0)
(10.0407 0.0356829 0)
(10.0465 0.0366115 0)
(10.052 0.0373179 0)
(10.0572 0.0378955 0)
(10.0623 0.0384047 0)
(10.0671 0.0388864 0)
(10.072 0.0393556 0)
(10.0767 0.039794 0)
(10.0816 0.0401494 0)
(10.0865 0.0403319 0)
(10.0914 0.0402586 0)
(10.0003 0.00420334 0)
(10.0027 0.0121909 0)
(10.0074 0.0186975 0)
(10.0134 0.0234148 0)
(10.0195 0.0268194 0)
(10.0257 0.0293654 0)
(10.0317 0.0312317 0)
(10.0375 0.0325539 0)
(10.0432 0.0335042 0)
(10.0486 0.034224 0)
(10.0537 0.0347993 0)
(10.0587 0.0352829 0)
(10.0636 0.0357067 0)
(10.0684 0.0360798 0)
(10.0731 0.0363848 0)
(10.0779 0.0365799 0)
(10.0826 0.0365998 0)
(10.0873 0.0364012 0)
(10.0003 0.00357437 0)
(10.0024 0.0103613 0)
(10.0064 0.0160194 0)
(10.0117 0.0202876 0)
(10.0173 0.0234399 0)
(10.023 0.025814 0)
(10.0287 0.0275853 0)
(10.0343 0.0288739 0)
(10.0398 0.029814 0)
(10.045 0.0305218 0)
(10.0501 0.031073 0)
(10.055 0.0315126 0)
(10.0599 0.0318653 0)
(10.0646 0.0321371 0)
(10.0692 0.0323145 0)
(10.0738 0.0323688 0)
(10.0783 0.0322575 0)
(10.0828 0.0319674 0)
(10.0002 0.00291834 0)
(10.002 0.00845934 0)
(10.0055 0.0131731 0)
(10.0101 0.016857 0)
(10.0152 0.0196469 0)
(10.0205 0.0217706 0)
(10.0259 0.0233791 0)
(10.0312 0.0245749 0)
(10.0364 0.0254582 0)
(10.0415 0.0261183 0)
(10.0465 0.0266171 0)
(10.0513 0.0269917 0)
(10.056 0.0272615 0)
(10.0606 0.0274316 0)
(10.0652 0.0274945 0)
(10.0696 0.0274342 0)
(10.0739 0.0272273 0)
(10.0781 0.0268811 0)
(10.0002 0.00223523 0)
(10.0017 0.00648489 0)
(10.0047 0.0101618 0)
(10.0087 0.0131216 0)
(10.0134 0.0154196 0)
(10.0182 0.017193 0)
(10.0233 0.0185537 0)
(10.0283 0.0195813 0)
(10.0333 0.0203465 0)
(10.0382 0.0209121 0)
(10.043 0.0213242 0)
(10.0477 0.0216112 0)
(10.0523 0.0217885 0)
(10.0568 0.0218614 0)
(10.0611 0.0218281 0)
(10.0654 0.0216829 0)
(10.0695 0.0214157 0)
(10.0735 0.0210455 0)
(10.0002 0.00152142 0)
(10.0015 0.00441975 0)
(10.0041 0.00696066 0)
(10.0077 0.00905432 0)
(10.0118 0.0107173 0)
(10.0164 0.0120208 0)
(10.021 0.0130326 0)
(10.0258 0.0138042 0)
(10.0306 0.0143792 0)
(10.0353 0.0147959 0)
(10.04 0.0150834 0)
(10.0445 0.0152607 0)
(10.0489 0.0153384 0)
(10.0532 0.0153218 0)
(10.0574 0.0152124 0)
(10.0615 0.0150108 0)
(10.0654 0.0147142 0)
(10.0691 0.0143461 0)
(10.0001 0.000758516 0)
(10.0013 0.00220586 0)
(10.0037 0.00348679 0)
(10.0069 0.00456212 0)
(10.0108 0.00543581 0)
(10.015 0.00613363 0)
(10.0195 0.00668123 0)
(10.024 0.00709903 0)
(10.0286 0.00740464 0)
(10.0332 0.00761337 0)
(10.0376 0.00773679 0)
(10.042 0.00778238 0)
(10.0463 0.0077546 0)
(10.0505 0.00765608 0)
(10.0545 0.00748853 0)
(10.0583 0.00725422 0)
(10.0621 0.00695321 0)
(10.0656 0.0066075 0)
(10.0001 -0.000101095 0)
(10.0013 -0.000291671 0)
(10.0035 -0.000453615 0)
(10.0067 -0.000572718 0)
(10.0105 -0.000645221 0)
(10.0146 -0.000684198 0)
(10.0189 -0.000708498 0)
(10.0234 -0.00073194 0)
(10.0279 -0.000763508 0)
(10.0323 -0.00081102 0)
(10.0367 -0.000881888 0)
(10.0409 -0.000982221 0)
(10.0451 -0.0011165 0)
(10.0491 -0.00128776 0)
(10.053 -0.00149778 0)
(10.0567 -0.00174657 0)
(10.0602 -0.0020351 0)
(10.0637 -0.00234669 0)
(10.0002 -0.000929393 0)
(10.0014 -0.00270516 0)
(10.0038 -0.00426805 0)
(10.0072 -0.00553471 0)
(10.0111 -0.00649796 0)
(10.0154 -0.0072188 0)
(10.0199 -0.00776398 0)
(10.0244 -0.00817884 0)
(10.029 -0.00849823 0)
(10.0334 -0.00875469 0)
(10.0378 -0.00897545 0)
(10.042 -0.00917994 0)
(10.0461 -0.0093815 0)
(10.0501 -0.00958965 0)
(10.0539 -0.00981103 0)
(10.0575 -0.0100494 0)
(10.061 -0.0103081 0)
(10.0643 -0.0105761 0)
(10.0002 -0.00164784 0)
(10.0015 -0.00482212 0)
(10.0042 -0.00761381 0)
(10.008 -0.00981859 0)
(10.0124 -0.0114512 0)
(10.017 -0.012668 0)
(10.0217 -0.0135866 0)
(10.0264 -0.0142664 0)
(10.0311 -0.0147621 0)
(10.0356 -0.0151329 0)
(10.04 -0.0154265 0)
(10.0443 -0.0156737 0)
(10.0484 -0.0158947 0)
(10.0524 -0.0161041 0)
(10.0562 -0.0163122 0)
(10.0598 -0.0165254 0)
(10.0632 -0.0167484 0)
(10.0665 -0.0169738 0)
(10.0002 -0.0023343 0)
(10.0017 -0.00692434 0)
(10.0049 -0.0109724 0)
(10.0093 -0.0140196 0)
(10.0142 -0.0161595 0)
(10.0191 -0.0177293 0)
(10.0241 -0.0189094 0)
(10.0291 -0.0197639 0)
(10.034 -0.0203655 0)
(10.0387 -0.0207969 0)
(10.0432 -0.0211202 0)
(10.0475 -0.0213739 0)
(10.0517 -0.0215846 0)
(10.0556 -0.0217722 0)
(10.0594 -0.0219503 0)
(10.063 -0.0221268 0)
(10.0664 -0.0223075 0)
(10.0697 -0.0224874 0)
(10.0002 -0.00297416 0)
(10.0019 -0.00904604 0)
(10.0056 -0.0143754 0)
(10.0109 -0.0181764 0)
(10.0165 -0.0207514 0)
(10.0219 -0.0226003 0)
(10.0272 -0.0239178 0)
(10.0325 -0.0248097 0)
(10.0375 -0.0254139 0)
(10.0424 -0.0258421 0)
(10.047 -0.0261548 0)
(10.0514 -0.0263874 0)
(10.0556 -0.026569 0)
(10.0595 -0.0267227 0)
(10.0633 -0.0268636 0)
(10.0669 -0.0270004 0)
(10.0703 -0.0271386 0)
(10.0735 -0.0272751 0)
(10.0001 -0.00355414 0)
(10.0019 -0.0114886 0)
(10.0065 -0.0178481 0)
(10.0128 -0.0219403 0)
(10.019 -0.0248876 0)
(10.0249 -0.027151 0)
(10.0307 -0.0286552 0)
(10.0362 -0.0295298 0)
(10.0415 -0.0300517 0)
(10.0465 -0.0303992 0)
(10.0512 -0.0306387 0)
(10.0556 -0.0308024 0)
(10.0598 -0.0309202 0)
(10.0638 -0.0310157 0)
(10.0676 -0.031103 0)
(10.0712 -0.0311891 0)
(10.0745 -0.0312778 0)
(10.0777 -0.031365 0)
(9.99997 -0.00367776 0)
(10.0018 -0.015143 0)
(10.0077 -0.0225881 0)
(10.0149 -0.0258916 0)
(10.0215 -0.0284271 0)
(10.0279 -0.0308607 0)
(10.0342 -0.0326097 0)
(10.0403 -0.033619 0)
(10.0458 -0.0341897 0)
(10.051 -0.0345311 0)
(10.0558 -0.0347266 0)
(10.0603 -0.0348253 0)
(10.0645 -0.0348696 0)
(10.0684 -0.0348894 0)
(10.0721 -0.0349013 0)
(10.0755 -0.0349137 0)
(10.0786 -0.0349304 0)
(10.0816 -0.034949 0)
(9.99898 -0.00130027 0)
(10 -0.0179464 0)
(10.0085 -0.029022 0)
(10.0175 -0.0326256 0)
(10.0245 -0.0340278 0)
(10.0313 -0.0352317 0)
(10.0384 -0.0361557 0)
(10.0451 -0.0367747 0)
(10.0511 -0.0372016 0)
(10.0564 -0.0374767 0)
(10.0611 -0.0376148 0)
(10.0653 -0.0376521 0)
(10.0691 -0.0376299 0)
(10.0725 -0.0375781 0)
(10.0755 -0.0375148 0)
(10.0782 -0.0374516 0)
(10.0805 -0.0373921 0)
(10.0826 -0.0373354 0)
(9.99528 0.00387522 0)
(9.99335 -0.0102935 0)
(10.0071 -0.0270727 0)
(10.0213 -0.0388803 0)
(10.0312 -0.0448016 0)
(10.0393 -0.0463906 0)
(10.0468 -0.0458894 0)
(10.0532 -0.0449144 0)
(10.0584 -0.044021 0)
(10.0625 -0.0432304 0)
(10.0657 -0.0424992 0)
(10.068 -0.0418249 0)
(10.0697 -0.0412137 0)
(10.0707 -0.0406656 0)
(10.0712 -0.0401782 0)
(10.0713 -0.0397507 0)
(10.0711 -0.0393736 0)
(10.0705 -0.03902 0)
(9.99144 -0.0172893 0)
(9.9919 0.000378415 0)
(10.01 0.0176872 0)
(10.0296 0.0116203 0)
(10.0442 -0.00506359 0)
(10.0542 -0.0187677 0)
(10.0602 -0.0271032 0)
(10.0625 -0.0319693 0)
(10.062 -0.0348398 0)
(10.0594 -0.0364341 0)
(10.0554 -0.0372 0)
(10.0501 -0.0374626 0)
(10.0438 -0.037435 0)
(10.0368 -0.0372468 0)
(10.0294 -0.0369818 0)
(10.0216 -0.0367012 0)
(10.0136 -0.0364605 0)
(10.0055 -0.0362285 0)
(10.0235 -0.206005 0)
(10.0684 -0.31233 0)
(10.0789 -0.255576 0)
(10.0704 -0.184154 0)
(10.0606 -0.134871 0)
(10.05 -0.102689 0)
(10.0343 -0.0811214 0)
(10.0131 -0.0665681 0)
(9.98807 -0.0565696 0)
(9.9609 -0.0494073 0)
(9.93277 -0.0440436 0)
(9.90435 -0.0398891 0)
(9.87615 -0.0365856 0)
(9.8485 -0.0339002 0)
(9.82162 -0.0316852 0)
(9.79565 -0.0298769 0)
(9.77082 -0.0284452 0)
(9.74716 -0.0277065 0)
(9.94226 0.671596 0)
(9.87998 0.56746 0)
(9.7745 0.338476 0)
(9.63248 0.183333 0)
(9.48781 0.0949217 0)
(9.35677 0.0471017 0)
(9.2413 0.0213208 0)
(9.13989 0.00710337 0)
(9.05105 -0.000952025 0)
(8.97318 -0.0055894 0)
(8.90453 -0.00827491 0)
(8.84358 -0.00983367 0)
(8.78908 -0.0107359 0)
(8.74003 -0.0112505 0)
(8.69561 -0.0115382 0)
(8.65512 -0.0117238 0)
(8.61771 -0.0119009 0)
(8.58298 -0.012431 0)
(0.0043265 -0.00543041 -3.51275e-20)
(0.0181251 -0.017452 3.37757e-20)
(0.0347858 -0.0225698 0)
(0.0510254 -0.0223066 0)
(0.0639999 -0.018249 0)
(0.0724635 -0.0118651 -3.00262e-20)
(0.0758955 -0.0042676 0)
(0.0738976 0.00358442 0)
(0.0668242 0.010823 0)
(0.0552894 0.0168503 0)
(0.0400349 0.02136 2.77204e-20)
(0.0218704 0.0243156 0)
(0.00156337 0.0259145 0)
(-0.020242 0.0265592 0)
(-0.0431476 0.0267084 0)
(-0.066995 0.0267419 2.4852e-20)
(-0.0917548 0.0269154 0)
(-0.117518 0.027389 0)
(-0.144444 0.0283175 0)
(-0.172699 0.0298167 0)
(-0.20278 0.0320154 0)
(-0.233779 0.0390442 0)
(-0.267253 0.0402032 0)
(-0.304348 0.0381344 2.56755e-20)
(-0.341365 0.0380418 -2.43575e-20)
(-0.380721 0.0416884 2.21403e-20)
(-0.421414 0.0448967 2.1135e-20)
(-0.465187 0.0524196 0)
(-0.509692 0.0703979 0)
(-0.558161 0.0728008 -2.2533e-20)
(-0.608143 0.0645067 -2.29358e-20)
(-0.654071 0.0527129 0)
(-0.69998 0.0411366 0)
(-0.742835 0.0429874 -2.19697e-20)
(-0.787261 0.0427813 0)
(-0.831233 0.0420844 0)
(-0.874641 0.0411075 2.11086e-20)
(-0.917308 0.0400022 0)
(-0.959182 0.0388623 2.06038e-20)
(-1.00026 0.0377442 4.07389e-20)
(-1.04057 0.0366814 0)
(-1.08017 0.0356919 0)
(-1.11911 0.0347842 0)
(-1.15748 0.0339601 0)
(-1.19533 0.0332172 0)
(-1.23272 0.0325503 3.83005e-20)
(-1.26973 0.0319528 3.79401e-20)
(-1.30639 0.0314167 3.75893e-20)
(-1.34276 0.0309342 0)
(-1.37889 0.0304969 -3.6912e-20)
(-1.41479 0.030097 0)
(-1.45049 0.0297268 3.62619e-20)
(-1.48602 0.0293794 3.59452e-20)
(-1.52139 0.0290481 0)
(-1.5566 0.028727 0)
(-1.59165 0.0284108 0)
(-1.62655 0.0280947 3.47199e-20)
(-1.66127 0.0277743 0)
(-1.6958 0.027446 0)
(-1.73013 0.0271067 0)
(-1.76424 0.0267535 0)
(-1.7981 0.0263842 0)
(-1.83169 0.0259969 0)
(-1.86497 0.0255902 0)
(-1.89791 0.0251628 0)
(-1.93049 0.0247138 -3.2074e-20)
(-1.96266 0.0242427 0)
(-1.9944 0.0237491 0)
(-2.02566 0.0232328 3.11834e-20)
(-2.0564 0.0226938 3.08818e-20)
(-2.0866 0.0221323 0)
(-2.11621 0.0215486 -3.02688e-20)
(-2.14519 0.0209432 2.99565e-20)
(-2.1735 0.0203164 0)
(-2.20112 0.0196688 -2.93183e-20)
(-2.22799 0.0190011 0)
(-2.25407 0.0183137 0)
(-2.27934 0.0176074 2.83203e-20)
(-2.30376 0.0168825 0)
(-2.32728 0.0161396 -2.76229e-20)
(-2.34986 0.0153788 0)
(-2.37148 0.0146002 2.68961e-20)
(-2.3921 0.0138035 2.65206e-20)
(-2.41166 0.0129881 2.61366e-20)
(-2.43015 0.0121528 5.14874e-20)
(-2.44752 0.0112959 -5.06831e-20)
(-2.46372 0.0104146 0)
(-2.47872 0.00950573 0)
(-2.49247 0.00856518 0)
(-2.50492 0.00758869 -4.72686e-20)
(-2.51602 0.0065717 -4.6363e-20)
(-2.52571 0.00550984 4.54356e-20)
(-2.5339 0.00440386 0)
(-2.54054 0.00326902 -4.35154e-20)
(-2.54551 0.00213735 -4.25226e-20)
(-2.54869 0.00104169 -4.15054e-20)
(-2.55007 3.78066e-05 0)
(-2.55014 -0.000820715 0)
(-2.54877 -0.00164448 0)
(-2.54599 -0.00245399 -3.71548e-20)
(-2.54179 -0.003258 0)
(-2.53615 -0.00405829 0)
(-2.52908 -0.004855 3.36107e-20)
(-2.52055 -0.0056475 0)
(-2.51055 -0.00643491 0)
(-2.49908 -0.00721626 2.98207e-20)
(-2.48612 -0.00799058 0)
(-2.47168 -0.00875686 0)
(-2.45575 -0.00951412 -2.57862e-20)
(-2.43832 -0.0102614 -2.4388e-20)
(-2.41941 -0.0109978 0)
(-2.39901 -0.0117222 2.15135e-20)
(-2.37713 -0.012434 0)
(-2.35378 -0.0131321 -1.85381e-20)
(-2.32897 -0.0138159 0)
(-2.3027 -0.0144844 -1.54664e-20)
(-2.27501 -0.0151369 -1.38961e-20)
(-2.24589 -0.0157729 0)
(-2.21537 -0.0163917 0)
(-2.18346 -0.0169928 0)
(-2.1502 -0.0175756 0)
(-2.1156 -0.0181399 0)
(-2.07969 -0.0186851 0)
(-2.04249 -0.0192112 0)
(-2.00403 -0.0197177 -6.20198e-22)
(-1.96434 -0.0202048 -1.11364e-21)
(-1.92344 -0.0206724 0)
(-1.88138 -0.0211206 0)
(-1.83817 -0.0215498 0)
(-1.79385 -0.0219601 0)
(-1.74845 -0.022352 -1.99064e-20)
(-1.702 -0.022726 0)
(-1.65453 -0.0230827 2.7094e-20)
(-1.60607 -0.0234229 -3.07036e-20)
(-1.55664 -0.0237475 0)
(-1.50628 -0.0240572 0)
(-1.45502 -0.0243531 0)
(-1.40286 -0.0246362 4.51982e-20)
(-1.34985 -0.0249077 4.88263e-20)
(-1.296 -0.0251686 0)
(-1.24132 -0.0254202 5.60762e-20)
(-1.18583 -0.0256637 5.96951e-20)
(-1.12956 -0.0259002 -6.33083e-20)
(-1.0725 -0.0261308 0)
(-1.01467 -0.0263566 0)
(-0.956074 -0.0265786 -7.41036e-20)
(-0.896719 -0.0267976 0)
(-0.836607 -0.0270144 0)
(-0.775738 -0.0272292 0)
(-0.714112 -0.0274427 0)
(-0.651728 -0.0276546 9.19071e-20)
(-0.588586 -0.0278648 9.54354e-20)
(-0.524683 -0.0280727 0)
(-0.46002 -0.0282772 1.02457e-19)
(-0.394599 -0.0284768 0)
(-0.328427 -0.0286687 0)
(-0.261509 -0.0288479 1.12895e-19)
(-0.193861 -0.0290032 0)
(-0.125498 -0.0291185 1.19787e-19)
(-0.0564686 -0.0291607 0)
(0.0131645 -0.0290693 0)
(0.0834651 -0.0288975 1.27309e-19)
(0.154413 -0.0287184 0)
(0.226002 -0.0285352 1.29609e-19)
(0.298207 -0.028338 0)
(0.370988 -0.0281192 0)
(0.444287 -0.0278727 0)
(0.518024 -0.027593 -1.332e-19)
(0.592104 -0.0272741 0)
(0.666405 -0.0269089 1.34507e-19)
(0.740778 -0.0264881 0)
(0.815035 -0.0259989 0)
(0.888931 -0.0254214 0)
(0.962127 -0.0247239 0)
(1.03418 -0.0238442 0)
(1.10415 -0.0226737 0)
(1.1713 -0.0208662 0)
(1.22973 -0.0177673 -2.74787e-19)
(1.28483 -0.0100261 0)
(1.27459 0.0106703 0)
(0.00998646 -0.039585 1.04097e-19)
(0.0266364 -0.0538327 -9.71261e-20)
(0.037543 -0.0497233 0)
(0.0441732 -0.0396293 5.62896e-20)
(0.0467 -0.0267107 0)
(0.045357 -0.0125136 2.59764e-20)
(0.0405255 0.00194573 -5.05285e-20)
(0.0326185 0.0158588 -4.93445e-20)
(0.0216674 0.0285545 0)
(0.00769329 0.0395473 -4.76555e-20)
(-0.00922446 0.0485848 -2.33926e-20)
(-0.028976 0.0556674 0)
(-0.0514344 0.0610333 0)
(-0.0764485 0.065111 0)
(-0.103898 0.068412 0)
(-0.133717 0.0713947 -2.0879e-20)
(-0.165909 0.0744004 0)
(-0.200542 0.0776464 4.02255e-20)
(-0.237703 0.0812426 0)
(-0.277514 0.08516 0)
(-0.320012 0.0892296 -3.88665e-20)
(-0.36442 0.0937385 0)
(-0.41173 0.0992914 3.90502e-20)
(-0.460205 0.103978 -1.94142e-20)
(-0.510479 0.108275 1.91319e-20)
(-0.561006 0.110936 -1.86334e-20)
(-0.612546 0.112695 -1.8337e-20)
(-0.663261 0.11319 0)
(-0.711804 0.114049 0)
(-0.759175 0.115242 1.78324e-20)
(-0.804872 0.114797 -1.74958e-20)
(-0.851473 0.113571 0)
(-0.897064 0.111425 0)
(-0.941259 0.109457 1.68667e-20)
(-0.983259 0.107045 0)
(-1.02362 0.104306 0)
(-1.06275 0.101452 -1.62215e-20)
(-1.10087 0.0986114 0)
(-1.13812 0.0958661 1.5773e-20)
(-1.17464 0.0932671 -3.13542e-20)
(-1.21051 0.0908418 0)
(-1.24582 0.088601 0)
(-1.28065 0.0865446 -6.06557e-20)
(-1.31503 0.0846648 -6.0071e-20)
(-1.34904 0.0829487 -5.95061e-20)
(-1.38271 0.0813807 2.9396e-20)
(-1.41607 0.0799436 -2.92975e-20)
(-1.44916 0.0786195 -8.69479e-20)
(-1.48199 0.0773908 5.74032e-20)
(-1.51457 0.0762405 2.85395e-20)
(-1.54692 0.0751525 0)
(-1.57904 0.0741118 -2.80586e-20)
(-1.61093 0.0731046 2.76528e-20)
(-1.64259 0.0721184 0)
(-1.674 0.0711421 0)
(-1.70516 0.0701656 0)
(-1.73605 0.0691802 -2.69103e-20)
(-1.76666 0.0681783 0)
(-1.79695 0.0671532 5.27629e-20)
(-1.82693 0.0660995 0)
(-1.85655 0.0650125 5.1879e-20)
(-1.8858 0.0638884 0)
(-1.91465 0.0627241 -5.09959e-20)
(-1.94307 0.0615174 0)
(-1.97104 0.0602666 5.01079e-20)
(-1.99853 0.0589706 -2.47569e-20)
(-2.0255 0.0576286 0)
(-2.05193 0.0562405 -4.87554e-20)
(-2.07779 0.0548064 -2.42162e-20)
(-2.10304 0.0533269 -2.3982e-20)
(-2.12766 0.0518028 0)
(-2.15162 0.050235 -2.33808e-20)
(-2.17489 0.0486248 -2.32601e-20)
(-2.19744 0.0469735 0)
(-2.21923 0.0452827 2.27593e-20)
(-2.24023 0.0435538 -4.48998e-20)
(-2.26043 0.0417885 0)
(-2.27978 0.0399884 -2.19723e-20)
(-2.29826 0.0381551 0)
(-2.31583 0.03629 6.41787e-20)
(-2.33248 0.0343946 0)
(-2.34817 0.0324701 -6.24606e-20)
(-2.36286 0.0305177 -2.0545e-20)
(-2.37655 0.0285381 2.0183e-20)
(-2.38918 0.0265319 3.97543e-20)
(-2.40075 0.0244994 -3.91279e-20)
(-2.41122 0.0224404 0)
(-2.42057 0.0203539 0)
(-2.42877 0.0182389 0)
(-2.4358 0.0160936 1.09453e-19)
(-2.44166 0.0139161 3.57714e-20)
(-2.44633 0.0117031 -3.50321e-20)
(-2.44982 0.0094509 0)
(-2.45217 0.00716546 -3.35368e-20)
(-2.45346 0.00488467 3.2709e-20)
(-2.45376 0.00267386 3.18901e-20)
(-2.4531 0.000537 0)
(-2.4511 -0.00150501 0)
(-2.44778 -0.00351092 0)
(-2.4431 -0.0054951 2.84218e-20)
(-2.43701 -0.00746513 0)
(-2.42951 -0.00942178 -5.33056e-20)
(-2.42058 -0.0113638 -7.70399e-20)
(-2.41021 -0.0132889 4.94922e-20)
(-2.39839 -0.0151947 0)
(-2.3851 -0.0170784 2.2876e-20)
(-2.37035 -0.0189375 0)
(-2.35412 -0.0207693 4.14165e-20)
(-2.33642 -0.0225714 -1.97895e-20)
(-2.31724 -0.0243412 -1.87247e-20)
(-2.29658 -0.0260764 0)
(-2.27446 -0.0277747 -4.89902e-20)
(-2.25087 -0.029434 3.05198e-20)
(-2.22583 -0.031052 1.39455e-20)
(-2.19934 -0.0326268 0)
(-2.17142 -0.0341565 1.16064e-20)
(-2.14208 -0.0356394 3.16382e-20)
(-2.11134 -0.0370741 0)
(-2.07921 -0.038459 1.64054e-20)
(-2.04572 -0.039793 1.39589e-20)
(-2.01089 -0.041075 1.14892e-20)
(-1.97474 -0.0423043 0)
(-1.93729 -0.04348 0)
(-1.89857 -0.0446017 0)
(-1.85862 -0.0456691 -9.47381e-22)
(-1.81745 -0.046682 8.25903e-22)
(-1.7751 -0.0476408 0)
(-1.7316 -0.0485457 6.32139e-21)
(-1.68697 -0.0493977 8.92122e-21)
(-1.64126 -0.0501975 0)
(-1.59448 -0.0509464 1.46838e-20)
(-1.54668 -0.0516456 3.35367e-20)
(-1.49788 -0.0522968 -1.99452e-20)
(-1.4481 -0.0529017 -2.14674e-20)
(-1.39739 -0.0534627 0)
(-1.34577 -0.0539819 0)
(-1.29326 -0.0544617 0)
(-1.23989 -0.0549048 -3.3116e-20)
(-1.18568 -0.0553139 3.45833e-20)
(-1.13065 -0.0556919 7.55615e-20)
(-1.07482 -0.0560416 -4.09793e-20)
(-1.01821 -0.056366 4.24081e-20)
(-0.960835 -0.056668 4.61878e-20)
(-0.902697 -0.0569505 0)
(-0.843809 -0.057216 0)
(-0.784178 -0.0574672 -5.2735e-20)
(-0.723807 -0.0577064 0)
(-0.662698 -0.0579356 0)
(-0.60085 -0.0581562 1.21968e-19)
(-0.538262 -0.0583697 0)
(-0.474931 -0.0585767 6.54184e-20)
(-0.410852 -0.0587773 -6.9143e-20)
(-0.346021 -0.0589712 0)
(-0.280436 -0.0591567 7.28902e-20)
(-0.214092 -0.0593316 0)
(-0.14699 -0.0594915 0)
(-0.0791294 -0.0596306 -8.14816e-20)
(-0.0105158 -0.0597445 1.66156e-19)
(0.0588499 -0.0598294 -8.53799e-20)
(0.128968 -0.0598911 0)
(0.19985 -0.0599087 0)
(0.271498 -0.059876 8.82646e-20)
(0.34389 -0.0598195 0)
(0.417007 -0.0597439 9.08094e-20)
(0.490821 -0.0596367 0)
(0.56529 -0.0594845 0)
(0.640358 -0.0592744 0)
(0.715951 -0.0589935 9.62993e-20)
(0.791977 -0.0586272 0)
(0.868321 -0.0581583 -9.81214e-20)
(0.944837 -0.0575641 0)
(1.02134 -0.0568132 0)
(1.09759 -0.0558586 1.99913e-19)
(1.17327 -0.0546248 -2.01278e-19)
(1.24793 -0.052971 0)
(1.32077 -0.0506432 0)
(1.39101 -0.0469462 0)
(1.4552 -0.0406658 6.20352e-19)
(1.5155 -0.0266242 0)
(1.5514 0.00470853 -4.23024e-19)
(0.00907945 -0.0769334 -2.71228e-23)
(0.0190281 -0.0789492 1.25379e-19)
(0.0217367 -0.0609463 0)
(0.0207789 -0.040448 -1.049e-19)
(0.0164713 -0.0195387 0)
(0.00919361 0.00115852 0)
(-0.000663546 0.0212143 7.22425e-25)
(-0.0128785 0.0402666 4.40465e-20)
(-0.0273914 0.0579663 4.28199e-20)
(-0.0442376 0.0739868 4.18e-20)
(-0.0635137 0.088115 0)
(-0.085349 0.100323 0)
(-0.109866 0.110807 -3.92412e-20)
(-0.137147 0.119948 -7.69275e-20)
(-0.167218 0.128227 7.54327e-20)
(-0.200052 0.13611 0)
(-0.235573 0.143964 7.26829e-20)
(-0.273656 0.152012 -3.57493e-20)
(-0.314095 0.160312 0)
(-0.35659 0.168739 6.92489e-20)
(-0.400753 0.177013 3.41361e-20)
(-0.446004 0.184748 -6.72608e-20)
(-0.49186 0.191318 -3.31631e-20)
(-0.537862 0.196214 0)
(-0.583757 0.199705 6.42552e-20)
(-0.629082 0.201781 6.31796e-20)
(-0.673536 0.202468 0)
(-0.716684 0.201875 6.10819e-20)
(-0.757973 0.200219 0)
(-0.797299 0.196794 5.91626e-20)
(-0.83532 0.191566 2.90978e-20)
(-0.872833 0.185417 0)
(-0.909865 0.179122 0)
(-0.946178 0.173341 0)
(-0.981487 0.167902 0)
(-1.01594 0.162756 0)
(-1.04967 0.157901 0)
(-1.0828 0.15335 5.26011e-20)
(-1.1154 0.149111 -7.79638e-20)
(-1.14756 0.145186 0)
(-1.17933 0.141569 0)
(-1.21075 0.138247 0)
(-1.24187 0.1352 8.87915e-23)
(-1.27272 0.132404 4.92225e-20)
(-1.30331 0.129834 9.73562e-20)
(-1.33369 0.127461 -9.63924e-20)
(-1.36385 0.12526 -4.76778e-20)
(-1.39381 0.123203 4.73254e-20)
(-1.42359 0.121265 -1.05494e-22)
(-1.45318 0.119423 4.63421e-20)
(-1.48259 0.117653 0)
(-1.51182 0.115935 4.54977e-20)
(-1.54085 0.114251 -1.09597e-22)
(-1.56969 0.112585 0)
(-1.59832 0.110921 0)
(-1.62674 0.109246 -4.3882e-20)
(-1.65492 0.107549 0)
(-1.68285 0.105821 0)
(-1.71051 0.104052 4.26009e-20)
(-1.73788 0.102236 8.46436e-20)
(-1.76494 0.100368 -4.20415e-20)
(-1.79166 0.0984415 0)
(-1.81803 0.0964541 4.12665e-20)
(-1.84402 0.0944028 0)
(-1.8696 0.0922859 4.02887e-20)
(-1.89474 0.0901021 4.00958e-20)
(-1.91942 0.087851 -7.9212e-20)
(-1.94361 0.0855328 -3.91179e-20)
(-1.96728 0.083148 0)
(-1.9904 0.0806976 7.68202e-20)
(-2.01295 0.0781831 0)
(-2.03489 0.0756062 1.12858e-19)
(-2.0562 0.0729687 7.43506e-20)
(-2.07684 0.0702729 7.35056e-20)
(-2.09678 0.0675211 -7.26481e-20)
(-2.11601 0.0647156 1.07734e-19)
(-2.13448 0.0618589 0)
(-2.15217 0.0589535 0)
(-2.16905 0.0560019 -6.90744e-20)
(-2.18509 0.0530065 -1.02263e-19)
(-2.20027 0.0499696 0)
(-2.21455 0.0468935 3.31528e-20)
(-2.2279 0.0437803 0)
(-2.24031 0.0406319 -9.63617e-20)
(-2.25175 0.0374503 -5.86559e-23)
(-2.26218 0.0342374 4.86949e-23)
(-2.2716 0.0309951 6.1059e-20)
(-2.27996 0.0277255 0)
(-2.28727 0.0244313 -5.8839e-20)
(-2.29349 0.0211163 -6.86906e-24)
(-2.29861 0.0177856 0)
(-2.30263 0.0144475 0)
(-2.30554 0.0111128 0)
(-2.30734 0.00779543 5.28241e-20)
(-2.30799 0.00451381 0)
(-2.3075 0.00129058 0)
(-2.3058 -0.00189951 0)
(-2.30281 -0.00509108 0)
(-2.2985 -0.00827475 0)
(-2.29286 -0.0114459 4.47268e-20)
(-2.28586 -0.0146006 0)
(-2.27749 -0.0177346 4.16648e-20)
(-2.26773 -0.0208439 4.01486e-20)
(-2.25656 -0.0239239 -3.86058e-20)
(-2.24398 -0.0269702 0)
(-2.22997 -0.0299785 -3.54416e-20)
(-2.21454 -0.0329444 0)
(-2.19767 -0.0358638 -3.21749e-20)
(-2.17937 -0.0387326 3.05044e-20)
(-2.15963 -0.0415467 8.68914e-20)
(-2.13845 -0.0443025 0)
(-2.11584 -0.0469963 7.65614e-20)
(-2.09181 -0.0496244 2.41178e-20)
(-2.06636 -0.0521837 0)
(-2.0395 -0.0546708 4.05753e-20)
(-2.01125 -0.0570829 3.69498e-20)
(-1.98162 -0.0594171 -4.96251e-20)
(-1.95062 -0.0616712 0)
(-1.91827 -0.0638428 -1.26044e-20)
(-1.88459 -0.0659302 -1.07143e-20)
(-1.84961 -0.0679318 -2.71157e-20)
(-1.81334 -0.0698461 0)
(-1.77581 -0.0716723 0)
(-1.73705 -0.0734096 0)
(-1.69708 -0.0750575 -1.82371e-21)
(-1.65594 -0.0766161 0)
(-1.61364 -0.0780856 0)
(-1.57023 -0.079467 -4.81647e-21)
(-1.52572 -0.0807616 -6.79153e-21)
(-1.48016 -0.0819708 0)
(-1.43357 -0.0830966 0)
(-1.38598 -0.0841414 -2.54676e-20)
(-1.33743 -0.0851077 0)
(-1.28793 -0.0859986 3.33974e-20)
(-1.23753 -0.0868176 3.6501e-20)
(-1.18625 -0.0875685 0)
(-1.13412 -0.0882554 0)
(-1.08115 -0.0888824 -4.83236e-20)
(-1.02738 -0.089454 -8.83797e-22)
(-0.972814 -0.0899749 -8.89304e-22)
(-0.917484 -0.0904499 0)
(-0.861403 -0.0908837 -1.28786e-19)
(-0.804582 -0.0912811 0)
(-0.747033 -0.0916468 0)
(-0.688764 -0.0919851 0)
(-0.629782 -0.0923002 8.02405e-20)
(-0.57009 -0.0925961 0)
(-0.509687 -0.0928759 -1.73818e-19)
(-0.448575 -0.0931424 -9.15964e-20)
(-0.386748 -0.0933979 0)
(-0.324202 -0.0936438 -9.90665e-20)
(-0.260932 -0.0938804 0)
(-0.196931 -0.0941075 0)
(-0.132193 -0.0943228 -3.28461e-19)
(-0.0667095 -0.0945238 2.2562e-19)
(-0.000476868 -0.0947079 0)
(0.0665137 -0.0948705 2.37845e-19)
(0.134268 -0.0950085 -1.22347e-19)
(0.202795 -0.0951221 0)
(0.27211 -0.0952168 0)
(0.342245 -0.0952983 0)
(0.413196 -0.0953598 -3.93695e-19)
(0.484933 -0.095394 0)
(0.557427 -0.0953908 -1.36282e-19)
(0.630644 -0.0953338 0)
(0.70454 -0.0952046 0)
(0.779063 -0.0949844 0)
(0.854141 -0.0946528 0)
(0.929689 -0.0941867 0)
(1.0056 -0.0935579 0)
(1.08172 -0.0927301 -2.97232e-19)
(1.15789 -0.0916531 0)
(1.23388 -0.0902524 -1.52436e-19)
(1.30938 -0.0884104 4.60073e-19)
(1.38398 -0.0859199 0)
(1.45702 -0.0824064 0)
(1.52786 -0.0770366 -3.14439e-19)
(1.59426 -0.0682617 -3.18674e-19)
(1.65859 -0.051774 3.2124e-19)
(1.70959 -0.0190704 3.2767e-19)
(0.00363846 -0.0964318 -2.0272e-19)
(0.00487559 -0.0819511 -1.82826e-19)
(0.000164699 -0.0550713 -1.08462e-19)
(-0.00683882 -0.0281942 -4.93799e-20)
(-0.0161496 -0.00205597 0)
(-0.027557 0.0232014 8.67357e-20)
(-0.0409156 0.047458 -4.14061e-20)
(-0.0561811 0.0705576 0)
(-0.0733818 0.0923059 -3.87968e-20)
(-0.0926064 0.11251 0)
(-0.113987 0.13104 7.40838e-20)
(-0.137673 0.147881 0)
(-0.163792 0.163167 3.56078e-20)
(-0.192415 0.177153 6.98554e-20)
(-0.223529 0.190159 -6.85228e-20)
(-0.257017 0.20248 0)
(-0.292663 0.21431 -6.59478e-20)
(-0.330155 0.225698 0)
(-0.369091 0.23653 0)
(-0.409003 0.24654 -6.23482e-20)
(-0.449399 0.25536 0)
(-0.489814 0.262613 -3.61454e-23)
(-0.529861 0.267955 0)
(-0.569271 0.271231 0)
(-0.607852 0.27253 3.98868e-23)
(-0.645435 0.271971 -5.57085e-20)
(-0.68194 0.269771 -5.47086e-20)
(-0.71731 0.266185 -5.36558e-20)
(-0.751507 0.261461 0)
(-0.78462 0.255631 -1.03514e-19)
(-0.81692 0.248842 0)
(-0.848689 0.241505 -5.00201e-20)
(-0.880072 0.234058 0)
(-0.911063 0.226863 0)
(-0.94163 0.220016 4.76782e-20)
(-0.971795 0.213559 0)
(-1.00159 0.207509 -4.63234e-20)
(-1.03106 0.201873 -6.22466e-24)
(-1.06023 0.196646 9.02328e-20)
(-1.08914 0.191815 -8.90981e-20)
(-1.11781 0.187359 0)
(-1.14627 0.183255 0)
(-1.17453 0.179474 -4.29814e-20)
(-1.20262 0.175983 0)
(-1.23054 0.172751 -4.21282e-20)
(-1.2583 0.169744 4.16924e-20)
(-1.28592 0.16693 4.12698e-20)
(-1.31339 0.164277 0)
(-1.34073 0.161755 -4.04577e-20)
(-1.36792 0.159336 -4.00657e-20)
(-1.39497 0.156994 7.92607e-20)
(-1.42188 0.154705 -3.93045e-20)
(-1.44863 0.152447 -3.89333e-20)
(-1.47522 0.1502 0)
(-1.50163 0.147946 0)
(-1.52786 0.145671 3.78481e-20)
(-1.55388 0.14336 0)
(-1.57968 0.141002 0)