/*--------------------------------*- C++ -*----------------------------------*\
  =========                 |
  \\      /  F ield         | OpenFOAM: The Open Source CFD Toolbox
   \\    /   O peration     | Website:  https://openfoam.org
    \\  /    A nd           | Version:  12
     \\/     M anipulation  |
\*---------------------------------------------------------------------------*/
FoamFile
{
    format      ascii;
    class       volVectorField;
    location    "6.26";
    object      U;
}
// * * * * * * * * * * * * * * * * * * * * * * * * * * * * * * * * * * * * * //

dimensions      [0 1 -1 0 0 0 0];

internalField   nonuniform List<vector> 
3829
(
(-5.34951e-06 2.28786e-05 0)
(-1.61603e-05 2.24722e-05 0)
(-2.71284e-05 2.28293e-05 0)
(-3.8322e-05 2.33703e-05 0)
(-4.9826e-05 2.4086e-05 0)
(-6.16775e-05 2.49692e-05 0)
(-7.38902e-05 2.5999e-05 0)
(-8.65245e-05 2.71609e-05 0)
(-9.95833e-05 2.84299e-05 0)
(-0.000113149 2.97683e-05 0)
(-0.000127238 3.11527e-05 0)
(-0.000141818 3.25515e-05 0)
(-0.000156886 3.39136e-05 0)
(-0.000172476 3.51953e-05 0)
(-0.000188542 3.63721e-05 0)
(-0.000205014 3.73834e-05 0)
(-0.000221873 3.82034e-05 0)
(-0.000239038 3.87788e-05 0)
(-0.000256425 3.90789e-05 0)
(-0.000273939 3.90697e-05 0)
(-0.000291472 3.8722e-05 0)
(-0.0003089 3.80122e-05 0)
(-0.000326099 3.69221e-05 0)
(-0.000342936 3.5442e-05 0)
(-0.000359315 3.35654e-05 0)
(-0.000375021 3.13003e-05 0)
(-0.000389831 2.86463e-05 0)
(-0.000403659 2.5607e-05 0)
(-0.000416434 2.22126e-05 0)
(-0.000427963 1.84918e-05 0)
(-0.000438151 1.44608e-05 0)
(-0.000446861 1.01753e-05 0)
(-0.00045392 5.66487e-06 0)
(-0.00045935 9.94359e-07 0)
(-0.000463007 -3.7843e-06 0)
(-0.000464854 -8.63871e-06 0)
(-0.000464817 -1.34579e-05 0)
(-0.000462764 -1.82554e-05 0)
(-0.000458756 -2.29911e-05 0)
(-0.000452883 -2.76313e-05 0)
(-0.000445182 -3.21032e-05 0)
(-0.000435706 -3.63746e-05 0)
(-0.000424549 -4.03862e-05 0)
(-0.000411708 -4.40976e-05 0)
(-0.000397286 -4.74786e-05 0)
(-0.000381426 -5.04908e-05 0)
(-0.000364229 -5.3108e-05 0)
(-0.000345842 -5.53061e-05 0)
(-0.000326407 -5.70654e-05 0)
(-0.000306083 -5.83707e-05 0)
(-0.000285063 -5.92163e-05 0)
(-0.000263479 -5.95785e-05 0)
(-0.000241511 -5.9483e-05 0)
(-0.000219373 -5.89058e-05 0)
(-0.000197331 -5.78844e-05 0)
(-0.000175353 -5.63895e-05 0)
(-0.000153871 -5.4502e-05 0)
(-0.00013295 -5.21681e-05 0)
(-0.000112856 -4.94826e-05 0)
(-9.38362e-05 -4.63957e-05 0)
(-7.5725e-05 -4.29968e-05 0)
(-5.89788e-05 -3.93102e-05 0)
(-4.36314e-05 -3.53745e-05 0)
(-2.99338e-05 -3.1264e-05 0)
(-1.77276e-05 -2.69982e-05 0)
(-7.37238e-06 -2.26648e-05 0)
(8.58606e-07 -1.82528e-05 0)
(7.32332e-06 -1.38112e-05 0)
(1.19303e-05 -9.42347e-06 0)
(1.46073e-05 -5.16063e-06 0)
(1.53754e-05 -1.03866e-06 0)
(1.42866e-05 2.85914e-06 0)
(1.15752e-05 6.51538e-06 0)
(7.08913e-06 9.80647e-06 0)
(7.00452e-07 1.27763e-05 0)
(-7.06203e-06 1.53715e-05 0)
(-1.59169e-05 1.7544e-05 0)
(-2.57543e-05 1.92275e-05 0)
(-3.62977e-05 2.04285e-05 0)
(-4.7402e-05 2.10978e-05 0)
(-5.8896e-05 2.12972e-05 0)
(-7.03109e-05 2.09879e-05 0)
(-8.14852e-05 2.01708e-05 0)
(-9.22144e-05 1.88761e-05 0)
(-0.000102166 1.71464e-05 0)
(-0.000111152 1.50058e-05 0)
(-0.000118842 1.25119e-05 0)
(-0.000125065 9.70668e-06 0)
(-0.000129676 6.67528e-06 0)
(-0.000132525 3.4629e-06 0)
(-0.000133468 1.75779e-07 0)
(-0.000132269 -3.1124e-06 0)
(-0.000128961 -6.34449e-06 0)
(-0.000123659 -9.43312e-06 0)
(-0.000116477 -1.23127e-05 0)
(-0.000107548 -1.48991e-05 0)
(-9.70504e-05 -1.71304e-05 0)
(-8.52143e-05 -1.89313e-05 0)
(-7.22593e-05 -2.02433e-05 0)
(-5.85228e-05 -2.10635e-05 0)
(-4.43421e-05 -2.13338e-05 0)
(-3.00679e-05 -2.1053e-05 0)
(-1.60664e-05 -2.02286e-05 0)
(-2.72315e-06 -1.8898e-05 0)
(9.61366e-06 -1.70882e-05 0)
(2.06421e-05 -1.48547e-05 0)
(3.0035e-05 -1.22715e-05 0)
(3.7548e-05 -9.41836e-06 0)
(4.29842e-05 -6.38924e-06 0)
(4.62316e-05 -3.28343e-06 0)
(4.71794e-05 -2.16483e-07 0)
(4.57823e-05 2.70034e-06 0)
(4.2256e-05 5.39162e-06 0)
(3.676e-05 7.73675e-06 0)
(2.96002e-05 9.6896e-06 0)
(2.10894e-05 1.11363e-05 0)
(1.15825e-05 1.20618e-05 0)
(1.4827e-06 1.24064e-05 0)
(-8.78529e-06 1.21848e-05 0)
(-1.85663e-05 1.142e-05 0)
(-2.75443e-05 1.01323e-05 0)
(-3.53256e-05 8.42386e-06 0)
(-4.14931e-05 6.35477e-06 0)
(-4.58394e-05 4.03301e-06 0)
(-4.81172e-05 1.5843e-06 0)
(-4.81462e-05 -8.75807e-07 0)
(-4.59534e-05 -3.21919e-06 0)
(-4.17249e-05 -5.34138e-06 0)
(-3.56867e-05 -7.12712e-06 0)
(-2.81519e-05 -8.50757e-06 0)
(-1.95254e-05 -9.38794e-06 0)
(-1.02938e-05 -9.75661e-06 0)
(-8.94376e-07 -9.58324e-06 0)
(8.11797e-06 -8.9002e-06 0)
(1.62489e-05 -7.74058e-06 0)
(2.30838e-05 -6.18505e-06 0)
(2.82321e-05 -4.32517e-06 0)
(3.14574e-05 -2.27745e-06 0)
(3.25493e-05 -1.43649e-07 0)
(3.13859e-05 1.92302e-06 0)
(2.80856e-05 3.86775e-06 0)
(2.29049e-05 5.54104e-06 0)
(1.60431e-05 6.89803e-06 0)
(7.93737e-06 7.84567e-06 0)
(-1.09827e-06 8.35391e-06 0)
(-1.05427e-05 8.42034e-06 0)
(-1.974e-05 8.04588e-06 0)
(-2.83442e-05 7.27521e-06 0)
(-3.59369e-05 6.15512e-06 0)
(-4.21366e-05 4.77253e-06 0)
(-4.66606e-05 3.1961e-06 0)
(-4.93155e-05 1.5326e-06 0)
(-4.99818e-05 -1.40183e-07 0)
(-4.86634e-05 -1.73215e-06 0)
(-4.54866e-05 -3.1824e-06 0)
(-4.06488e-05 -4.41623e-06 0)
(-3.44128e-05 -5.39314e-06 0)
(-2.70947e-05 -6.07309e-06 0)
(-1.90595e-05 -6.45031e-06 0)
(-1.06831e-05 -6.51904e-06 0)
(-2.33528e-06 -6.3045e-06 0)
(5.61815e-06 -5.83335e-06 0)
(1.28611e-05 -5.14578e-06 0)
(1.91312e-05 -4.29403e-06 0)
(2.42071e-05 -3.323e-06 0)
(2.79629e-05 -2.29663e-06 0)
(3.03223e-05 -1.25973e-06 0)
(3.12638e-05 -2.68326e-07 0)
(3.0884e-05 6.47626e-07 0)
(2.92747e-05 1.43487e-06 0)
(2.66071e-05 2.08148e-06 0)
(2.31053e-05 2.5665e-06 0)
(1.89853e-05 2.8798e-06 0)
(1.44983e-05 3.01994e-06 0)
(9.88791e-06 2.99946e-06 0)
(5.38327e-06 2.82832e-06 0)
(1.2085e-06 2.53556e-06 0)
(-2.45111e-06 2.13916e-06 0)
(-5.45956e-06 1.67008e-06 0)
(-7.70141e-06 1.1602e-06 0)
(-9.11914e-06 6.35166e-07 0)
(-9.70101e-06 1.25304e-07 0)
(-9.46532e-06 -3.47212e-07 0)
(-8.48467e-06 -7.58385e-07 0)
(-6.85768e-06 -1.09451e-06 0)
(-4.70953e-06 -1.3313e-06 0)
(-2.19671e-06 -1.47907e-06 0)
(5.17953e-07 -1.52043e-06 0)
(3.23736e-06 -1.46583e-06 0)
(5.77572e-06 -1.32016e-06 0)
(7.99494e-06 -1.09654e-06 0)
(9.75993e-06 -8.06894e-07 0)
(1.09551e-05 -4.7298e-07 0)
(1.15014e-05 -1.12571e-07 0)
(1.13508e-05 2.51173e-07 0)
(1.0502e-05 5.99441e-07 0)
(8.99335e-06 9.08358e-07 0)
(6.9039e-06 1.16224e-06 0)
(4.35236e-06 1.34215e-06 0)
(1.48831e-06 1.43689e-06 0)
(-3.7466e-06 0.0001828 0)
(-1.12412e-05 0.000183567 0)
(-1.89989e-05 0.000184903 0)
(-2.71125e-05 0.000186893 0)
(-3.57242e-05 0.000189517 0)
(-4.49963e-05 0.00019273 0)
(-5.49977e-05 0.000196453 0)
(-6.58092e-05 0.000200601 0)
(-7.76175e-05 0.000205082 0)
(-9.0475e-05 0.000209745 0)
(-0.000104326 0.000214487 0)
(-0.00011935 0.000219134 0)
(-0.000135618 0.000223527 0)
(-0.000152927 0.000227512 0)
(-0.000171344 0.000230933 0)
(-0.000190787 0.000233594 0)
(-0.000211158 0.000235348 0)
(-0.000232394 0.000236038 0)
(-0.000254246 0.000235543 0)
(-0.000276594 0.000233709 0)
(-0.000299235 0.000230459 0)
(-0.000321958 0.000225698 0)
(-0.000344529 0.000219375 0)
(-0.000366727 0.000211474 0)
(-0.000388332 0.000201955 0)
(-0.000409088 0.000190907 0)
(-0.000428805 0.00017838 0)
(-0.000447196 0.000164429 0)
(-0.000464028 0.000149202 0)
(-0.000479217 0.000132839 0)
(-0.000492508 0.000115524 0)
(-0.00050369 9.73818e-05 0)
(-0.000512555 7.86282e-05 0)
(-0.000519007 5.94238e-05 0)
(-0.000523124 3.99688e-05 0)
(-0.000524533 2.04222e-05 0)
(-0.000523462 9.96738e-07 0)
(-0.000520232 -1.80817e-05 0)
(-0.000514627 -3.66469e-05 0)
(-0.000506561 -5.45318e-05 0)
(-0.000496095 -7.16028e-05 0)
(-0.000483386 -8.77244e-05 0)
(-0.000468497 -0.00010277 0)
(-0.000451604 -0.000116622 0)
(-0.000432837 -0.00012919 0)
(-0.000412371 -0.00014038 0)
(-0.000390398 -0.000150128 0)
(-0.000367103 -0.000158364 0)
(-0.000342686 -0.000165066 0)
(-0.000317381 -0.000170175 0)
(-0.000291341 -0.000173695 0)
(-0.000264859 -0.000175592 0)
(-0.000238115 -0.000175911 0)
(-0.000211377 -0.000174681 0)
(-0.000184884 -0.000171916 0)
(-0.000158807 -0.000167609 0)
(-0.000133456 -0.000162039 0)
(-0.00010895 -0.000155 0)
(-8.55733e-05 -0.000146837 0)
(-6.35326e-05 -0.000137389 0)
(-4.3e-05 -0.000127017 0)
(-2.41779e-05 -0.000115737 0)
(-7.31448e-06 -0.000103702 0)
(7.44154e-06 -9.10146e-05 0)
(2.02033e-05 -7.78654e-05 0)
(3.07589e-05 -6.44129e-05 0)
(3.90156e-05 -5.07826e-05 0)
(4.49378e-05 -3.71523e-05 0)
(4.83639e-05 -2.36885e-05 0)
(4.95176e-05 -1.05867e-05 0)
(4.83808e-05 2.00476e-06 0)
(4.50195e-05 1.39156e-05 0)
(3.95203e-05 2.49785e-05 0)
(3.19802e-05 3.50212e-05 0)
(2.25706e-05 4.39423e-05 0)
(1.14625e-05 5.16717e-05 0)
(-1.10453e-06 5.80521e-05 0)
(-1.48002e-05 6.29717e-05 0)
(-2.92722e-05 6.63529e-05 0)
(-4.41726e-05 6.81646e-05 0)
(-5.92903e-05 6.84257e-05 0)
(-7.43832e-05 6.70919e-05 0)
(-8.90407e-05 6.42448e-05 0)
(-0.000102915 5.99251e-05 0)
(-0.000115704 5.42435e-05 0)
(-0.000127178 4.7314e-05 0)
(-0.000136958 3.93145e-05 0)
(-0.000144792 3.03855e-05 0)
(-0.000150536 2.07583e-05 0)
(-0.000153991 1.06213e-05 0)
(-0.000154935 2.37008e-07 0)
(-0.000153312 -1.01348e-05 0)
(-0.000149128 -2.02727e-05 0)
(-0.000142482 -2.99369e-05 0)
(-0.00013352 -3.8895e-05 0)
(-0.000122398 -4.68928e-05 0)
(-0.000109339 -5.37389e-05 0)
(-9.45947e-05 -5.92293e-05 0)
(-7.86123e-05 -6.32182e-05 0)
(-6.17386e-05 -6.55871e-05 0)
(-4.43193e-05 -6.62536e-05 0)
(-2.68983e-05 -6.522e-05 0)
(-9.94925e-06 -6.25093e-05 0)
(6.0914e-06 -5.81891e-05 0)
(2.08346e-05 -5.23874e-05 0)
(3.38587e-05 -4.52885e-05 0)
(4.47819e-05 -3.71097e-05 0)
(5.33223e-05 -2.81232e-05 0)
(5.92481e-05 -1.86317e-05 0)
(6.24085e-05 -8.94706e-06 0)
(6.26819e-05 5.99786e-07 0)
(6.01456e-05 9.67894e-06 0)
(5.50084e-05 1.79823e-05 0)
(4.75193e-05 2.52184e-05 0)
(3.80156e-05 3.11348e-05 0)
(2.68959e-05 3.54956e-05 0)
(1.46593e-05 3.82013e-05 0)
(1.78381e-06 3.90999e-05 0)
(-1.11078e-05 3.82328e-05 0)
(-2.33506e-05 3.56704e-05 0)
(-3.44518e-05 3.15192e-05 0)
(-4.39369e-05 2.60286e-05 0)
(-5.13894e-05 1.94547e-05 0)
(-5.64688e-05 1.21343e-05 0)
(-5.89306e-05 4.44154e-06 0)
(-5.86076e-05 -3.24421e-06 0)
(-5.55677e-05 -1.05348e-05 0)
(-5.00435e-05 -1.71013e-05 0)
(-4.235e-05 -2.26184e-05 0)
(-3.2857e-05 -2.67855e-05 0)
(-2.20972e-05 -2.94324e-05 0)
(-1.06955e-05 -3.04363e-05 0)
(8.20972e-07 -2.9783e-05 0)
(1.17717e-05 -2.75206e-05 0)
(2.15732e-05 -2.38181e-05 0)
(2.97061e-05 -1.89273e-05 0)
(3.57234e-05 -1.31184e-05 0)
(3.93825e-05 -6.74177e-06 0)
(4.04198e-05 -1.77559e-07 0)
(3.88161e-05 6.21069e-06 0)
(3.47118e-05 1.21229e-05 0)
(2.83914e-05 1.72181e-05 0)
(2.0169e-05 2.12742e-05 0)
(1.05154e-05 2.40801e-05 0)
(-9.01334e-08 2.55293e-05 0)
(-1.10713e-05 2.56153e-05 0)
(-2.16927e-05 2.4383e-05 0)
(-3.15337e-05 2.19411e-05 0)
(-4.01116e-05 1.84791e-05 0)
(-4.70166e-05 1.42209e-05 0)
(-5.19434e-05 9.42721e-06 0)
(-5.46932e-05 4.37305e-06 0)
(-5.51844e-05 -6.67339e-07 0)
(-5.3456e-05 -5.45683e-06 0)
(-4.96669e-05 -9.77357e-06 0)
(-4.4053e-05 -1.34315e-05 0)
(-3.69353e-05 -1.62865e-05 0)
(-2.86863e-05 -1.82563e-05 0)
(-1.97243e-05 -1.93009e-05 0)
(-1.04705e-05 -1.94372e-05 0)
(-1.34079e-06 -1.87244e-05 0)
(7.28057e-06 -1.72517e-05 0)
(1.50449e-05 -1.5155e-05 0)
(2.16879e-05 -1.2573e-05 0)
(2.69769e-05 -9.665e-06 0)
(3.07911e-05 -6.59432e-06 0)
(3.30708e-05 -3.51995e-06 0)
(3.38188e-05 -5.77744e-07 0)
(3.31395e-05 2.10422e-06 0)
(3.11517e-05 4.42597e-06 0)
(2.80715e-05 6.30812e-06 0)
(2.41264e-05 7.70595e-06 0)
(1.95587e-05 8.59074e-06 0)
(1.46478e-05 8.97418e-06 0)
(9.65115e-06 8.87569e-06 0)
(4.81658e-06 8.34616e-06 0)
(3.76388e-07 7.44899e-06 0)
(-3.48408e-06 6.26349e-06 0)
(-6.61455e-06 4.86787e-06 0)
(-8.90837e-06 3.35228e-06 0)
(-1.03122e-05 1.79846e-06 0)
(-1.08204e-05 2.96039e-07 0)
(-1.04607e-05 -1.094e-06 0)
(-9.31668e-06 -2.29776e-06 0)
(-7.48818e-06 -3.27172e-06 0)
(-5.12764e-06 -3.97123e-06 0)
(-2.39983e-06 -4.38692e-06 0)
(5.32431e-07 -4.50052e-06 0)
(3.44829e-06 -4.32909e-06 0)
(6.15993e-06 -3.89418e-06 0)
(8.52264e-06 -3.22537e-06 0)
(1.03936e-05 -2.37201e-06 0)
(1.16525e-05 -1.38429e-06 0)
(1.22205e-05 -3.23273e-07 0)
(1.20497e-05 7.4766e-07 0)
(1.11397e-05 1.76961e-06 0)
(9.53325e-06 2.67979e-06 0)
(7.31539e-06 3.42451e-06 0)
(4.61005e-06 3.95328e-06 0)
(1.57645e-06 4.23005e-06 0)
(2.17307e-07 0.000145771 0)
(5.55333e-07 0.000146463 0)
(4.04708e-07 0.00015059 0)
(-5.37506e-07 0.000156791 0)
(-2.55949e-06 0.000164972 0)
(-6.12871e-06 0.000175023 0)
(-1.15474e-05 0.000186779 0)
(-1.89325e-05 0.000200011 0)
(-2.87429e-05 0.000214463 0)
(-4.10742e-05 0.000229814 0)
(-5.60428e-05 0.00024573 0)
(-7.39678e-05 0.00026179 0)
(-9.4638e-05 0.000277631 0)
(-0.000117962 0.0002928 0)
(-0.000144125 0.000306888 0)
(-0.000172906 0.000319544 0)
(-0.000203925 0.000330236 0)
(-0.000236883 0.000338628 0)
(-0.000271592 0.00034435 0)
(-0.000307605 0.00034714 0)
(-0.000344364 0.00034672 0)
(-0.000381548 0.000342947 0)
(-0.000418497 0.000335674 0)
(-0.000454978 0.000324905 0)
(-0.000490234 0.00031062 0)
(-0.000523518 0.000292957 0)
(-0.000554834 0.000272088 0)
(-0.000583529 0.00024829 0)
(-0.000609056 0.000221779 0)
(-0.000631088 0.000192976 0)
(-0.000649675 0.000162299 0)
(-0.000664545 0.000130025 0)
(-0.000675396 9.67696e-05 0)
(-0.000682401 6.28393e-05 0)
(-0.00068551 2.86805e-05 0)
(-0.000684663 -5.18187e-06 0)
(-0.000679529 -3.86373e-05 0)
(-0.000670352 -7.13083e-05 0)
(-0.000657547 -0.000102905 0)
(-0.000641413 -0.000133118 0)
(-0.000622205 -0.000161688 0)
(-0.000600066 -0.000188365 0)
(-0.000575221 -0.00021295 0)
(-0.000547899 -0.000235261 0)
(-0.000518359 -0.000255153 0)
(-0.000486905 -0.000272503 0)
(-0.000453781 -0.000287222 0)
(-0.000419352 -0.000299213 0)
(-0.000383828 -0.000308471 0)
(-0.000347508 -0.000314909 0)
(-0.000310704 -0.000318601 0)
(-0.000273737 -0.000319522 0)
(-0.00023707 -0.000317717 0)
(-0.000200769 -0.000313272 0)
(-0.000164927 -0.000306224 0)
(-0.000130672 -0.000296706 0)
(-9.75363e-05 -0.000284834 0)
(-6.58258e-05 -0.000270692 0)
(-3.60134e-05 -0.000254579 0)
(-8.35469e-06 -0.000236625 0)
(1.65872e-05 -0.000217013 0)
(3.92803e-05 -0.000195938 0)
(5.9347e-05 -0.000173656 0)
(7.64479e-05 -0.000150397 0)
(9.05361e-05 -0.000126389 0)
(0.000101577 -0.000102008 0)
(0.000109281 -7.74338e-05 0)
(0.000113858 -5.30556e-05 0)
(0.000115196 -2.90892e-05 0)
(0.00011335 -5.84899e-06 0)
(0.000108464 1.63414e-05 0)
(0.000100589 3.72093e-05 0)
(8.99651e-05 5.64608e-05 0)
(7.67177e-05 7.38518e-05 0)
(6.1162e-05 8.91493e-05 0)
(4.36178e-05 0.000102156 0)
(2.42261e-05 0.000112679 0)
(3.42307e-06 0.000120626 0)
(-1.82152e-05 0.000125824 0)
(-4.01995e-05 0.000128227 0)
(-6.23983e-05 0.000127775 0)
(-8.4171e-05 0.000124554 0)
(-0.000105064 0.000118595 0)
(-0.000124783 0.00011008 0)
(-0.000142789 9.91186e-05 0)
(-0.000158712 8.60208e-05 0)
(-0.000172178 7.10212e-05 0)
(-0.000182875 5.44676e-05 0)
(-0.000190554 3.67109e-05 0)
(-0.000195016 1.8184e-05 0)
(-0.000195949 -7.00322e-07 0)
(-0.000193312 -1.94964e-05 0)
(-0.000187235 -3.77828e-05 0)
(-0.00017784 -5.51318e-05 0)
(-0.00016526 -7.11064e-05 0)
(-0.000149781 -8.52845e-05 0)
(-0.000131763 -9.72955e-05 0)
(-0.000111594 -0.000106806 0)
(-8.97723e-05 -0.000113586 0)
(-6.68264e-05 -0.000117397 0)
(-4.34197e-05 -0.000118167 0)
(-2.01961e-05 -0.000115854 0)
(2.30707e-06 -0.000110529 0)
(2.34472e-05 -0.000102337 0)
(4.26063e-05 -9.15186e-05 0)
(5.92822e-05 -7.84334e-05 0)
(7.29637e-05 -6.34924e-05 0)
(8.32415e-05 -4.71665e-05 0)
(8.98721e-05 -2.9988e-05 0)
(9.27229e-05 -1.25406e-05 0)
(9.16944e-05 4.55025e-06 0)
(8.68595e-05 2.07226e-05 0)
(7.85662e-05 3.54364e-05 0)
(6.71561e-05 4.81318e-05 0)
(5.30976e-05 5.83653e-05 0)
(3.70757e-05 6.5782e-05 0)
(1.96702e-05 7.01365e-05 0)
(1.604e-06 7.127e-05 0)
(-1.62049e-05 6.92238e-05 0)
(-3.29762e-05 6.41416e-05 0)
(-4.80246e-05 5.62664e-05 0)
(-6.06731e-05 4.6023e-05 0)
(-7.03652e-05 3.39144e-05 0)
(-7.66873e-05 2.05652e-05 0)
(-7.93633e-05 6.631e-06 0)
(-7.82359e-05 -7.19539e-06 0)
(-7.34823e-05 -2.02352e-05 0)
(-6.54628e-05 -3.18623e-05 0)
(-5.45054e-05 -4.15012e-05 0)
(-4.12542e-05 -4.86714e-05 0)
(-2.64823e-05 -5.30711e-05 0)
(-1.09872e-05 -5.45346e-05 0)
(4.47276e-06 -5.30001e-05 0)
(1.90106e-05 -4.86529e-05 0)
(3.17824e-05 -4.18167e-05 0)
(4.22158e-05 -3.28939e-05 0)
(4.97801e-05 -2.24616e-05 0)
(5.40883e-05 -1.11208e-05 0)
(5.49458e-05 4.56473e-07 0)
(5.24182e-05 1.16647e-05 0)
(4.67005e-05 2.19101e-05 0)
(3.82103e-05 3.06535e-05 0)
(2.73979e-05 3.74574e-05 0)
(1.49081e-05 4.20776e-05 0)
(1.40534e-06 4.43235e-05 0)
(-1.23466e-05 4.41764e-05 0)
(-2.5512e-05 4.17675e-05 0)
(-3.75299e-05 3.73142e-05 0)
(-4.78202e-05 3.116e-05 0)
(-5.59176e-05 2.37054e-05 0)
(-6.14875e-05 1.54152e-05 0)
(-6.43435e-05 6.74897e-06 0)
(-6.44523e-05 -1.81842e-06 0)
(-6.19195e-05 -9.89136e-06 0)
(-5.69673e-05 -1.7084e-05 0)
(-4.99229e-05 -2.31063e-05 0)
(-4.12093e-05 -2.77338e-05 0)
(-3.12984e-05 -3.08493e-05 0)
(-2.06969e-05 -3.2394e-05 0)
(-9.91431e-06 -3.24269e-05 0)
(5.85207e-07 -3.1038e-05 0)
(1.03435e-05 -2.84224e-05 0)
(1.89893e-05 -2.47837e-05 0)
(2.62439e-05 -2.03771e-05 0)
(3.18672e-05 -1.54795e-05 0)
(3.57479e-05 -1.03412e-05 0)
(3.78587e-05 -5.24381e-06 0)
(3.82304e-05 -3.88905e-07 0)
(3.70125e-05 3.98868e-06 0)
(3.43654e-05 7.75583e-06 0)
(3.05358e-05 1.07778e-05 0)
(2.58103e-05 1.29854e-05 0)
(2.04733e-05 1.43464e-05 0)
(1.48329e-05 1.48816e-05 0)
(9.17541e-06 1.46319e-05 0)
(3.77668e-06 1.36794e-05 0)
(-1.11246e-06 1.21432e-05 0)
(-5.2965e-06 1.01419e-05 0)
(-8.63277e-06 7.81633e-06 0)
(-1.10094e-05 5.30481e-06 0)
(-1.23759e-05 2.7491e-06 0)
(-1.27484e-05 2.86241e-07 0)
(-1.21674e-05 -1.97474e-06 0)
(-1.07281e-05 -3.92295e-06 0)
(-8.5619e-06 -5.4888e-06 0)
(-5.83272e-06 -6.6108e-06 0)
(-2.72491e-06 -7.25427e-06 0)
(5.73339e-07 -7.41595e-06 0)
(3.82521e-06 -7.11033e-06 0)
(6.83466e-06 -6.3765e-06 0)
(9.43939e-06 -5.26846e-06 0)
(1.14874e-05 -3.86249e-06 0)
(1.28557e-05 -2.24224e-06 0)
(1.34569e-05 -5.06904e-07 0)
(1.32487e-05 1.24191e-06 0)
(1.22341e-05 2.9074e-06 0)
(1.04602e-05 4.38866e-06 0)
(8.02017e-06 5.59777e-06 0)
(5.05099e-06 6.45699e-06 0)
(1.72657e-06 6.90684e-06 0)
(1.15265e-05 0.000201062 0)
(3.44455e-05 0.000206201 0)
(5.64378e-05 0.000217056 0)
(7.66598e-05 0.000233329 0)
(9.43256e-05 0.000254831 0)
(0.00010873 0.000281186 0)
(0.00011906 0.000311913 0)
(0.000124732 0.000346154 0)
(0.000125022 0.000383284 0)
(0.000119513 0.000422396 0)
(0.000107768 0.000462557 0)
(8.95584e-05 0.000502689 0)
(6.48178e-05 0.000541783 0)
(3.36363e-05 0.000578737 0)
(-3.26135e-06 0.000612541 0)
(-4.63762e-05 0.000642216 0)
(-9.53009e-05 0.000666918 0)
(-0.000148808 0.000685931 0)
(-0.000206099 0.000698422 0)
(-0.000266344 0.000703822 0)
(-0.000328531 0.000701792 0)
(-0.000391629 0.000692109 0)
(-0.000454475 0.000674657 0)
(-0.000516129 0.000649652 0)
(-0.000575588 0.000617251 0)
(-0.000631536 0.000578121 0)
(-0.000683142 0.00053282 0)
(-0.000729912 0.000482132 0)
(-0.000770939 0.000427093 0)
(-0.000805204 0.000368511 0)
(-0.000833357 0.000307442 0)
(-0.000854334 0.000244728 0)
(-0.00086792 0.000181384 0)
(-0.000875049 0.000118167 0)
(-0.000874855 5.56509e-05 0)
(-0.000868777 -5.32e-06 0)
(-0.000857808 -6.40735e-05 0)
(-0.000841481 -0.00012008 0)
(-0.000820069 -0.000173033 0)
(-0.000793767 -0.000222597 0)
(-0.000763027 -0.000268446 0)
(-0.000728344 -0.000310368 0)
(-0.000690162 -0.000348174 0)
(-0.000648957 -0.000381725 0)
(-0.000605173 -0.000410917 0)
(-0.000559277 -0.000435689 0)
(-0.000511595 -0.000456003 0)
(-0.000462709 -0.000471832 0)
(-0.000412869 -0.000483223 0)
(-0.000362632 -0.000490171 0)
(-0.000312426 -0.000492832 0)
(-0.000262412 -0.000491232 0)
(-0.000213234 -0.000485639 0)
(-0.00016508 -0.000475845 0)
(-0.000118321 -0.000462417 0)
(-7.35193e-05 -0.000445334 0)
(-3.0659e-05 -0.000424821 0)
(9.46672e-06 -0.000401167 0)
(4.64163e-05 -0.000374612 0)
(8.04703e-05 -0.000345428 0)
(0.000111237 -0.000313882 0)
(0.00013838 -0.000280386 0)
(0.000161573 -0.000245143 0)
(0.000180801 -0.000208772 0)
(0.000195706 -0.000171461 0)
(0.000206327 -0.000133755 0)
(0.000212577 -9.60237e-05 0)
(0.00021441 -5.87153e-05 0)
(0.000212 -2.22647e-05 0)
(0.000205229 1.28267e-05 0)
(0.000194289 4.6191e-05 0)
(0.000179444 7.73594e-05 0)
(0.000160933 0.000105959 0)
(0.000139071 0.000131559 0)
(0.000114268 0.000153894 0)
(8.68794e-05 0.00017255 0)
(5.74649e-05 0.000187351 0)
(2.64629e-05 0.000198075 0)
(-5.59492e-06 0.000204596 0)
(-3.80011e-05 0.000206788 0)
(-7.01719e-05 0.000204619 0)
(-0.000101565 0.000198226 0)
(-0.000131517 0.000187666 0)
(-0.000159491 0.000173207 0)
(-0.00018484 0.000155136 0)
(-0.000207025 0.000133833 0)
(-0.000225633 0.000109743 0)
(-0.000240143 8.33991e-05 0)
(-0.00025024 5.53518e-05 0)
(-0.000255641 2.62351e-05 0)
(-0.00025616 -3.3044e-06 0)
(-0.000251806 -3.25796e-05 0)
(-0.000242711 -6.09125e-05 0)
(-0.000229006 -8.76397e-05 0)
(-0.000210933 -0.000112055 0)
(-0.000188888 -0.000133576 0)
(-0.000163381 -0.000151592 0)
(-0.00013507 -0.000165685 0)
(-0.000104669 -0.000175425 0)
(-7.29409e-05 -0.000180597 0)
(-4.07411e-05 -0.000181018 0)
(-8.94742e-06 -0.000176661 0)
(2.15503e-05 -0.000167656 0)
(4.99387e-05 -0.000154285 0)
(7.53702e-05 -0.000136943 0)
(9.71e-05 -0.000116149 0)
(0.000114551 -9.26043e-05 0)
(0.000127238 -6.70482e-05 0)
(0.000134774 -4.03702e-05 0)
(0.000136895 -1.34355e-05 0)
(0.000133617 1.28204e-05 0)
(0.000125271 3.75572e-05 0)
(0.000112159 5.98305e-05 0)
(9.48068e-05 7.88945e-05 0)
(7.40253e-05 9.40444e-05 0)
(5.0673e-05 0.000104778 0)
(2.56716e-05 0.000110659 0)
(8.45566e-08 0.000111591 0)
(-2.48688e-05 0.000107607 0)
(-4.81557e-05 9.89461e-05 0)
(-6.87838e-05 8.60678e-05 0)
(-8.58373e-05 6.96256e-05 0)
(-9.85865e-05 5.04521e-05 0)
(-0.000106487 2.94993e-05 0)
(-0.000109258 7.82212e-06 0)
(-0.00010677 -1.35188e-05 0)
(-9.92959e-05 -3.34905e-05 0)
(-8.73345e-05 -5.11173e-05 0)
(-7.1507e-05 -6.54907e-05 0)
(-5.27194e-05 -7.60483e-05 0)
(-3.20825e-05 -8.22084e-05 0)
(-1.06443e-05 -8.38187e-05 0)
(1.04806e-05 -8.08403e-05 0)
(2.99964e-05 -7.36624e-05 0)
(4.69854e-05 -6.27487e-05 0)
(6.05809e-05 -4.8777e-05 0)
(7.00814e-05 -3.26652e-05 0)
(7.51463e-05 -1.53667e-05 0)
(7.55799e-05 2.14562e-06 0)
(7.15553e-05 1.89275e-05 0)
(6.33725e-05 3.40629e-05 0)
(5.16062e-05 4.6822e-05 0)
(3.70472e-05 5.65551e-05 0)
(2.05627e-05 6.294e-05 0)
(2.97829e-06 6.57542e-05 0)
(-1.46649e-05 6.50394e-05 0)
(-3.13102e-05 6.09887e-05 0)
(-4.62588e-05 5.4015e-05 0)
(-5.8804e-05 4.46335e-05 0)
(-6.84092e-05 3.34714e-05 0)
(-7.47289e-05 2.12258e-05 0)
(-7.75946e-05 8.56045e-06 0)
(-7.70525e-05 -3.83748e-06 0)
(-7.32964e-05 -1.53794e-05 0)
(-6.66542e-05 -2.55469e-05 0)
(-5.75952e-05 -3.39275e-05 0)
(-4.66776e-05 -4.02511e-05 0)
(-3.44947e-05 -4.43526e-05 0)
(-2.1686e-05 -4.6211e-05 0)
(-8.85311e-06 -4.59032e-05 0)
(3.43532e-06 -4.36229e-05 0)
(1.467e-05 -3.96318e-05 0)
(2.44502e-05 -3.42572e-05 0)
(3.24482e-05 -2.7859e-05 0)
(3.84557e-05 -2.08385e-05 0)
(4.23681e-05 -1.35507e-05 0)
(4.42013e-05 -6.3738e-06 0)
(4.403e-05 3.74671e-07 0)
(4.20482e-05 6.43891e-06 0)
(3.8496e-05 1.15794e-05 0)
(3.3667e-05 1.56612e-05 0)
(2.79049e-05 1.85867e-05 0)
(2.15488e-05 2.03248e-05 0)
(1.49533e-05 2.09109e-05 0)
(8.43535e-06 2.04145e-05 0)
(2.31625e-06 1.89645e-05 0)
(-3.14184e-06 1.67239e-05 0)
(-7.74033e-06 1.38552e-05 0)
(-1.13206e-05 1.05645e-05 0)
(-1.37839e-05 7.04439e-06 0)
(-1.50867e-05 3.49104e-06 0)
(-1.52644e-05 7.86102e-08 0)
(-1.43767e-05 -3.02958e-06 0)
(-1.25494e-05 -5.69268e-06 0)
(-9.9338e-06 -7.81762e-06 0)
(-6.71734e-06 -9.32319e-06 0)
(-3.11861e-06 -1.01673e-05 0)
(6.54852e-07 -1.03416e-05 0)
(4.34613e-06 -9.87909e-06 0)
(7.73611e-06 -8.82868e-06 0)
(1.0651e-05 -7.27396e-06 0)
(1.2927e-05 -5.31187e-06 0)
(1.44305e-05 -3.06779e-06 0)
(1.50724e-05 -6.68425e-07 0)
(1.48128e-05 1.74596e-06 0)
(1.36577e-05 4.03739e-06 0)
(1.1662e-05 6.07458e-06 0)
(8.93373e-06 7.73464e-06 0)
(5.62347e-06 8.91202e-06 0)
(1.92212e-06 9.52939e-06 0)
(3.59588e-05 -0.000163571 0)
(0.00010745 -0.000154989 0)
(0.000177017 -0.000132918 0)
(0.000242692 -9.97213e-05 0)
(0.000302192 -5.55721e-05 0)
(0.000353361 -1.10312e-06 0)
(0.000393142 6.33311e-05 0)
(0.000420791 0.000136167 0)
(0.000435898 0.000216698 0)
(0.000436862 0.000302199 0)
(0.000422936 0.000391013 0)
(0.000393745 0.0004805 0)
(0.000349706 0.000568572 0)
(0.000291338 0.000652937 0)
(0.000219628 0.000731575 0)
(0.000136012 0.000802343 0)
(4.26194e-05 0.000863623 0)
(-5.98844e-05 0.000913771 0)
(-0.000170213 0.000951324 0)
(-0.000285058 0.000975387 0)
(-0.000401913 0.000984952 0)
(-0.000519178 0.000979593 0)
(-0.000633932 0.000959315 0)
(-0.000744551 0.000924242 0)
(-0.00084816 0.000875435 0)
(-0.000942186 0.000813596 0)
(-0.00102618 0.000740832 0)
(-0.00109754 0.000658193 0)
(-0.00115586 0.000569127 0)
(-0.00120097 0.00047451 0)
(-0.00123314 0.000377872 0)
(-0.00125247 0.000279864 0)
(-0.00125938 0.000182925 0)
(-0.0012563 8.82327e-05 0)
(-0.00124291 -3.14958e-06 0)
(-0.00121913 -9.08313e-05 0)
(-0.00118637 -0.00017401 0)
(-0.00114647 -0.000252082 0)
(-0.00110075 -0.000324501 0)
(-0.0010495 -0.000390946 0)
(-0.000993565 -0.000451189 0)
(-0.000933743 -0.00050512 0)
(-0.000870609 -0.000552577 0)
(-0.000804792 -0.00059364 0)
(-0.000736884 -0.000628226 0)
(-0.000667481 -0.000656463 0)
(-0.000596958 -0.000678408 0)
(-0.000526004 -0.00069421 0)
(-0.000454915 -0.00070392 0)
(-0.000384387 -0.000707755 0)
(-0.000314835 -0.000705765 0)
(-0.000246912 -0.000698132 0)
(-0.000180258 -0.000685 0)
(-0.000115934 -0.000666759 0)
(-5.46854e-05 -0.000643506 0)
(3.67573e-06 -0.000615626 0)
(5.85632e-05 -0.000583252 0)
(0.00010963 -0.000546933 0)
(0.000156519 -0.000506738 0)
(0.000199003 -0.000463171 0)
(0.000236193 -0.000416679 0)
(0.000268731 -0.000367658 0)
(0.000295688 -0.000316773 0)
(0.00031688 -0.000264263 0)
(0.000332542 -0.000211021 0)
(0.000342165 -0.000157277 0)
(0.000345871 -0.000103918 0)
(0.000343755 -5.13272e-05 0)
(0.000335691 -2.93468e-07 0)
(0.000321959 4.86602e-05 0)
(0.000302874 9.49078e-05 0)
(0.000278622 0.000137893 0)
(0.000249609 0.000177013 0)
(0.000216316 0.000211787 0)
(0.000179215 0.000241722 0)
(0.000138929 0.000266392 0)
(9.61896e-05 0.000285474 0)
(5.15932e-05 0.000298653 0)
(5.99462e-06 0.000305799 0)
(-3.98397e-05 0.000306776 0)
(-8.5052e-05 0.000301638 0)
(-0.000128808 0.000290434 0)
(-0.000170332 0.000273454 0)
(-0.00020877 0.000250992 0)
(-0.000243346 0.000223555 0)
(-0.000273356 0.000191627 0)
(-0.000298151 0.000155914 0)
(-0.000317219 0.000117104 0)
(-0.000330148 7.60703e-05 0)
(-0.000336621 3.37018e-05 0)
(-0.000336321 -8.9482e-06 0)
(-0.000329257 -5.10571e-05 0)
(-0.000315709 -9.15851e-05 0)
(-0.000295832 -0.000129581 0)
(-0.000270064 -0.000164082 0)
(-0.000238992 -0.000194231 0)
(-0.000203419 -0.000219265 0)
(-0.000164224 -0.000238496 0)
(-0.00012239 -0.000251431 0)
(-7.90269e-05 -0.000257707 0)
(-3.52224e-05 -0.000257137 0)
(7.72932e-06 -0.000249757 0)
(4.86494e-05 -0.000235752 0)
(8.63909e-05 -0.000215559 0)
(0.00011991 -0.000189802 0)
(0.000148164 -0.00015929 0)
(0.000170295 -0.000124948 0)
(0.000185632 -8.7941e-05 0)
(0.000193796 -4.9468e-05 0)
(0.000194665 -1.08115e-05 0)
(0.000188315 2.65636e-05 0)
(0.000174945 6.15226e-05 0)
(0.000155163 9.27778e-05 0)
(0.000129859 0.000119224 0)
(0.000100032 0.00013994 0)
(6.69099e-05 0.000154174 0)
(3.18458e-05 0.000161449 0)
(-3.59549e-06 0.00016159 0)
(-3.79112e-05 0.00015469 0)
(-6.96219e-05 0.000141158 0)
(-9.73928e-05 0.000121698 0)
(-0.000119995 9.73031e-05 0)
(-0.000136465 6.91928e-05 0)
(-0.000146129 3.87244e-05 0)
(-0.000148662 7.47363e-06 0)
(-0.00014405 -2.30054e-05 0)
(-0.000132715 -5.12821e-05 0)
(-0.000115325 -7.5996e-05 0)
(-9.29343e-05 -9.58806e-05 0)
(-6.67639e-05 -0.000110076 0)
(-3.82629e-05 -0.000117969 0)
(-9.05497e-06 -0.000119328 0)
(1.93023e-05 -0.000114198 0)
(4.52001e-05 -0.000103174 0)
(6.74381e-05 -8.69927e-05 0)
(8.48591e-05 -6.6738e-05 0)
(9.66221e-05 -4.36791e-05 0)
(0.000102357 -1.91948e-05 0)
(0.000101971 5.32828e-06 0)
(9.57058e-05 2.85335e-05 0)
(8.41209e-05 4.92021e-05 0)
(6.80561e-05 6.63334e-05 0)
(4.85652e-05 7.91554e-05 0)
(2.6886e-05 8.72256e-05 0)
(4.16033e-06 9.02788e-05 0)
(-1.8312e-05 8.85215e-05 0)
(-3.92431e-05 8.22948e-05 0)
(-5.77055e-05 7.21739e-05 0)
(-7.28956e-05 5.89393e-05 0)
(-8.41805e-05 4.34835e-05 0)
(-9.1236e-05 2.67277e-05 0)
(-9.39426e-05 9.63714e-06 0)
(-9.24133e-05 -6.92177e-06 0)
(-8.6997e-05 -2.21389e-05 0)
(-7.81593e-05 -3.5368e-05 0)
(-6.65436e-05 -4.61039e-05 0)
(-5.28727e-05 -5.40164e-05 0)
(-3.79073e-05 -5.89436e-05 0)
(-2.24253e-05 -6.0892e-05 0)
(-7.16139e-06 -6.00089e-05 0)
(7.2328e-06 -5.65667e-05 0)
(2.0177e-05 -5.09633e-05 0)
(3.12217e-05 -4.36196e-05 0)
(4.00357e-05 -3.50536e-05 0)
(4.64123e-05 -2.57555e-05 0)
(5.02884e-05 -1.62203e-05 0)
(5.17022e-05 -6.90802e-06 0)
(5.08269e-05 1.76233e-06 0)
(4.79058e-05 9.47506e-06 0)
(4.32334e-05 1.59458e-05 0)
(3.72016e-05 2.10127e-05 0)
(3.02016e-05 2.45605e-05 0)
(2.26444e-05 2.65785e-05 0)
(1.49299e-05 2.71096e-05 0)
(7.42417e-06 2.62709e-05 0)
(4.81003e-07 2.42391e-05 0)
(-5.62833e-06 2.1212e-05 0)
(-1.06822e-05 1.74257e-05 0)
(-1.45225e-05 1.31311e-05 0)
(-1.70587e-05 8.58221e-06 0)
(-1.82665e-05 4.01957e-06 0)
(-1.82007e-05 -3.31742e-07 0)
(-1.69395e-05 -4.26888e-06 0)
(-1.46435e-05 -7.62684e-06 0)
(-1.14983e-05 -1.02761e-05 0)
(-7.71322e-06 -1.21329e-05 0)
(-3.53397e-06 -1.31395e-05 0)
(7.92822e-07 -1.33031e-05 0)
(4.98703e-06 -1.26578e-05 0)
(8.81606e-06 -1.12755e-05 0)
(1.20856e-05 -9.25506e-06 0)
(1.46174e-05 -6.73461e-06 0)
(1.62725e-05 -3.86236e-06 0)
(1.69591e-05 -8.05251e-07 0)
(1.66338e-05 2.26528e-06 0)
(1.53128e-05 5.17227e-06 0)
(1.30601e-05 7.75359e-06 0)
(9.99341e-06 9.85429e-06 0)
(6.28604e-06 1.13471e-05 0)
(2.14832e-06 1.21253e-05 0)
(7.64963e-05 -0.000612173 0)
(0.000229016 -0.0005858 0)
(0.000378472 -0.000530625 0)
(0.000521998 -0.000447754 0)
(0.000655445 -0.000337811 0)
(0.000777026 -0.000202728 0)
(0.000881052 -4.38796e-05 0)
(0.000965228 0.000133648 0)
(0.00102291 0.000328393 0)
(0.00105003 0.000531058 0)
(0.00104757 0.000737769 0)
(0.00101376 0.000940321 0)
(0.000951059 0.00113341 0)
(0.000860729 0.00131178 0)
(0.000744927 0.0014713 0)
(0.000605953 0.00160865 0)
(0.00044722 0.00172107 0)