/*--------------------------------*- C++ -*----------------------------------*\
  =========                 |
  \\      /  F ield         | OpenFOAM: The Open Source CFD Toolbox
   \\    /   O peration     | Website:  https://openfoam.org
    \\  /    A nd           | Version:  12
     \\/     M anipulation  |
\*---------------------------------------------------------------------------*/
FoamFile
{
    format      ascii;
    class       volVectorField;
    location    "8.2";
    object      zeta;
}
// * * * * * * * * * * * * * * * * * * * * * * * * * * * * * * * * * * * * * //

dimensions      [0 1 0 0 0 0 0];

internalField   uniform (0 0 0);

boundaryField
{
    freeSurface
    {
        type            calculated;
        value           nonuniform List<vector> 
181
(
(0 0.00112152 0)
(0 0.00112079 0)
(0 0.00112063 0)
(0 0.00112045 0)
(0 0.00112032 0)
(0 0.00111998 0)
(0 0.00112008 0)
(0 0.00111947 0)
(0 -0.000723609 0)
(0 -0.000710215 0)
(0 -0.000699462 0)
(0 -0.000679973 0)
(0 -0.000655226 0)
(0 -0.000622918 0)
(0 -0.000585594 0)
(0 -0.000541181 0)
(0 -0.000492265 0)
(0 -0.000437813 0)
(0 -0.000378922 0)
(0 -0.000315717 0)
(0 -0.000248829 0)
(0 -0.000178491 0)
(0 -0.00010535 0)
(0 -2.99967e-05 0)
(0 4.69043e-05 0)
(0 0.000124667 0)
(0 0.000202589 0)
(0 0.000280045 0)
(0 0.000356351 0)
(0 0.000430795 0)
(0 0.00050263 0)
(0 0.000571063 0)
(0 0.000635297 0)
(0 0.00069464 0)
(0 0.000748394 0)
(0 0.000795911 0)
(0 0.000836534 0)
(0 0.000869687 0)
(0 0.000894811 0)
(0 0.000911424 0)
(0 0.000919165 0)
(0 0.000917758 0)
(0 0.000906994 0)
(0 0.000886748 0)
(0 0.000857033 0)
(0 0.000817921 0)
(0 0.000769661 0)
(0 0.000712638 0)
(0 0.000647323 0)
(0 0.000574355 0)
(0 0.000494554 0)
(0 0.000408818 0)
(0 0.000318094 0)
(0 0.000223637 0)
(0 0.00012664 0)
(0 2.84418e-05 0)
(0 -6.94914e-05 0)
(0 -0.000165708 0)
(0 -0.000258725 0)
(0 -0.000347015 0)
(0 -0.000429064 0)
(0 -0.000503503 0)
(0 -0.000568954 0)
(0 -0.000624053 0)
(0 -0.000667796 0)
(0 -0.000699167 0)
(0 -0.000717392 0)
(0 -0.000722017 0)
(0 -0.000712653 0)
(0 -0.000689395 0)
(0 -0.00065254 0)
(0 -0.000602724 0)
(0 -0.000540847 0)
(0 -0.0004681 0)
(0 -0.000386032 0)
(0 -0.000296405 0)
(0 -0.000201234 0)
(0 -0.000102732 0)
(0 -3.30549e-06 0)
(0 9.44912e-05 0)
(0 0.000188254 0)
(0 0.000275462 0)
(0 0.000353651 0)
(0 0.00042069 0)
(0 0.000474532 0)
(0 0.000513694 0)
(0 0.000536822 0)
(0 0.000543183 0)
(0 0.000532536 0)
(0 0.000505146 0)
(0 0.000461884 0)
(0 0.000404167 0)
(0 0.000333892 0)
(0 0.000253575 0)
(0 0.000166021 0)
(0 7.44404e-05 0)
(0 -1.76945e-05 0)
(0 -0.000106965 0)
(0 -0.000189868 0)
(0 -0.000263101 0)
(0 -0.000323767 0)
(0 -0.000369418 0)
(0 -0.000398207 0)
(0 -0.000409058 0)
(0 -0.000401692 0)
(0 -0.000376571 0)
(0 -0.000335203 0)
(0 -0.000279764 0)
(0 -0.000213299 0)
(0 -0.000139425 0)
(0 -6.21313e-05 0)
(0 1.4293e-05 0)
(0 8.5771e-05 0)
(0 0.000148291 0)
(0 0.000198515 0)
(0 0.000233715 0)
(0 0.000252161 0)
(0 0.000253108 0)
(0 0.000236869 0)
(0 0.000204988 0)
(0 0.000160073 0)
(0 0.000105704 0)
(0 4.61034e-05 0)
(0 -1.39284e-05 0)
(0 -6.98728e-05 0)
(0 -0.000117393 0)
(0 -0.000152931 0)
(0 -0.000174009 0)
(0 -0.000179542 0)
(0 -0.00016982 0)
(0 -0.000146547 0)
(0 -0.000112576 0)
(0 -7.16259e-05 0)
(0 -2.78331e-05 0)
(0 1.45986e-05 0)
(0 5.20187e-05 0)
(0 8.13693e-05 0)
(0 0.000100622 0)
(0 0.00010886 0)
(0 0.000106221 0)
(0 9.38818e-05 0)
(0 7.37986e-05 0)
(0 4.84372e-05 0)
(0 2.04981e-05 0)
(0 -7.33654e-06 0)
(0 -3.27578e-05 0)
(0 -5.38629e-05 0)
(0 -6.93322e-05 0)
(0 -7.84885e-05 0)
(0 -8.1278e-05 0)
(0 -7.81838e-05 0)
(0 -7.01362e-05 0)
(0 -5.836e-05 0)
(0 -4.42391e-05 0)
(0 -2.91956e-05 0)
(0 -1.45738e-05 0)
(0 -1.48115e-06 0)
(0 9.19431e-06 0)
(0 1.68704e-05 0)
(0 2.12763e-05 0)
(0 2.24297e-05 0)
(0 2.06086e-05 0)
(0 1.62942e-05 0)
(0 1.0111e-05 0)
(0 2.7664e-06 0)
(0 -5.00981e-06 0)
(0 -1.25247e-05 0)
(0 -1.91632e-05 0)
(0 -2.44359e-05 0)
(0 -2.80034e-05 0)
(0 -2.96694e-05 0)
(0 -2.94038e-05 0)
(0 -2.73367e-05 0)
(0 -2.37339e-05 0)
(0 -1.8969e-05 0)
(0 -1.34977e-05 0)
(0 -7.82027e-06 0)
(0 -2.45139e-06 0)
(0 2.12023e-06 0)
(0 5.46413e-06 0)
(0 7.24331e-06 0)
)
;
    }
    walls
    {
        type            calculated;
        value           uniform (0 0 0);
    }
    floatingObject
    {
        type            calculated;
        value           uniform (0 0 0);
    }
    frontAndBack
    {
        type            empty;
    }
}


// ************************************************************************* //
