# Selection :     patch(inlet)
# Faces  :        1
# Area   :        1.0000000000e-01
# Time            	sum(phi)
1                 	-1.0000000000e+00
