#           v             n
  9.71334e-06    0.00980688
  1.21417e-05    0.00139476
  1.51771e-05    0.00178529
  1.89714e-05    0.00228517
  2.37142e-05    0.00274221
  2.96428e-05    0.00339303
  3.70535e-05     0.0042682
  4.63168e-05    0.00527161
   5.7896e-05    0.00659432
  7.23701e-05    0.00824446
  9.04626e-05     0.0102892
  0.000113078     0.0128245
  0.000141348     0.0159885
  0.000176685     0.0199124
  0.000220856     0.0247826
   0.00027607     0.0308088
  0.000345087     0.0382495
  0.000431359     0.0474072
  0.000539199      0.058636
  0.000673999     0.0723368
  0.000842498     0.0889552
   0.00105312      0.108962
    0.0013164      0.132827
    0.0016455      0.160967
   0.00205688      0.193676
    0.0025711      0.231031
   0.00321388      0.272771
   0.00401735      0.318177
   0.00502168      0.365983
    0.0062771      0.414373
   0.00784638      0.461107
   0.00980797      0.503847
      0.01226        0.5406
     0.015325      0.570169
    0.0191562      0.592319
    0.0239452      0.607494
    0.0299316      0.616179
    0.0374144        0.6183
    0.0467681      0.613138
    0.0584601      0.599735
    0.0730751      0.577326
    0.0913439       0.54548
      0.11418      0.504115
     0.142725      0.453648
     0.178406      0.395223
     0.223007      0.330928
     0.278759      0.263895
     0.348449      0.202527
     0.435561      0.146893
     0.544452     0.0982172
     0.680565     0.0594071
     0.850706     0.0317724
      1.06338     0.0146431
      1.32923    0.00563144
      1.66153    0.00174544
      2.07692    0.00041793
      2.59615   6.59153e-05
      3.24519   8.43312e-06
      4.05648   7.24184e-07
       5.0706   3.96547e-08
      6.33825   1.32392e-09
      7.92282    2.6243e-11
      9.90352   3.10795e-13
      12.3794   2.30637e-15
      15.4743   1.14683e-17
      19.3428   4.00631e-20
      24.1785   9.99696e-23
      30.2231     1.783e-25
      37.7789   2.26441e-28
      47.2237   2.03828e-31
      59.0296   2.91367e-34
