#           y            Uf            nu         nuEff             k       epsilon           Rff           Rww           Rfw             u             v             w            uv      gammaDot
  2.80937e-05      0.324326         1e-05         1e-05   1.67072e-05      0.344288   1.11381e-05   1.11381e-05  -2.84797e-08    0.00333738    0.00333738    0.00333738  -2.84797e-08       11695.1
  8.78022e-05       1.03162         1e-05   1.00005e-05   0.000930506       4.96233   0.000620337   0.000620337   -6.3766e-06     0.0249066     0.0249066     0.0249066   -6.3766e-06       12138.5
  0.000154994        1.8669         1e-05   1.00147e-05     0.0114032       28.1774    0.00760211    0.00760211  -0.000189188     0.0871901     0.0871901     0.0871901  -0.000189188       12829.8
  0.000230608       2.86714         1e-05   1.03364e-05     0.0803916        112.29     0.0535944     0.0535944   -0.00422451      0.231505      0.231505      0.231505   -0.00422451       12558.5
  0.000315699       3.87876         1e-05   1.56559e-05      0.301479       340.705      0.200986      0.200986    -0.0554763      0.448315      0.448315      0.448315    -0.0554763       9808.59
  0.000411455       4.61881         1e-05   2.85785e-05      0.481606       472.642      0.321071      0.321071     -0.116519      0.566631      0.566631      0.566631     -0.116519        6271.7
  0.000519212       5.13765         1e-05   4.54416e-05      0.554577       435.468      0.369718      0.369718     -0.143861      0.608045      0.608045      0.608045     -0.143861        4059.1
  0.000640475       5.53822         1e-05   6.53292e-05      0.583091       365.176      0.388727      0.388727     -0.158791       0.62348       0.62348       0.62348     -0.158791       2869.93
  0.000776937       5.87071         1e-05   8.69226e-05       0.59187       301.352       0.39458       0.39458     -0.166502      0.628156      0.628156      0.628156     -0.166502       2164.54
  0.000930502       6.16134         1e-05   0.000109714      0.590738       248.992      0.393825      0.393825     -0.170166      0.627555      0.627555      0.627555     -0.170166       1706.55
   0.00110331       6.42411         1e-05   0.000133544      0.583827       206.595      0.389218      0.389218     -0.171099      0.623873      0.623873      0.623873     -0.171099       1384.93
   0.00129779       6.66707         1e-05   0.000158414      0.573133       172.058      0.382089      0.382089     -0.170066      0.618133      0.618133      0.618133     -0.170066       1145.89
   0.00151663        6.8952         1e-05   0.000184386      0.559746       143.665      0.373164      0.373164     -0.167571      0.610872      0.610872      0.610872     -0.167571       960.919
   0.00176291       7.11178         1e-05   0.000211549      0.544337        120.13      0.362891      0.362891     -0.163968      0.602405      0.602405      0.602405     -0.163968        813.54
   0.00204005       7.31899         1e-05   0.000240007      0.527362       100.494      0.351575      0.351575     -0.159519      0.592938      0.592938      0.592938     -0.159519       693.539
   0.00235193        7.5184         1e-05    0.00026988       0.50917       84.0375      0.339447      0.339447     -0.154428      0.582621      0.582621      0.582621     -0.154428       594.229
    0.0027029       7.71111         1e-05   0.000301297       0.49005       70.2056        0.3267        0.3267     -0.148863      0.571577      0.571577      0.571577     -0.148863       511.036
   0.00309785       7.89792         1e-05   0.000334401      0.470253       58.5643      0.313502      0.313502     -0.142965      0.559912      0.559912      0.559912     -0.142965       440.706
   0.00354231       8.07945         1e-05    0.00036934      0.450003       48.7656      0.300002      0.300002     -0.136853      0.547724      0.547724      0.547724     -0.136853       380.845
   0.00404248       8.25614         1e-05   0.000406268        0.4295       40.5245      0.286333      0.286333     -0.130625      0.535101      0.535101      0.535101     -0.130625       329.638
   0.00460533       8.42838         1e-05   0.000445332      0.408918       33.6036      0.272612      0.272612      -0.12436      0.522123      0.522123      0.522123      -0.12436       285.668
   0.00523873       8.59644         1e-05   0.000486667      0.388405       27.8026      0.258936      0.258936     -0.118121      0.508858      0.508858      0.508858     -0.118121       247.806
   0.00595151       8.76058         1e-05    0.00053038      0.368079       22.9509      0.245386      0.245386     -0.111954      0.495364      0.495364      0.495364     -0.111954       215.138
   0.00675364         8.921         1e-05   0.000576531      0.348032       18.9025      0.232021      0.232021      -0.10589      0.481686      0.481686      0.481686      -0.10589       186.909
    0.0076563        9.0779         1e-05   0.000625109      0.328325       15.5321      0.218884      0.218884    -0.0999475       0.46785       0.46785       0.46785    -0.0999475       162.487
   0.00867209       9.23144         1e-05   0.000675997      0.308993       12.7321      0.205996      0.205996    -0.0941342      0.453867      0.453867      0.453867    -0.0941342       141.343
    0.0098152        9.3818         1e-05   0.000728932      0.290041       10.4103      0.193361      0.193361    -0.0884459      0.439728      0.439728      0.439728    -0.0884459       123.024
    0.0111016       9.52911         1e-05   0.000783454      0.271447        8.4879      0.180965      0.180965    -0.0828683        0.4254        0.4254        0.4254    -0.0828683       107.141
    0.0125492       9.67353         1e-05   0.000838845      0.253163       6.89796      0.168776      0.168776    -0.0773779      0.410823      0.410823      0.410823    -0.0773779       93.3563
    0.0141782       9.81518         1e-05    0.00089406      0.235116       5.58357      0.156744      0.156744    -0.0719413      0.395909      0.395909      0.395909    -0.0719413       81.3761
    0.0160115       9.95414         1e-05    0.00094766      0.217209       4.49673      0.144806      0.144806    -0.0665153      0.380534      0.380534      0.380534    -0.0665153       70.9376
    0.0180745       10.0904         1e-05   0.000997756      0.199326       3.59707      0.132884      0.132884    -0.0610461      0.364532      0.364532      0.364532    -0.0610461       61.8029
     0.020396        10.224         1e-05      0.001042      0.181336        2.8509      0.120891      0.120891    -0.0554677      0.347693      0.347693      0.347693    -0.0554677       53.7477
    0.0230086       10.3545         1e-05     0.0010777      0.163111       2.23033       0.10874       0.10874    -0.0496996      0.329758      0.329758      0.329758    -0.0496996       46.5485
    0.0259485       10.4814         1e-05    0.00110214      0.144552       1.71286     0.0963679     0.0963679    -0.0436435      0.310432      0.310432      0.310432    -0.0436435       39.9614
     0.029257       10.6031         1e-05    0.00111355       0.12567       1.28136     0.0837803     0.0837803    -0.0371805      0.289448      0.289448      0.289448    -0.0371805       33.6916
    0.0329801        10.717         1e-05     0.0011131      0.106752       0.92498     0.0711678     0.0711678     -0.030176      0.266773      0.266773      0.266773     -0.030176       27.3557
    0.0371699        10.818         1e-05    0.00110842     0.0886899       0.64115     0.0591266     0.0591266    -0.0225156       0.24316       0.24316       0.24316    -0.0225156       20.4982
    0.0418848       10.8976         1e-05    0.00111516     0.0734484      0.437063     0.0489656     0.0489656    -0.0141367      0.221282      0.221282      0.221282    -0.0141367       12.7915
    0.0471906       10.9438         1e-05    0.00113811     0.0641486      0.326672     0.0427657     0.0427657    -0.0047721      0.206799      0.206799      0.206799    -0.0047721       4.23017
    0.0528094       10.9424         1e-05    0.00113959     0.0644639      0.329465     0.0429759     0.0429759    0.00531096      0.207306      0.207306      0.207306    0.00531096       4.70169
    0.0581152       10.8938         1e-05     0.0011204     0.0742867      0.445008     0.0495245     0.0495245      0.014662      0.222541      0.222541      0.222541      0.014662       13.2042
    0.0628301       10.8125         1e-05    0.00111658      0.089839      0.653066     0.0598927     0.0598927     0.0230312       0.24473       0.24473       0.24473     0.0230312       20.8129
    0.0670199       10.7104         1e-05    0.00112227      0.108035       0.93962     0.0720234     0.0720234     0.0306712      0.268372      0.268372      0.268372     0.0306712       27.5754
     0.070743       10.5958         1e-05     0.0011225      0.126988       1.29795     0.0846586     0.0846586     0.0376512      0.290961      0.290961      0.290961     0.0376512       33.8438
    0.0740515       10.4737         1e-05    0.00111031      0.145857       1.73111     0.0972381     0.0972381     0.0440916       0.31183       0.31183       0.31183     0.0440916       40.0718
    0.0769914       10.3466         1e-05    0.00108493      0.164385       2.25022       0.10959       0.10959     0.0501281      0.331044      0.331044      0.331044     0.0501281       46.6337
     0.079604       10.2158         1e-05    0.00104831      0.182573       2.87255      0.121715      0.121715     0.0558792      0.348877      0.348877      0.348877     0.0558792       53.8176
    0.0819255       10.0821         1e-05     0.0010032      0.200522       3.62065      0.133681      0.133681     0.0614424      0.365624      0.365624      0.365624     0.0614424        61.863
    0.0839885        9.9457         1e-05   0.000952343      0.218364        4.5224      0.145576      0.145576     0.0668976      0.381544      0.381544      0.381544     0.0668976       70.9907
    0.0858218       9.80664         1e-05   0.000898077      0.236229       5.61145      0.157486      0.157486     0.0723102      0.396845      0.396845      0.396845     0.0723102       81.4233
    0.0874508       9.66492         1e-05   0.000842288      0.254234       6.92812      0.169489      0.169489     0.0777336      0.411691      0.411691      0.411691     0.0777336       93.3975
    0.0888984       9.52045         1e-05   0.000786403      0.272474       8.52031      0.181649      0.181649     0.0832106      0.426203      0.426203      0.426203     0.0832106       107.174
    0.0901848        9.3731         1e-05   0.000731458      0.291021       10.4448      0.194014      0.194014     0.0887741       0.44047       0.44047       0.44047     0.0887741       123.048
    0.0913279       9.22272         1e-05   0.000678161      0.309923       12.7683      0.206615      0.206615     0.0944476       0.45455       0.45455       0.45455     0.0944476       141.355
    0.0923437       9.06918         1e-05   0.000626962      0.329201       15.5695      0.219468      0.219468      0.100245      0.468474      0.468474      0.468474      0.100245       162.481
    0.0932464       8.91229         1e-05   0.000578118       0.34885       18.9402      0.232567      0.232567      0.106169      0.482252      0.482252      0.482252      0.106169       186.879
    0.0940485        8.7519         1e-05   0.000531738      0.368836       22.9876      0.245891      0.245891      0.112214      0.495874      0.495874      0.495874      0.112214       215.077
    0.0947613       8.58782         1e-05   0.000487828      0.389096       27.8366      0.259397      0.259397       0.11836       0.50931       0.50931       0.50931       0.11836       247.705
    0.0953947       8.41984         1e-05   0.000446324      0.409539       33.6328      0.273026      0.273026      0.124576      0.522519      0.522519      0.522519      0.124576       285.513
    0.0959575       8.24771         1e-05   0.000407114      0.430046       40.5459      0.286698      0.286698      0.130816      0.535442      0.535442      0.535442      0.130816       329.416
    0.0964577       8.07114         1e-05   0.000370061      0.450472       48.7758      0.300315      0.300315      0.137016       0.54801       0.54801       0.54801      0.137016       380.537
    0.0969021       7.88978         1e-05   0.000335014      0.470642       58.5591      0.313761      0.313761        0.1431      0.560144      0.560144      0.560144        0.1431       440.288
    0.0972971       7.70315         1e-05   0.000301819       0.49036       70.1798      0.326907      0.326907      0.148968      0.571758      0.571758      0.571758      0.148968       510.482
    0.0976481       7.51066         1e-05   0.000270325      0.509404       83.9855      0.339603      0.339603      0.154504      0.582754      0.582754      0.582754      0.154504       593.504
      0.09796       7.31151         1e-05   0.000240389      0.527524       100.409      0.351683      0.351683      0.159567      0.593028      0.593028      0.593028      0.159567         692.6
    0.0982371       7.10459         1e-05   0.000211878      0.544436       120.004      0.362957      0.362957      0.163991      0.602459      0.602459      0.602459      0.163991       812.327
    0.0984834       6.88835         1e-05   0.000184676      0.559794       143.489      0.373196      0.373196      0.167574      0.610898      0.610898      0.610898      0.167574       959.344
    0.0987022       6.66061         1e-05   0.000158674      0.573146       171.822      0.382097      0.382097      0.170055       0.61814       0.61814       0.61814      0.170055       1143.81
    0.0988967       6.41811         1e-05   0.000133783      0.583831       206.286       0.38922       0.38922      0.171082      0.623875      0.623875      0.623875      0.171082       1382.11
    0.0990695       6.15591         1e-05   0.000109941      0.590772         248.6      0.393848      0.393848      0.170157      0.627573      0.627573      0.627573      0.170157       1702.58
    0.0992231       5.86599         1e-05   8.71465e-05      0.592009       300.881      0.394673      0.394673      0.166532       0.62823       0.62823       0.62823      0.166532       2158.64
    0.0993595       5.53447         1e-05   6.55595e-05      0.583477       364.675      0.388985      0.388985      0.158915      0.623687      0.623687      0.623687      0.158915       2860.26
    0.0994808       5.13538         1e-05   4.56832e-05      0.555526       435.198       0.37035       0.37035      0.144189      0.608564      0.608564      0.608564      0.144189        4040.8
    0.0995885       4.61917         1e-05   2.88092e-05      0.483864       473.924      0.322576      0.322576      0.117197      0.567958      0.567958      0.567958      0.117197       6230.84
    0.0996843       3.88461         1e-05   1.58515e-05       0.30673        346.75      0.204487      0.204487     0.0570713      0.452202      0.452202      0.452202     0.0570713       9753.31
    0.0997694       2.87753         1e-05   1.03592e-05     0.0833493       115.776     0.0555662     0.0555662    0.00450805      0.235725      0.235725      0.235725    0.00450805       12550.9
     0.099845        1.8744         1e-05   1.00157e-05     0.0119754       29.2249     0.0079836     0.0079836   0.000202635      0.089351      0.089351      0.089351   0.000202635       12873.1
    0.0999122       1.03585         1e-05   1.00006e-05   0.000991739       5.20491   0.000661159   0.000661159    6.9348e-06      0.025713      0.025713      0.025713    6.9348e-06         12187
    0.0999719      0.325672         1e-05         1e-05   1.80244e-05      0.365709   1.20163e-05   1.20163e-05   3.13344e-08    0.00346645    0.00346645    0.00346645   3.13344e-08       11743.2
