# Probe 0 (0 0 0)
# Time            0                
0                 0                
0.0025            244.4688316      
0.005             334.5473611      
0.0075            414.3514039      
0.01              485.1106754      
0.0125            547.9858991      
0.015             603.9785485      
0.0175            653.952103       
0.02              698.6512411      
0.0225            738.7188007      
0.025             774.7104593      
0.0275            807.1073721      
0.03              836.3269572      
0.0325            862.7320737      
0.035             886.6388158      
0.0375            908.3231302      
0.04              928.0264338      
0.0425            945.9603876      
0.045             962.3109587      
0.0475            977.241881       
0.05              990.8976093      
0.0525            1003.405847      
0.055             1014.879709      
0.0575            1025.419582      
0.06              1035.114724      
0.0625            1044.044643      
0.065             1052.280287      
0.0675            1059.885075      
0.07              1066.915796      
0.0725            1073.42338       
0.075             1079.453579      
0.0775            1085.047558      
0.08              1090.24241       
0.0825            1095.071608      
0.085             1099.565403      
0.0875            1103.751172      
0.09              1107.653726      
0.0925            1111.295579      
0.095             1114.697189      
0.0975            1117.877167      
0.1               1120.85247       
0.1025            1123.638559      
0.105             1126.249556      
0.1075            1128.698366      
0.11              1130.996804      
0.1125            1133.155694      
0.115             1135.184961      
0.1175            1137.093722      
0.12              1138.890354      
0.1225            1140.582564      
0.125             1142.17745       
0.1275            1143.681554      
0.13              1145.100915      
0.1325            1146.441107      
0.135             1147.707284      
0.1375            1148.904212      
0.14              1150.036308      
0.1425            1151.107661      
0.145             1152.122066      
0.1475            1153.083045      
0.15              1153.99387       
0.1525            1154.857581      
0.155             1155.677009      
0.1575            1156.454787      
0.16              1157.19337       
0.1625            1157.895047      
0.165             1158.561953      
0.1675            1159.19608       
0.17              1159.79929       
0.1725            1160.373326      
0.175             1160.919814      
0.1775            1161.44028       
0.18              1161.936154      
0.1825            1162.408771      
0.185             1162.859384      
0.1875            1163.289171      
0.19              1163.699236      
0.1925            1164.090617      
0.195             1164.46429       
0.1975            1164.821171      
0.2               1165.162124      
0.2025            1165.487959      
0.205             1165.799443      
0.2075            1166.097294      
0.21              1166.382194      
0.2125            1166.654781      
0.215             1166.915661      
0.2175            1167.165404      
0.22              1167.404548      
0.2225            1167.633604      
0.225             1167.853052      
0.2275            1168.063347      
0.23              1168.264919      
0.2325            1168.458178      
0.235             1168.643507      
0.2375            1168.821273      
0.24              1168.991822      
0.2425            1169.155482      
0.245             1169.312565      
0.2475            1169.463367      
0.25              1169.608167      
0.2525            1169.747232      
0.255             1169.880814      
0.2575            1170.009155      
0.26              1170.132482      
0.2625            1170.251012      
0.265             1170.364952      
0.2675            1170.474499      
0.27              1170.579839      
0.2725            1170.68115       
0.275             1170.778603      
0.2775            1170.872359      
0.28              1170.96257       
0.2825            1171.049386      
0.285             1171.132945      
0.2875            1171.21338       
0.29              1171.29082       
0.2925            1171.365386      
0.295             1171.437194      
0.2975            1171.506354      
0.3               1171.572974      
0.3025            1171.637153      
0.305             1171.698989      
0.3075            1171.758574      
0.31              1171.815996      
0.3125            1171.871341      
0.315             1171.924689      
0.3175            1171.976117      
0.32              1172.025699      
0.3225            1172.073508      
0.325             1172.11961       
0.3275            1172.16407       
0.33              1172.206951      
0.3325            1172.248314      
0.335             1172.288214      
0.3375            1172.326707      
0.34              1172.363847      
0.3425            1172.399682      
0.345             1172.434263      
0.3475            1172.467634      
0.35              1172.499842      
0.3525            1172.530928      
0.355             1172.560935      
0.3575            1172.589901      
0.36              1172.617864      
0.3625            1172.644862      
0.365             1172.670928      
0.3675            1172.696097      
0.37              1172.720402      
0.3725            1172.743872      
0.375             1172.766538      
0.3775            1172.788429      
0.38              1172.809573      
0.3825            1172.829996      
0.385             1172.849723      
0.3875            1172.86878       
0.39              1172.887189      
0.3925            1172.904975      
0.395             1172.922158      
0.3975            1172.93876       
0.4               1172.954801      
0.4025            1172.970302      
0.405             1172.98528       
0.4075            1172.999754      
0.41              1173.013741      
0.4125            1173.027258      
0.415             1173.040322      
0.4175            1173.052949      
0.42              1173.065152      
0.4225            1173.076948      
0.425             1173.088349      
0.4275            1173.09937       
0.43              1173.110023      
0.4325            1173.120322      
0.435             1173.130277      
0.4375            1173.139901      
0.44              1173.149206      
0.4425            1173.158201      
0.445             1173.166898      
0.4475            1173.175307      
0.45              1173.183437      
0.4525            1173.191297      
0.455             1173.198898      
0.4575            1173.206247      
0.46              1173.213354      
0.4625            1173.220225      
0.465             1173.22687       
0.4675            1173.233296      
0.47              1173.23951       
0.4725            1173.245519      
0.475             1173.251331      
0.4775            1173.256951      
0.48              1173.262386      
0.4825            1173.267643      
0.485             1173.272727      
0.4875            1173.277643      
0.49              1173.282399      
0.4925            1173.286998      
0.495             1173.291447      
0.4975            1173.29575       
0.5               1173.299911      
