# Probe 0 (0 0 0)
# Time            0                
0                 0                
0.0025            -8.484804071e-05 
0.005             -0.0001047078728 
0.0075            -0.0001219359832 
0.01              -0.0001369279177 
0.0125            -0.0001500396881 
0.015             -0.0001615605355 
0.0175            -0.000171727224  
0.02              -0.0001807349145 
0.0225            -0.0001887455363 
0.025             -0.0001958942666 
0.0275            -0.0002022946029 
0.03              -0.0002080423572 
0.0325            -0.0002132188236 
0.035             -0.000217893309  
0.0375            -0.0002221251678 
0.04              -0.0002259654479 
0.0425            -0.0002294582299 
0.045             -0.0002326417231 
0.0475            -0.0002355491671 
0.05              -0.0002382095773 
0.0525            -0.0002406483638 
0.055             -0.0002428878484 
0.0575            -0.0002449476975 
0.06              -0.0002468452864 
0.0625            -0.0002485960076 
0.065             -0.0002502135313 
0.0675            -0.0002517100284 
0.07              -0.0002530963597 
0.0725            -0.0002543822388 
0.075             -0.0002555763719 
0.0775            -0.0002566865781 
0.08              -0.0002577198939 
0.0825            -0.0002586826631 
0.085             -0.000259580616  
0.0875            -0.000260418937  
0.09              -0.0002612023253 
0.0925            -0.0002619350467 
0.095             -0.0002626209796 
0.0975            -0.0002632636558 
0.1               -0.0002638662959 
0.1025            -0.000264431841  
0.105             -0.0002649629802 
0.1075            -0.0002654621761 
0.11              -0.0002659316859 
0.1125            -0.0002663735817 
0.115             -0.0002667897676 
0.1175            -0.0002671819954 
0.12              -0.0002675518786 
0.1225            -0.0002679009047 
0.125             -0.0002682304467 
0.1275            -0.0002685417731 
0.13              -0.0002688360571 
0.1325            -0.0002691143845 
0.135             -0.0002693777613 
0.1375            -0.0002696271205 
0.14              -0.000269863328  
0.1425            -0.0002700871882 
0.145             -0.0002702994486 
0.1475            -0.0002705008051 
0.15              -0.0002706919055 
0.1525            -0.0002708733532 
0.155             -0.0002710457111 
0.1575            -0.0002712095045 
0.16              -0.0002713652238 
0.1625            -0.0002715133271 
0.165             -0.0002716542431 
0.1675            -0.0002717883726 
0.17              -0.000271916091  
0.1725            -0.0002720377499 
0.175             -0.0002721536788 
0.1775            -0.0002722641868 
0.18              -0.000272369565  
0.1825            -0.0002724700848 
0.185             -0.000272566002  
0.1875            -0.0002726575571 
0.19              -0.0002727449764 
0.1925            -0.0002728284726 
0.195             -0.0002729082462 
0.1975            -0.0002729844859 
0.2               -0.0002730573695 
0.2025            -0.0002731270646 
0.205             -0.0002731937295 
0.2075            -0.0002732575133 
0.21              -0.0002733185569 
0.2125            -0.0002733769933 
0.215             -0.0002734329484 
0.2175            -0.0002734865409 
0.22              -0.0002735378832 
0.2225            -0.0002735870816 
0.225             -0.0002736342368 
0.2275            -0.0002736794441 
0.23              -0.0002737227938 
0.2325            -0.0002737643713 
0.235             -0.0002738042577 
0.2375            -0.0002738425298 
0.24              -0.0002738792608 
0.2425            -0.0002739145196 
0.245             -0.0002739483721 
0.2475            -0.0002739808807 
0.25              -0.0002740121045 
0.2525            -0.0002740421    
0.255             -0.0002740709206 
0.2575            -0.0002740986174 
0.26              -0.0002741252388 
0.2625            -0.0002741508307 
0.265             -0.0002741754372 
0.2675            -0.0002741991    
0.27              -0.0002742218589 
0.2725            -0.0002742437518 
0.275             -0.0002742648149 
0.2775            -0.0002742850825 
0.28              -0.0002743045876 
0.2825            -0.0002743233615 
0.285             -0.0002743414341 
0.2875            -0.0002743588338 
0.29              -0.0002743755881 
0.2925            -0.0002743917228 
0.295             -0.0002744072629 
0.2975            -0.0002744222321 
0.3               -0.000274436653  
0.3025            -0.0002744505474 
0.305             -0.0002744639361 
0.3075            -0.0002744768388 
0.31              -0.0002744892746 
0.3125            -0.0002745012616 
0.315             -0.0002745128172 
0.3175            -0.0002745239581 
0.32              -0.0002745347001 
0.3225            -0.0002745450586 
0.325             -0.0002745550482 
0.3275            -0.0002745646829 
0.33              -0.0002745739761 
0.3325            -0.0002745829407 
0.335             -0.0002745915891 
0.3375            -0.0002745999331 
0.34              -0.0002746079841 
0.3425            -0.0002746157529 
0.345             -0.0002746232501 
0.3475            -0.0002746304856 
0.35              -0.0002746374691 
0.3525            -0.0002746442098 
0.355             -0.0002746507167 
0.3575            -0.0002746569983 
0.36              -0.0002746630627 
0.3625            -0.0002746689179 
0.365             -0.0002746745713 
0.3675            -0.0002746800304 
0.37              -0.0002746853021 
0.3725            -0.0002746903931 
0.375             -0.0002746953098 
0.3775            -0.0002747000586 
0.38              -0.0002747046453 
0.3825            -0.0002747090758 
0.385             -0.0002747133556 
0.3875            -0.00027471749   
0.39              -0.0002747214841 
0.3925            -0.0002747253429 
0.395             -0.0002747290711 
0.3975            -0.0002747326733 
0.4               -0.0002747361539 
0.4025            -0.0002747395172 
0.405             -0.0002747427672 
0.4075            -0.0002747459079 
0.41              -0.000274748943  
0.4125            -0.0002747518763 
0.415             -0.0002747547113 
0.4175            -0.0002747574512 
0.42              -0.0002747600995 
0.4225            -0.0002747626593 
0.425             -0.0002747651336 
0.4275            -0.0002747675253 
0.43              -0.0002747698373 
0.4325            -0.0002747720722 
0.435             -0.0002747742328 
0.4375            -0.0002747763216 
0.44              -0.0002747783409 
0.4425            -0.0002747802932 
0.445             -0.0002747821807 
0.4475            -0.0002747840057 
0.45              -0.0002747857702 
0.4525            -0.0002747874763 
0.455             -0.0002747891259 
0.4575            -0.000274790721  
0.46              -0.0002747922634 
0.4625            -0.0002747937549 
0.465             -0.0002747951972 
0.4675            -0.0002747965919 
0.47              -0.0002747979406 
0.4725            -0.0002747992449 
0.475             -0.0002748005063 
0.4775            -0.0002748017261 
0.48              -0.0002748029059 
0.4825            -0.0002748040469 
0.485             -0.0002748051503 
0.4875            -0.0002748062176 
0.49              -0.0002748072498 
0.4925            -0.0002748082481 
0.495             -0.0002748092138 
0.4975            -0.0002748101477 
0.5               -0.0002748110511 
