# Probe 0 (0 0 0)
# Time            0                
0                 100000           
0.0025            102224.6291      
0.005             104244.3037      
0.0075            106085.7488      
0.01              107766.9529      
0.0125            109303.7091      
0.015             110709.9398      
0.0175            111997.9678      
0.02              113178.7393      
0.0225            114262.01        
0.025             115256.5012      
0.0275            116170.031       
0.03              117009.6267      
0.0325            117781.6189      
0.035             118491.724       
0.0375            119145.1137      
0.04              119746.4765      
0.0425            120300.0694      
0.045             120809.765       
0.0475            121279.0906      
0.05              121711.2642      
0.0525            122109.2256      
0.055             122475.6631      
0.0575            122813.0384      
0.06              123123.6082      
0.0625            123409.443       
0.065             123672.4443      
0.0675            123914.3603      
0.07              124136.7992      
0.0725            124341.2416      
0.075             124529.0517      
0.0775            124701.4874      
0.08              124859.709       
0.0825            125004.7878      
0.085             125137.7129      
0.0875            125259.3985      
0.09              125370.6897      
0.0925            125472.3682      
0.095             125565.1571      
0.0975            125649.7258      
0.1               125726.6941      
0.1025            125796.636       
0.105             125860.0833      
0.1075            125917.5287      
0.11              125969.4291      
0.1125            126016.2077      
0.115             126058.2572      
0.1175            126095.9418      
0.12              126129.599       
0.1225            126159.542       
0.125             126186.0614      
0.1275            126209.4267      
0.13              126229.888       
0.1325            126247.6771      
0.135             126263.0093      
0.1375            126276.0841      
0.14              126287.0868      
0.1425            126296.189       
0.145             126303.5501      
0.1475            126309.3177      
0.15              126313.6288      
0.1525            126316.6102      
0.155             126318.3796      
0.1575            126319.0461      
0.16              126318.7105      
0.1625            126317.4663      
0.165             126315.4002      
0.1675            126312.5922      
0.17              126309.1163      
0.1725            126305.0412      
0.175             126300.4301      
0.1775            126295.3414      
0.18              126289.8293      
0.1825            126283.9434      
0.185             126277.7298      
0.1875            126271.2308      
0.19              126264.4854      
0.1925            126257.5294      
0.195             126250.3957      
0.1975            126243.1148      
0.2               126235.7142      
0.2025            126228.2195      
0.205             126220.654       
0.2075            126213.039       
0.21              126205.3938      
0.2125            126197.7362      
0.215             126190.0823      
0.2175            126182.4466      
0.22              126174.8425      
0.2225            126167.282       
0.225             126159.7757      
0.2275            126152.3334      
0.23              126144.9637      
0.2325            126137.6745      
0.235             126130.4726      
0.2375            126123.364       
0.24              126116.3542      
0.2425            126109.4478      
0.245             126102.6488      
0.2475            126095.9607      
0.25              126089.3864      
0.2525            126082.9284      
0.255             126076.5887      
0.2575            126070.3688      
0.26              126064.27        
0.2625            126058.293       
0.265             126052.4386      
0.2675            126046.7068      
0.27              126041.0978      
0.2725            126035.6113      
0.275             126030.2467      
0.2775            126025.0036      
0.28              126019.881       
0.2825            126014.8779      
0.285             126009.9933      
0.2875            126005.2258      
0.29              126000.5741      
0.2925            125996.0368      
0.295             125991.6122      
0.2975            125987.2988      
0.3               125983.0948      
0.3025            125978.9985      
0.305             125975.0081      
0.3075            125971.1217      
0.31              125967.3374      
0.3125            125963.6534      
0.315             125960.0676      
0.3175            125956.5782      
0.32              125953.1832      
0.3225            125949.8806      
0.325             125946.6685      
0.3275            125943.5448      
0.33              125940.5078      
0.3325            125937.5553      
0.335             125934.6855      
0.3375            125931.8964      
0.34              125929.1862      
0.3425            125926.5529      
0.345             125923.9948      
0.3475            125921.5099      
0.35              125919.0965      
0.3525            125916.7528      
0.355             125914.4769      
0.3575            125912.2673      
0.36              125910.1221      
0.3625            125908.0397      
0.365             125906.0185      
0.3675            125904.0568      
0.37              125902.153       
0.3725            125900.3057      
0.375             125898.5133      
0.3775            125896.7742      
0.38              125895.0871      
0.3825            125893.4504      
0.385             125891.8629      
0.3875            125890.3232      
0.39              125888.8298      
0.3925            125887.3816      
0.395             125885.9772      
0.3975            125884.6154      
0.4               125883.2949      
0.4025            125882.0147      
0.405             125880.7735      
0.4075            125879.5703      
0.41              125878.4038      
0.4125            125877.2731      
0.415             125876.1772      
0.4175            125875.1149      
0.42              125874.0853      
0.4225            125873.0875      
0.425             125872.1205      
0.4275            125871.1834      
0.43              125870.2753      
0.4325            125869.3954      
0.435             125868.5428      
0.4375            125867.7166      
0.44              125866.9162      
0.4425            125866.1407      
0.445             125865.3894      
0.4475            125864.6615      
0.45              125863.9563      
0.4525            125863.2732      
0.455             125862.6115      
0.4575            125861.9705      
0.46              125861.3496      
0.4625            125860.7482      
0.465             125860.1657      
0.4675            125859.6015      
0.47              125859.0551      
0.4725            125858.5258      
0.475             125858.0132      
0.4775            125857.5168      
0.48              125857.036       
0.4825            125856.5705      
0.485             125856.1196      
0.4875            125855.683       
0.49              125855.2602      
0.4925            125854.8507      
0.495             125854.4543      
0.4975            125854.0704      
0.5               125853.6986      
