/*--------------------------------*- C++ -*----------------------------------*\
  =========                 |
  \\      /  F ield         | OpenFOAM: The Open Source CFD Toolbox
   \\    /   O peration     | Website:  https://openfoam.org
    \\  /    A nd           | Version:  12
     \\/     M anipulation  |
\*---------------------------------------------------------------------------*/
FoamFile
{
    format      ascii;
    class       volScalarField;
    location    "19.32";
    object      p_rgh;
}
// * * * * * * * * * * * * * * * * * * * * * * * * * * * * * * * * * * * * * //

dimensions      [1 -1 -2 0 0 0 0];

internalField   nonuniform List<scalar> 
3829
(
-0.359343
-0.359342
-0.359348
-0.359357
-0.359374
-0.359403
-0.359448
-0.359515
-0.359607
-0.359728
-0.359884
-0.360075
-0.360304
-0.360569
-0.360867
-0.361192
-0.361532
-0.361874
-0.362196
-0.362472
-0.362672
-0.362756
-0.36268
-0.362392
-0.361831
-0.360931
-0.359619
-0.357813
-0.355425
-0.352362
-0.348522
-0.343804
-0.338098
-0.331297
-0.32329
-0.313969
-0.303233
-0.290995
-0.277284
-0.261722
-0.244302
-0.225021
-0.203898
-0.180974
-0.156302
-0.129945
-0.101979
-0.0724966
-0.0416154
-0.00948269
0.0237196
0.0577768
0.0924413
0.127437
0.162457
0.19717
0.231211
0.264203
0.295749
0.32544
0.352856
0.377566
0.399198
0.417339
0.431189
0.441139
0.446543
0.447112
0.442608
0.432845
0.41773
0.39724
0.371051
0.339546
0.302991
0.261709
0.216074
0.166548
0.113564
0.0580397
0.000750995
-0.0575038
-0.115841
-0.17332
-0.228947
-0.281718
-0.330613
-0.374637
-0.41286
-0.444423
-0.468554
-0.484666
-0.4923
-0.490112
-0.478431
-0.457572
-0.427967
-0.390191
-0.344975
-0.29327
-0.236302
-0.17549
-0.112428
-0.0485763
0.0136076
0.0725352
0.126309
0.173114
0.211279
0.239362
0.256221
0.261098
0.251477
0.22878
0.193809
0.147578
0.0914491
0.0272317
-0.0427909
-0.116203
-0.189519
-0.259878
-0.324181
-0.379389
-0.422706
-0.451763
-0.464832
-0.460894
-0.438925
-0.400278
-0.346774
-0.280853
-0.205685
-0.125026
-0.0433341
0.0345745
0.10436
0.16179
0.20333
0.226388
0.224893
0.202516
0.160975
0.102778
0.0311793
-0.0544431
-0.134938
-0.209609
-0.27284
-0.319023
-0.343712
-0.3441
-0.318186
-0.268457
-0.198671
-0.114542
-0.0231241
0.066696
0.145888
0.20681
0.242886
0.249995
0.225054
0.172071
0.0963632
0.00559267
-0.0970206
-0.186309
-0.259401
-0.307424
-0.324671
-0.308653
-0.263131
-0.193966
-0.105564
-0.0224963
0.0491036
0.0986664
0.114111
0.0967577
0.048217
-0.0313639
-0.111183
-0.184494
-0.239106
-0.264838
-0.255973
-0.213298
-0.141295
-0.0576206
0.024627
0.0903105
0.125241
0.12329
0.0828186
0.0106003
-0.0796489
-0.171721
-0.247016
-0.289694
-0.349624
-0.349618
-0.349606
-0.349591
-0.349579
-0.349582
-0.349616
-0.3497
-0.349857
-0.350109
-0.350484
-0.351006
-0.351699
-0.352576
-0.353662
-0.354969
-0.356501
-0.358253
-0.360216
-0.362365
-0.364671
-0.367089
-0.369564
-0.372032
-0.374414
-0.376621
-0.378548
-0.380082
-0.381095
-0.381446
-0.380985
-0.379552
-0.376977
-0.373089
-0.367709
-0.360661
-0.351766
-0.340845
-0.327595
-0.312333
-0.294857
-0.275039
-0.252791
-0.228053
-0.200814
-0.171109
-0.139023
-0.104683
-0.0682633
-0.0299727
0.00994062
0.0511912
0.0934547
0.136371
0.179542
0.222543
0.264911
0.306165
0.345803
0.383315
0.418178
0.448713
0.476525
0.500074
0.518862
0.53245
0.540438
0.542463
0.538217
0.527432
0.509959
0.485679
0.454563
0.41691
0.373019
0.323277
0.268159
0.208246
0.144255
0.0768998
0.00733052
-0.0633837
-0.134191
-0.203928
-0.271383
-0.335314
-0.394456
-0.447589
-0.493549
-0.531279
-0.559852
-0.578414
-0.586436
-0.582734
-0.567612
-0.541325
-0.504286
-0.457142
-0.400807
-0.336507
-0.265774
-0.190364
-0.112252
-0.0335846
0.0432507
0.115953
0.182179
0.239691
0.286436
0.320594
0.340723
0.34575
0.333984
0.306334
0.263517
0.206696
0.137567
0.0584437
-0.0278278
-0.118187
-0.20842
-0.294991
-0.374113
-0.442072
-0.495502
-0.531468
-0.547683
-0.541508
-0.513754
-0.4658
-0.399695
-0.318444
-0.226027
-0.126998
-0.0271089
0.0678918
0.152628
0.221854
0.271151
0.297189
0.294888
0.267062
0.215703
0.144486
0.0592596
-0.0567915
-0.152905
-0.244312
-0.32243
-0.379712
-0.410439
-0.41105
-0.379958
-0.319444
-0.233976
-0.130781
-0.0185883
0.0913804
0.188272
0.262536
0.306004
0.313611
0.283166
0.218191
0.125243
0.0137129
-0.107926
-0.216749
-0.304994
-0.361999
-0.380677
-0.359322
-0.301654
-0.215218
-0.107215
-0.00507192
0.0823807
0.142056
0.161574
0.140709
0.0810696
-0.0213609
-0.119145
-0.208778
-0.275766
-0.307508
-0.297371
-0.245617
-0.156968
-0.0557685
0.0431603
0.121806
0.164524
0.162699
0.114618
0.0289565
-0.0785478
-0.188172
-0.277929
-0.328739
-0.37068
-0.370383
-0.369674
-0.368672
-0.367431
-0.365981
-0.364378
-0.362685
-0.360987
-0.359351
-0.357874
-0.356657
-0.355814
-0.355442
-0.355635
-0.35648
-0.358054
-0.360421
-0.363628
-0.367703
-0.372649
-0.378444
-0.385036
-0.392338
-0.400233
-0.408568
-0.417159
-0.425789
-0.434216
-0.442167
-0.449349
-0.455458
-0.460175
-0.463179
-0.464161
-0.462825
-0.458926
-0.452343
-0.441688
-0.427119
-0.408707
-0.386487
-0.360492
-0.330736
-0.297244
-0.260061
-0.219281
-0.175053
-0.12758
-0.0771363
-0.0240636
0.031235
0.0882938
0.146593
0.205553
0.264565
0.322959
0.380034
0.435071
0.487352
0.536076
0.580447
0.619918
0.653725
0.681168
0.701624
0.714535
0.719416
0.715903
0.703789
0.682996
0.650652
0.610007
0.560819
0.503227
0.437669
0.364828
0.285502
0.200681
0.111545
0.0184135
-0.0754594
-0.169502
-0.262122
-0.35165
-0.436388
-0.514632
-0.584704
-0.645078
-0.694246
-0.730971
-0.754123
-0.762911
-0.756235
-0.734385
-0.697575
-0.646274
-0.581329
-0.504021
-0.416043
-0.319486
-0.216757
-0.110523
-0.00380181
0.100303
0.198642
0.288058
0.365507
0.428171
0.473605
0.499805
0.505294
0.489206
0.451799
0.393813
0.316754
0.223063
0.115925
-0.000781677
-0.12301
-0.244759
-0.361435
-0.46795
-0.559417
-0.631463
-0.680555
-0.703891
-0.692076
-0.652724
-0.586922
-0.49701
-0.387049
-0.262383
-0.129185
0.00473885
0.131749
0.244411
0.335628
0.399387
0.431288
0.426493
0.38719
0.315401
0.215508
0.0939147
-0.0451729
-0.181275
-0.307896
-0.415184
-0.493623
-0.53578
-0.536907
-0.495651
-0.414447
-0.299407
-0.160492
-0.00925484
0.138367
0.268184
0.367158
0.424354
0.432816
0.391483
0.303717
0.178563
0.0288122
-0.130712
-0.275107
-0.391089
-0.464247
-0.485514
-0.453346
-0.372506
-0.253626
-0.108862
0.0287255
0.145535
0.22401
0.250356
0.222637
0.143421
-0.00489729
-0.134582
-0.25394
-0.343553
-0.386511
-0.374075
-0.305641
-0.184821
-0.0515364
0.0777535
0.18026
0.236679
0.234804
0.172725
0.0623441
-0.0767261
-0.218397
-0.334314
-0.39987
-0.35079
-0.349922
-0.348341
-0.345955
-0.342804
-0.338988
-0.334636
-0.329889
-0.324911
-0.319852
-0.315011
-0.31068
-0.307148
-0.304682
-0.303541
-0.303958
-0.306147
-0.310286
-0.316518
-0.324938
-0.335592
-0.348475
-0.363517
-0.380574
-0.39944
-0.419837
-0.441422
-0.463781
-0.486443
-0.508873
-0.530491
-0.550683
-0.568835
-0.584315
-0.596499
-0.604766
-0.608493
-0.606953
-0.601319
-0.590578
-0.574222
-0.551882
-0.523305
-0.488385
-0.447133
-0.399687
-0.346274
-0.287214
-0.222918
-0.153872
-0.0806387
-0.00385922
0.0757519
0.157415
0.240287
0.323464
0.405975
0.486776
0.56484
0.639217
0.708796
0.77251
0.829323
0.878209
0.918236
0.948517
0.968231
0.976649
0.973062
0.956956
0.927925
0.88769
0.834621
0.769138
0.691775
0.603304
0.504694
0.397077
0.281829
0.160547
0.0349298
-0.0929195
-0.220875
-0.346785
-0.468341
-0.583234
-0.689109
-0.783666
-0.864761
-0.930417
-0.978788
-1.00855
-1.01833
-1.00726
-0.975471
-0.923122
-0.850839
-0.759836
-0.651936
-0.529491
-0.395403
-0.253008
-0.105981
0.0414398
0.185035
0.320432
0.443259
0.549364
0.634901
0.696525
0.731526
0.737981
0.715142
0.662973
0.582405
0.475572
0.345945
0.198028
0.0371658
-0.131259
-0.298504
-0.458462
-0.604085
-0.728762
-0.826559
-0.893145
-0.925893
-0.906288
-0.85091
-0.759766
-0.635805
-0.48445
-0.313149
-0.13025
0.0529168
0.226171
0.379165
0.50211
0.586639
0.62674
0.618292
0.562019
0.460681
0.320663
0.151665
-0.0377893
-0.226288
-0.402042
-0.550917
-0.659765
-0.718258
-0.719801
-0.663344
-0.55175
-0.393671
-0.202812
0.00521671
0.207321
0.384604
0.519032
0.595792
0.60574
0.547716
0.42629
0.254354
0.0495403
-0.165738
-0.361175
-0.516729
-0.612767
-0.637115
-0.588299
-0.473321
-0.307273
-0.109117
0.0794484
0.23817
0.343117
0.378404
0.340204
0.235164
0.0158235
-0.15692
-0.318473
-0.440349
-0.499491
-0.484387
-0.394381
-0.220856
-0.0443351
0.127308
0.263674
0.338971
0.336778
0.254772
0.109295
-0.0743622
-0.261181
-0.413764
-0.500007
-0.436008
-0.433288
-0.427848
-0.41965
-0.408754
-0.395323
-0.379758
-0.362497
-0.34421
-0.325549
-0.307208
-0.289712
-0.273688
-0.259732
-0.248478
-0.240521
-0.236449
-0.236708
-0.241804
-0.252009
-0.267558
-0.288507
-0.314765
-0.346064
-0.38198
-0.421904
-0.465096
-0.51066
-0.557614
-0.604844
-0.651212
-0.695551
-0.736715
-0.773609
-0.805246
-0.830865
-0.850122
-0.859877
-0.86049
-0.852209
-0.834933
-0.808483
-0.772686
-0.727497
-0.672984
-0.609351
-0.536943
-0.456231
-0.367823
-0.272446
-0.170937
-0.0642284
0.0466236
0.160494
0.276165
0.392355
0.507691
0.620697
0.730025
0.834246
0.931883
1.02145
1.10152
1.17074
1.22782
1.27154
1.30084
1.31474
1.31247
1.29321
1.25559
1.20167
1.13071
1.04298
0.939153
0.820279
0.687638
0.542784
0.387615
0.224303
0.0552136
-0.117005
-0.289253
-0.458645
-0.622042
-0.776306
-0.918193
-1.04466
-1.1527
-1.2397
-1.30315
-1.34117
-1.3519
-1.3349
-1.28982
-1.2168
-1.11674
-0.991378
-0.843253
-0.67555
-0.492261
-0.297921
-0.0975167
0.103108
0.298333
0.482134
0.648588
0.792071
0.907377
0.989981
1.03624
1.04328
1.01104
0.938964
0.828345
0.682159
0.505171
0.303574
0.0848021
-0.143967
-0.370683
-0.586974
-0.783115
-0.949913
-1.07917
-1.16422
-1.20101
-1.17901
-1.10602
-0.983076
-0.814905
-0.609468
-0.377095
-0.129383
0.118354
0.352045
0.557663
0.721879
0.833346
0.883873
0.870198
0.791171
0.650764
0.458056
0.226278
-0.0301814
-0.287548
-0.527225
-0.730019
-0.878115
-0.957491
-0.959318
-0.882431
-0.730779
-0.516252
-0.257078
0.0254059
0.298728
0.537734
0.718048
0.819844
0.831012
0.750506
0.584612
0.351304
0.074514
-0.213901
-0.475477
-0.681876
-0.806804
-0.834488
-0.762894
-0.602659
-0.374644
-0.106727
0.148008
0.360646
0.498909
0.544387
0.490426
0.347659
0.0476327
-0.184359
-0.401375
-0.564931
-0.64466
-0.626566
-0.514036
-0.260966
-0.0344659
0.190779
0.370562
0.469658
0.466799
0.359195
0.168819
-0.0715918
-0.315705
-0.51471
-0.627112
-0.54129
-0.533961
-0.519361
-0.497804
-0.469947
-0.436572
-0.398831
-0.357859
-0.314944
-0.27098
-0.227164
-0.18395
-0.143203
-0.106498
-0.0753417
-0.0510653
-0.0348379
-0.0276756
-0.0304912
-0.0439633
-0.068529
-0.104319
-0.151178
-0.208472
-0.275235
-0.350151
-0.431696
-0.517933
-0.606979
-0.696487
-0.784253
-0.86791
-0.945385
-1.01472
-1.07421
-1.12208
-1.15905
-1.18519
-1.19843
-1.19768
-1.18242
-1.15249
-1.10799
-1.0492
-0.976551
-0.890643
-0.792191
-0.682057
-0.561215
-0.430775
-0.291973
-0.146172
0.0051821
0.160511
0.318151
0.476344
0.63318
0.786898
0.935512
1.07709
1.20969
1.33133
1.44016
1.53437
1.61226
1.67235
1.71329
1.73409
1.73423
1.71427
1.66259
1.59029
1.49635
1.38072
1.24402
1.08747
0.912731
0.721857
0.517374
0.302177
0.0794029
-0.147774
-0.374585
-0.597493
-0.812337
-1.01494
-1.20103
-1.36654
-1.50756
-1.62053
-1.70226
-1.75013
-1.76197
-1.7374
-1.67556
-1.5767
-1.44208
-1.27412
-1.0762
-0.852589
-0.608601
-0.350234
-0.0841153
0.181882
0.440419
0.683553
0.903451
1.09265
1.24422
1.35221
1.41171
1.41929
1.37518
1.27803
1.12991
0.934935
0.699336
0.431277
0.140761
-0.162137
-0.462215
-0.747747
-1.00586
-1.22417
-1.39148
-1.49773
-1.53458
-1.51346
-1.41922
-1.25671
-1.03371
-0.761473
-0.453742
-0.125295
0.201603
0.509541
0.779821
0.994593
1.13902
1.2021
1.18122
1.07337
0.884348
0.626451
0.31721
-0.0234225
-0.365193
-0.683171
-0.951794
-1.1476
-1.25223
-1.25398
-1.15155
-0.950474
-0.666429
-0.323025
0.0522917
0.413168
0.727372
0.963093
1.0949
1.10725
0.998114
0.776966
0.467919
0.102365
-0.275735
-0.618
-0.88614
-1.04578
-1.07633
-0.975499
-0.758742
-0.454161
-0.10058
0.234936
0.512957
0.691226
0.746992
0.671664
0.479943
0.089343
-0.216896
-0.50199
-0.716084
-0.819793
-0.796421
-0.653098
-0.314433
-0.0243355
0.266761
0.499331
0.62689
0.622928
0.484321
0.23983
-0.0685947
-0.381108
-0.635475
-0.779018
-0.891361
-0.874686
-0.841361
-0.79165
-0.726589
-0.647544
-0.557028
-0.457283
-0.35251
-0.246419
-0.14292
-0.0440405
0.0475568
0.129477
0.199508
0.255841
0.296749
0.32052
0.325494
0.310099
0.273224
0.214664
0.134658
0.0343745
-0.0844446
-0.218903
-0.36555
-0.520068
-0.678742
-0.83653
-0.989003
-1.13197
-1.26228
-1.37766
-1.47791
-1.55723
-1.61521
-1.65405
-1.67328
-1.67242
-1.65126
-1.60988
-1.54861
-1.46803
-1.36889
-1.25213
-1.11884
-0.970273
-0.807828
-0.633036
-0.447568
-0.253243
-0.0520186
0.154062
0.362789
0.571834
0.778866
0.981497
1.17722
1.36349
1.53779
1.69764
1.84056
1.9642
2.06634
2.14486
2.19785
2.22351
2.21993
2.18475
2.12965
2.04248
1.92465
1.77748
1.6025
1.40163
1.17719
0.931934
0.669168
0.392703
0.106725
-0.1858
-0.476771
-0.762631
-1.03797
-1.29738
-1.53537
-1.74664
-1.92626
-2.06954
-2.17249
-2.2317
-2.24459
-2.21066
-2.12858
-1.99879
-1.82309
-1.60466
-1.34783
-1.05816
-0.742537
-0.408688
-0.0651053
0.277851
0.610747
0.923417
1.2058
1.44827
1.64207
1.77948
1.85442
1.86288
1.80384
1.67644
1.48355
1.23074
0.925929
0.579474
0.204065
-0.186849
-0.57346
-0.940376
-1.27139
-1.55067
-1.76385
-1.89867
-1.94561
-1.91404
-1.79013
-1.57877
-1.2901
-0.938208
-0.541046
-0.118306
0.302234
0.697663
1.04386
1.3179
1.50085
1.57863
1.54818
1.40545
1.15854
0.823453
0.422991
-0.0180839
-0.458911
-0.868572
-1.21413
-1.46536
-1.59894
-1.60049
-1.46761
-1.20837
-0.842777
-0.40076
0.0871084
0.550188
0.951663
1.25179
1.41816
1.43101
1.28736
1.0007
0.602129
0.132332
-0.351235
-0.78795
-1.12796
-1.32717
-1.35971
-1.22333
-0.939206
-0.543976
-0.0897878
0.340146
0.694026
0.918122
0.983867
0.881871
0.632003
0.137825
-0.255095
-0.619445
-0.892013
-1.02229
-0.990537
-0.807581
-0.382171
-0.0148545
0.35398
0.64798
0.808197
0.802522
0.627898
0.320924
-0.06559
-0.456336
-0.773938
-0.953001
-1.5397
-1.50758
-1.44293
-1.34636
-1.21996
-1.06784
-0.897849
-0.717141
-0.540573
-0.358496
-0.169115
0.0223674
0.209851
0.386722
0.546267
0.681943
0.787992
0.85971
0.893516
0.887055
0.838734
0.748386
0.617512
0.448876
0.24601
0.0146264
-0.237885
-0.49718
-0.763321
-1.02107
-1.26433
-1.48631
-1.68263
-1.85056
-1.98998
-2.10422
-2.18911
-2.24381
-2.2686
-2.26422
-2.23158
-2.17169
-2.08565
-1.9747
-1.84016
-1.68348
-1.50622
-1.31009
-1.09696
-0.868836
-0.627842
-0.376305
-0.11664
0.148526
0.416401
0.684242
0.94906
1.20779
1.45734
1.69457
1.91638
2.11959
2.30118
2.45823
2.58799
2.68795
2.75581
2.78961
2.78779
2.74943
2.67535
2.56393
2.41532
2.23043
2.01084
1.75887
1.4774
1.1699
0.840546
0.494099
0.13575
-0.230176
-0.594407
-0.951924
-1.29599
-1.61987
-1.91669
-2.17975
-2.40295
-2.58043
-2.70721
-2.77903
-2.79279
-2.74769
-2.64211
-2.47676
-2.25401
-1.97788
-1.65381
-1.28884
-0.891642
-0.47202
-0.0402956
0.390081
0.807409
1.19888
1.55193
1.8546
2.09595
2.26644
2.35858
2.36709
2.29032
2.12799
1.88383
1.56485
1.18126
0.745951
0.274576
-0.219532
-0.703757
-1.16279
-1.57629
-1.92469
-2.19025
-2.35818
-2.41739
-2.37198
-2.21231
-1.9442
-1.57992
-1.13683
-0.637806
-0.107582
0.419458
0.914123
1.34618
1.68729
1.91378
2.00821
1.9656
1.78232
1.46889
1.04544
0.540897
-0.0141355
-0.567662
-1.08118
-1.51365
-1.82722
-1.99291
-1.99357
-1.82573
-1.50049
-1.04289
-0.488092
0.129083
0.708365
1.20768
1.5798
1.78437
1.79717
1.61375
1.2521
0.75154
0.16312
-0.440002
-0.983389
-1.40381
-1.64634
-1.68023
-1.50237
-1.14083
-0.642269
-0.0738508
0.462753
0.901604
1.17644
1.25129
1.11763
0.801967
0.190776
-0.29895
-0.752222
-1.08979
-1.24902
-1.20555
-0.970845
-0.466601
-0.00609109
0.451235
0.814012
1.01039
1.00225
0.787173
0.410477
-0.0627453
-0.540062
-0.927493
-1.14573
-2.66513
-2.60763
-2.4899
-2.30928
-2.06369
-1.75067
-1.37619
-0.944434
-0.536517
-0.123614
0.287011
0.683184
1.04896
1.37221
1.64508
1.86247
2.02101
2.11847
2.15316
2.12236
2.02429
1.85887
1.62463
1.32246
0.955294
0.53092
0.0649174
-0.408222
-0.891749
-1.33628
-1.72701
-2.05588
-2.32391
-2.54089
-2.71212
-2.84349
-2.93538
-2.98816
-3.00296
-2.98122
-2.92454
-2.83459
-2.71308
-2.56176
-2.38237
-2.17679
-1.947
-1.6951
-1.42331
-1.134
-0.829827
-0.513531
-0.188113
0.14335
0.477262
0.81074
1.13985
1.46092
1.77015
2.0638
2.33804
2.58909
2.8133
3.00712
3.16727
3.29067
3.37464
3.41685
3.41548
3.36929
3.2778
3.14044
2.95767
2.73069
2.46136
2.15252
1.80772
1.43123
1.02814
0.604346
0.166183
-0.281327
-0.726248
-1.16269
-1.58246
-1.97726
-2.33873
-2.65871
-2.92968
-3.14462
-3.2974
-3.38284
-3.39733
-3.33931
-3.2073
-3.00232
-2.72729
-2.38712
-1.98861
-1.5404
-1.05311
-0.538702
-0.00988443
0.516785
1.02711
1.50533
1.93608
2.30483
2.59815
2.80457
2.91491
2.92261
2.82588
2.62459
2.32347
1.93123
1.46055
0.927411
0.350361
-0.259484
-0.851105
-1.41118
-1.9152
-2.33949
-2.66246
-2.86641
-2.93852
-2.87741
-2.67753
-2.34611
-1.89769
-1.35384
-0.742685
-0.0922792
0.551667
1.15539
1.68179
2.09644
2.37049
2.48271
2.42591
2.1972
1.80967
1.28821
0.668517
-0.0120197
-0.689763
-1.31761
-1.84546
-2.22716
-2.4276
-2.42633
-2.21936
-1.82127
-1.26398
-0.588792
0.18303
0.886058
1.49094
1.94119
2.18729
2.1993
1.97148
1.52641
0.912959
0.19406
-0.540705
-1.2011
-1.70925
-1.99876
-2.03252
-1.80768
-1.35968
-0.746849
-0.052621
0.600871
1.13224
1.4615
1.54437
1.37429
0.986541
0.24687
-0.347833
-0.898227
-1.30598
-1.49636
-1.43877
-1.1473
-0.558585
0.00316731
0.557153
0.994514
1.22973
1.21831
0.95901
0.506601
-0.0602151
-0.630699
-1.09311
-1.35341
-4.46144
-4.39022
-4.2453
-4.02221
-3.71711
-3.316
-2.84822
-2.18493
-1.77356
-0.897378
-0.183109
0.451254
1.02024
1.51944
1.94433
2.2923
2.56009
2.74441
2.84194
2.84814
2.75959
2.57523
2.28994
1.90207
1.40892
0.798112
-0.00104913
-0.58742
-1.33617
-1.87232
-2.34401
-2.74088
-3.08186
-3.36135
-3.57712
-3.72842
-3.81934
-3.85751
-3.84847
-3.79617
-3.7036
-3.57314
-3.40688
-3.20677
-2.97481
-2.71312
-2.42392
-2.10962
-1.77277
-1.4162
-1.04291
-0.656148
-0.259374
0.143769
0.549367
0.953441
1.35164
1.73962
2.11288
2.46696
2.79736
3.09956
3.36924
3.6022
3.79455
3.94268
4.04342
4.094
4.09229
4.03663
3.92626
3.76089
3.54119
3.2686
2.94543
2.57507
2.16185
1.71086
1.2283
0.721264
0.19745
-0.338626
-0.870042
-1.3912
-1.89222
-2.36313
-2.79392
-3.17486
-3.49693
-3.7518
-3.93215
-4.03191
-4.0468
-3.97449
-3.81364
-3.56563
-3.23404
-2.82478
-2.34603
-1.80817
-1.22382
-0.607324
0.025662
0.65589
1.26591
1.83706
2.351
2.79031
3.13903
3.38345
3.51269
3.51941
3.40054
3.15683
2.79406
2.32277
1.75825
1.12027
0.430607
-0.306892
-1.01285
-1.68071
-2.28157
-2.78708
-3.17131
-3.41323
-3.49782
-3.41997
-3.17666
-2.77669
-2.23731
-1.58492
-0.853007
-0.0729795
0.696315
1.41691
2.04446
2.5377
2.86228
2.99312
2.92035
2.64217
2.17436
1.54701
0.803234
-0.0119329
-0.823075
-1.57366
-2.20361
-2.65798
-2.89502
-2.89068
-2.64078
-2.16414
-1.50129
-0.705849
0.253171
1.07965
1.79546
2.32916
2.61958
2.63005
2.35391
1.81866
1.08363
0.224247
-0.651646
-1.43719
-2.03888
-2.37793
-2.41011
-2.13347
-1.59151
-0.855613
-0.0263372
0.752068
1.38171
1.7678
1.85744
1.64656
1.1816
0.305182
-0.400759
-1.05503
-1.53763
-1.76015
-1.68632
-1.33459
-0.655163
0.0134302
0.670101
1.18624
1.46208
1.44646
1.14001
0.607348
-0.0581406
-0.726532
-1.26759
-1.57195
-6.8316
-6.76519
-6.62556
-6.39824
-6.05926
-5.58439
-4.92084
-4.07744
-2.93689
-0.737479
0.595745
1.75184
2.70988
3.48786
4.10712
4.58241
4.92441
5.13974
5.23016
5.19408
5.02798
4.72253
4.2616
3.6226
2.77913
1.70791
-0.00638631
-1.37764
-2.3736
-3.10643
-3.65106
-4.06004
-4.35942
-4.57325
-4.71674
-4.80336
-4.84152
-4.83353
-4.78035
-4.68337
-4.54417
-4.36443
-4.14592
-3.89053
-3.60025
-3.27724
-2.92385
-2.54266
-2.13653
-1.70854
-1.2621
-0.800874
-0.328826
0.149872
0.630734
1.10906
1.57984
2.03803
2.47844
2.89584
3.28499
3.64066
3.9578
4.23152
4.4573
4.63098
4.74884
4.80769
4.80495
4.73892
4.60845
4.41339
4.15456
3.83372
3.45361
3.01828
2.5328
2.00321
1.43681
0.842007
0.228112
-0.400687
-1.02297
-1.6332
-2.21959
-2.7704
-3.27389
-3.71867
-4.0942
-4.39072
-4.59974
-4.71417
-4.72901
-4.64125
-4.44975
-4.15618
-3.76482
-3.28265
-2.71936
-2.08716
-1.40083
-0.677318
0.066261
0.8049
1.51941
2.18788
2.78882
3.30187
3.70838
3.99232
4.14101
4.14607
4.00348
3.71462
3.28657
2.73178
2.06847
1.3206
0.515266
-0.362429
-1.18569
-1.96597
-2.66827
-3.25884
-3.70709
-3.98825
-4.08483
-3.98939
-3.70019
-3.22767
-2.59227
-1.82549
-0.966199
-0.0505978
0.850384
1.69369
2.42729
3.0027
3.37985
3.52976
3.43957
3.1088
2.55609
1.8169
0.942402
-0.0138486
-0.965172
-1.84453
-2.5814
-3.11157
-3.38635
-3.37785
-3.08182
-2.52178
-1.74797
-0.833476
0.334632
1.28307
2.11479
2.73621
3.07294
3.08136
2.75396
2.12339
1.26013
0.253226
-0.770788
-1.68733
-2.38657
-2.77645
-2.80598
-2.47371
-1.83194
-0.966502
0.00455844
0.91356
1.64536
2.08956
2.18454
1.92884
1.38246
0.365382
-0.456516
-1.21988
-1.78083
-2.03575
-1.94377
-1.52888
-0.754695
0.0247743
0.788153
1.38575
1.70316
1.68243
1.32674
0.710775
-0.0566057
-0.825791
-1.44767
-1.79728
-9.3034
-9.24829
-9.1387
-8.97568
-8.75739
-8.53659
-8.19724
-8.06343
-4.17307
-4.35772
-4.76036
-5.0284
-5.3103
-5.54163
-5.71985
-5.8352
-5.89193
-5.89367
-5.84403
-5.74549
-5.60055
-5.41089
-5.17824
-4.90422
-4.59056
-4.23915
-3.85218
-3.43208
-2.98162
-2.50384
-2.00217
-1.48036
-0.9425
-0.39305
0.163329
0.721482
1.27605
1.82135
2.35161
2.86089
3.34319
3.79253
4.2029
4.56852
4.88382
5.14363
5.34318
5.47822
5.54512
5.54094
5.46368
5.31214
5.08612
4.78663
4.41574
3.97665
3.47404
2.91378
2.30291
1.64981
0.964066
0.256062
-0.464901
-1.18198
-1.8843
-2.55868
-3.19171
-3.76996
-4.28033
-4.7107
-5.04988
-5.28811
-5.4173
-5.43164
-5.32764
-5.10421
-4.76338
-4.31011
-3.75256
-3.102
-2.37237
-1.58093
-0.747031
0.110445
0.960846
1.78283
2.55132
3.24161
3.8303
4.29598
4.62022
4.78853
4.79127
4.6238
4.28796
3.79204
3.15069
2.38513
1.52382
0.602183
-0.424367
-1.36525
-2.2612
-3.06808
-3.74604
-4.25989
-4.58106
-4.68945
-4.57547
-4.23862
-3.69087
-2.95619
-2.07103
-1.0801
-0.0259776
1.01085
1.98061
2.82321
3.48292
3.9138
4.08287
3.97414
3.58868
2.94792
2.09304
1.08352
-0.0176068
-1.11342
-2.12521
-2.97186
-3.5796
-3.89264
-3.87905
-3.53453
-2.88696
-1.99666
-0.953753
0.410204
1.48969
2.44258
3.15491
3.5393
3.54529
3.16453
2.43516
1.43904
0.280845
-0.895879
-1.94697
-2.74599
-3.18739
-3.21312
-2.82242
-2.07677
-1.07753
0.0393866
1.08236
1.91839
2.42096
2.51982
2.21577
1.58447
0.427438
-0.513827
-1.38988
-2.03137
-2.31838
-2.20667
-1.72639
-0.855788
0.0370633
0.909327
1.58961
1.94878
1.92213
1.51595
0.815082
-0.0556382
-0.926764
-1.63025
-2.02553
-11.989
-11.9653
-11.9218
-11.863
-11.7898
-11.7343
-11.6009
-11.6391
-6.57921
-6.55733
-6.74274
-6.82307
-6.91887
-6.99234
-7.03971
-7.05728
-7.03893
-6.97794
-6.87255
-6.72129
-6.52422
-6.28163
-5.99437
-5.66351
-5.29053
-4.87715
-4.42553
-3.93811
-3.41777
-2.86778
-2.29184
-1.69403
-1.07889
-0.451345
0.183365
0.819482
1.45098
2.07146
2.67441
3.25311
3.80082
4.31077
4.77617
5.19052
5.54754
5.84141
6.06676
6.21882
6.29347
6.28745
6.19849
6.02527
5.76758
5.4266
5.00472
4.5056
3.93459
3.29839
2.60497
1.86391
1.08609
0.283289
-0.532623
-1.34504
-2.14043
-2.90378
-3.61995
-4.27372
-4.85033
-5.33602
-5.71815
-5.98567
-6.12947
-6.14297
-6.0222
-5.76613
-5.37712
-4.86089
-4.22679
-3.48762
-2.65922
-1.76132
-0.815736
0.1575
1.12093
2.05151
2.92103
3.70155
4.36655
4.89183
5.25651
5.44429
5.44417
5.25116
4.86731
4.30208
3.57252
2.7026
1.72471
0.679341
-0.480803
-1.54639
-2.56091
-3.474
-4.24036
-4.82038
-5.18163
-5.30145
-5.16844
-4.78299
-4.1586
-3.32308
-2.31756
-1.19283
0.000122356
1.17491
2.27267
3.22535
3.97011
4.45501
4.64289
4.51506
4.07375
3.34334
2.37091
1.22431
-0.0230539
-1.26524
-2.41096
-3.36838
-4.05417
-4.40536
-4.38595
-3.99144
-3.2536
-2.24235
-1.06314
0.476791
1.69522
2.77321
3.57831
4.01101
4.01422
3.57894
2.749
1.61789
0.306488
-1.02467
-2.21159
-3.11099
-3.60389
-3.62477
-3.1739
-2.32203
-1.18705
0.0772588
1.25542
2.19613
2.75651
2.85782
2.50252
1.78322
0.491525
-0.571527
-1.56226
-2.28512
-2.60348
-2.47079
-1.9236
-0.957166
0.0501068
1.03173
1.79457
2.19507
2.16178
1.70466
0.918654
-0.0552315
-1.02787
-1.8125
-2.25318
-14.4959
-14.4831
-14.4598
-14.4288
-14.3882
-14.3622
-14.2866
-14.3165
-8.01972
-7.98608
-8.1188
-8.1692
-8.2275
-8.25778
-8.25698
-8.22114
-8.14866
-8.0351
-7.87864
-7.67691
-7.42924
-7.13491
-6.79421
-6.4077
-5.97651
-5.5022
-4.98684
-4.43299
-3.84364
-3.22226
-2.57281
-1.89976
-1.20803
-0.503021
0.209411
0.922906
1.63079
2.32592
3.00105
3.64869
4.26131
4.83136
5.35129
5.81389
6.21215
6.53962
6.79033
6.959
7.04107
7.03292
6.93197
6.73681
6.44725
6.06463
5.59164
5.03241
4.39296
3.68079
2.90486
2.07594
1.20624
0.308946
-0.60214
-1.5095
-2.39755
-3.2495
-4.04844
-4.77737
-5.41986
-5.96051
-6.38524
-6.6817
-6.83981
-6.85218
-6.71442
-6.4255
-5.98818
-5.40891
-4.69826
-3.87047
-2.94355
-1.93965
-0.882969
0.206865
1.28247
2.32103
3.2911
4.16139
4.90226
5.48664
5.89133
6.09823
6.09489
5.87607
5.44392
4.80917
3.99109
3.01639
1.92072
0.74558
-0.530263
-1.7265
-2.86053
-3.87976
-4.7342
-5.37993
-5.78079
-5.91157
-5.75932
-5.32502
-4.62392
-3.68756
-2.56168
-1.30324
0.0274554
1.34
2.56523
3.62741
4.45669
4.9951
5.20123
5.05408
4.55664
3.73645
2.64647
1.36294
-0.0301621
-1.41818
-2.69726
-3.76484
-4.528
-4.91675
-4.89096
-4.44582
-3.61664
-2.48177
-1.16099
0.534106
1.89686
3.1019
4.00009
4.48099
4.48114
3.99109
3.06028
1.79421
0.329992
-1.15493
-2.47695
-3.4759
-4.01954
-4.03475
-3.52304
-2.56417
-1.29361
0.117214
1.42986
2.47421
3.09119
3.19362
2.78497
1.97489
0.557831
-0.628673
-1.73448
-2.5383
-2.88684
-2.73235
-2.11746
-1.05767
0.0637003
1.1536
1.9977
2.43854
2.39805
1.89031
1.0201
-0.0553506
-1.12771
-1.99194
-2.47712
-16.7678
-16.7608
-16.748
-16.7318
-16.7088
-16.6968
-16.6565
-16.6782
-9.43576
-9.37776
-9.44513
-9.451
-9.45588
-9.43844
-9.39364
-9.31496
-9.19934
-9.04221
-8.84145
-8.59441
-8.30002
-7.95719
-7.56582
-7.12611
-6.63898
-6.10586
-5.52885
-4.91054
-4.25411
-3.56323
-2.84214
-2.09563
-1.32906
-0.54826
0.240256
1.02953
1.81225
2.58054
3.32641
4.0416
4.71781
5.3467
5.91997
6.4297
6.86821
7.22841
7.50376
7.68847
7.77757
7.76704
7.65404
7.43706
7.11591
6.6921
6.16861
5.55002
4.84301
4.0559
3.19865
2.28317
1.32299
0.332747
-0.672262
-1.67293
-2.65202
-3.59102
-4.47126
-5.27401
-5.98113
-6.57571
-7.04215
-7.36688
-7.53881
-7.54983
-7.39508
-7.07359
-6.58849
-5.94699
-5.1608
-4.24565
-3.22172
-2.11365
-0.948382
0.257791
1.44295
2.58746
3.65632
4.61475
5.43005
6.07229
6.5161
6.74156
6.73478
6.49019
6.01023
5.30676
4.40112
3.32296
2.11113
0.810374
-0.581858
-1.90458
-3.15623
-4.27988
-5.22085
-5.93099
-6.37053
-6.51177
-6.34028
-5.85757
-5.08075
-4.04496
-2.80045
-1.41095
0.0562796
1.50377
2.85418
4.02385
4.93598
5.52672
5.75042
5.58396
5.03098
4.12218
2.91626
1.49787
-0.0387814
-1.57002
-2.98011
-4.15579
-4.9947
-5.42001
-5.38745
-4.89189
-3.97184
-2.71288
-1.24472
0.579944
2.09264
3.42459
4.4148
4.94306
4.93989
4.39564
3.36514
1.96575
0.351341
-1.28463
-2.73931
-3.8357
-4.42872
-4.43765
-3.86539
-2.80025
-1.39599
0.158288
1.60309
2.74879
3.42055
3.52299
3.05978
2.15635
0.626463
-0.684563
-1.90429
-2.78762
-3.16479
-2.98813
-2.30544
-1.15628
0.0776397
1.27339
2.19646
2.67621
2.62814
2.07072
1.11828
-0.05594
-1.22507
-2.16646
-2.69479
-18.8076
-18.8036
-18.7959
-18.787
-18.7728
-18.7672
-18.7427
-18.7571
-10.6608
-10.5952
-10.6312
-10.6101
-10.5816
-10.5296
-10.4501
-10.3362
-10.1845
-9.99019
-9.75084
-9.46352
-9.12684
-8.73946
-8.30099
-7.81133
-7.27129
-6.68225
-6.04635
-5.36632
-4.64551
-3.88783
-3.09776
-2.28041
-1.44154
-0.58748
0.274648
1.13729
1.99248
2.83165
3.64607
4.42671
5.16449
5.85032
6.47517
7.03042
7.50776
7.8995
8.19853
8.39857
8.49426
8.48127
8.3563
8.11788
7.76583
7.3018
6.72903
6.05256
5.27969
4.41956
3.48309
2.48335
1.43516
0.354513
-0.741898
-1.83319
-2.90068
-3.92421
-4.88338
-5.75776
-6.5276
-7.17444
-7.6813
-8.03331
-8.21846
-8.228
-8.05648
-7.70309
-7.17135
-6.46916
-5.60929
-4.60907
-3.49065
-2.28137
-1.01154
0.309404
1.60004
2.84743
4.01225
5.05623
5.94369
6.64201
7.1236
7.36689
7.35654
7.08659
6.55992
5.78942
4.7983
3.61928
2.2945
0.873181
-0.634715
-2.07883
-3.44464
-4.66973
-5.69466
-6.4672
-6.94405
-7.09526
-6.90472
-6.37468
-5.52404
-4.39134
-3.03138
-1.51457
0.0856413
1.66408
3.136
4.40995
5.4024
6.04373
6.28423
6.09868
5.49145
4.49627
3.17741
1.62758
-0.0484793
-1.71877
-3.25608
-4.53662
-5.44883
-5.9094
-5.86984
-5.3248
-4.31578
-2.93459
-1.32059
0.620759
2.28143
3.73798
4.81782
5.39202
5.38536
4.78814
3.66037
2.13078
0.370512
-1.41196
-2.99544
-4.18614
-4.82674
-4.82893
-4.19724
-3.02793
-1.49325
0.199572
1.77288
3.01657
3.74086
3.84243
3.32439
2.32525
0.697397
-0.738719
-2.06978
-3.03033
-3.43429
-3.23551
-2.48553
-1.25217
0.0917402
1.38977
2.38877
2.90565
2.84979
2.24415
1.2123
-0.0569308
-1.31899
-2.33441
-2.90411
-20.6256
-20.6231
-20.618
-20.6126
-20.6023
-20.5999
-20.5831
-20.5926
-11.7463
-11.6765
-11.6929
-11.655
-11.6041
-11.5279
-11.4225
-11.2811
-11.1002
-10.8747
-10.602
-10.2792
-9.90455
-9.47664
-8.99481
-8.45881
-7.86925
-7.22752
-6.5359
-5.79736
-5.01542
-4.19419
-3.33839
-2.4534
-1.54543
-0.621213
0.311404
1.24433
2.16899
3.07615
3.95634
4.79975
5.59657
6.33694
7.01114
7.6099
8.12434
8.54617
8.86771
9.08227
9.1841
9.16863
9.03189
8.77269
8.3908
7.88793
7.26762
6.5353
5.69893
4.7684
3.75561
2.67473
1.54181
0.374121
-0.81013
-1.98855
-3.14099
-4.24574
-5.28074
-6.2239
-7.054
-7.75095
-8.2966
-8.67467
-8.87234
-8.88036
-8.69242
-8.30812
-7.73134
-6.97062
-6.0397
-4.95751
-3.74795
-2.44111
-1.07161
0.360527
1.75172
3.09821
4.35535
5.48148
6.43821
7.19028
7.70799
7.96827
7.9543
7.65972
7.0879
6.25273
5.17922
3.90286
2.46939
0.932883
-0.687397
-2.24747
-3.72296
-5.04555
-6.15106
-6.98346
-7.4959
-7.65661
-7.44734
-6.87158
-5.94977
-4.72355
-3.25247
-1.61327
0.114993
1.81915
3.40782
4.78189
5.85139
6.54115
6.7976
6.59339
5.93377
4.85532
3.42766
1.75096
-0.0589644
-1.8628
-3.52241
-4.90362
-5.88602
-6.38029
-6.33367
-5.74069
-4.64571
-3.14584
-1.39042
0.658385
2.46224
4.03938
5.20545
5.82369
5.81343
5.165
3.94338
2.28798
0.387567
-1.53543
-3.24276
-4.52378
-5.20984
-5.20493
-4.51566
-3.2454
-1.58466