/*--------------------------------*- C++ -*----------------------------------*\
  =========                 |
  \\      /  F ield         | OpenFOAM: The Open Source CFD Toolbox
   \\    /   O peration     | Website:  https://openfoam.org
    \\  /    A nd           | Version:  12
     \\/     M anipulation  |
\*---------------------------------------------------------------------------*/
FoamFile
{
    format      ascii;
    class       surfaceScalarField;
    location    "2.28";
    object      phi;
}
// * * * * * * * * * * * * * * * * * * * * * * * * * * * * * * * * * * * * * //

dimensions      [1 0 -1 0 0 0 0];

internalField   nonuniform List<scalar> 
7429
(
-6.93556e-05
6.93556e-05
-0.000139442
7.00868e-05
-0.000210653
7.12109e-05
-0.000283119
7.24657e-05
-0.000356959
7.38401e-05
-0.000432305
7.53456e-05
-0.000509273
7.69686e-05
-0.000587961
7.8688e-05
-0.000668489
8.0528e-05
-0.000750869
8.23798e-05
-0.000835098
8.42286e-05
-0.000921172
8.60738e-05
-0.00100891
8.77373e-05
-0.00109823
8.93176e-05
-0.00118888
9.06556e-05
-0.00128055
9.16717e-05
-0.00137297
9.24158e-05
-0.00146568
9.27109e-05
-0.00155823
9.25498e-05
-0.00165012
9.18877e-05
-0.00174078
9.06629e-05
-0.00182958
8.87996e-05
-0.00191591
8.63247e-05
-0.00199907
8.31645e-05
-0.00207839
7.93183e-05
-0.00215316
7.47694e-05
-0.00222271
6.95507e-05
-0.00228635
6.36377e-05
-0.00234345
5.71042e-05
-0.00239338
4.99329e-05
-0.00243562
4.22403e-05
-0.0024697
3.40796e-05
-0.00249512
2.54182e-05
-0.00251152
1.64e-05
-0.00251846
6.9429e-06
-0.00251602
-2.44731e-06
-0.00250413
-1.18831e-05
-0.00248275
-2.13884e-05
-0.00245191
-3.08314e-05
-0.00241178
-4.01308e-05
-0.00236259
-4.91909e-05
-0.00230465
-5.79398e-05
-0.00223835
-6.62995e-05
-0.00216416
-7.41902e-05
-0.00208261
-8.15545e-05
-0.00199429
-8.83172e-05
-0.00189985
-9.44377e-05
-0.00180001
-9.9845e-05
-0.00169549
-0.000104516
-0.0015871
-0.000108393
-0.00147564
-0.000111454
-0.00136196
-0.000113682
-0.00124692
-0.000115046
-0.0011314
-0.00011552
-0.00101623
-0.000115162
-0.000902312
-0.000113922
-0.000790486
-0.000111826
-0.000681583
-0.000108903
-0.000576427
-0.000105156
-0.000475672
-0.000100755
-0.000380153
-9.55188e-05
-0.000290552
-8.96012e-05
-0.000207415
-8.31376e-05
-0.000131322
-7.60931e-05
-6.26722e-05
-6.86493e-05
-1.84262e-06
-6.08296e-05
5.07154e-05
-5.2558e-05
9.48528e-05
-4.41374e-05
0.000130434
-3.55815e-05
0.000157348
-2.69135e-05
0.000175598
-1.82499e-05
0.00018532
-9.72235e-06
0.000186887
-1.56746e-06
0.00018059
6.29797e-06
0.000166741
1.38481e-05
0.000145802
2.09392e-05
0.000118306
2.74967e-05
8.48606e-05
3.3445e-05
4.61517e-05
3.87089e-05
2.89551e-06
4.32562e-05
-4.41773e-05
4.70728e-05
-9.4289e-05
5.01117e-05
-0.000146628
5.23388e-05
-0.000200385
5.37576e-05
-0.000254768
5.43823e-05
-0.000308992
5.42239e-05
-0.000362277
5.32857e-05
-0.000413895
5.16178e-05
-0.000463169
4.92744e-05
-0.000509459
4.62893e-05
-0.000552195
4.27363e-05
-0.000590856
3.86614e-05
-0.000624998
3.41419e-05
-0.000654269
2.92708e-05
-0.00067836
2.40914e-05
-0.000697068
1.87078e-05
-0.000710262
1.31936e-05
-0.000717845
7.58282e-06
-0.000719913
2.0683e-06
-0.000716274
-3.63906e-06
-0.000707288
-8.98628e-06
-0.000693142
-1.41458e-05
-0.000674086
-1.90558e-05
-0.000650419
-2.36675e-05
-0.000622476
-2.79429e-05
-0.00059065
-3.18255e-05
-0.000555345
-3.53054e-05
-0.000516982
-3.83623e-05
-0.000476024
-4.09581e-05
-0.000432929
-4.30951e-05
-0.00038813
-4.47993e-05
-0.000342115
-4.60152e-05
-0.000295301
-4.68135e-05
-0.000248165
-4.71367e-05
-0.000201068
-4.70968e-05
-0.000154444
-4.66238e-05
-0.000108654
-4.57903e-05
-6.40695e-05
-4.45841e-05
-2.095e-05
-4.31195e-05
2.03152e-05
-4.12652e-05
5.95414e-05
-3.92262e-05
9.64798e-05
-3.69384e-05
0.000130947
-3.44671e-05
0.00016276
-3.18129e-05
0.000191802
-2.90421e-05
0.000217959
-2.61571e-05
0.000241187
-2.32275e-05
0.000261452
-2.02655e-05
0.000278741
-1.72889e-05
0.000293028
-1.42874e-05
0.000304401
-1.13728e-05
0.000312906
-8.50508e-06
0.000318636
-5.73017e-06
0.000321659
-3.02225e-06
0.000322106
-4.47253e-07
0.000320204
1.90158e-06
0.000316006
4.19863e-06
0.00030969
6.31591e-06
0.000301404
8.28596e-06
0.000291312
1.00915e-05
0.000279609
1.17034e-05
0.000266469
1.31404e-05
0.000252067
1.44015e-05
0.000236587
1.54796e-05
0.000220208
1.63791e-05
0.000203111
1.7097e-05
0.000185455
1.76568e-05
0.000167399
1.80559e-05
0.000149116
1.82828e-05
0.000130761
1.83547e-05
0.000112454
1.83073e-05
9.43453e-05
1.81086e-05
7.65688e-05
1.77765e-05
5.92209e-05
1.73479e-05
4.24141e-05
1.68068e-05
2.62379e-05
1.61762e-05
1.07723e-05
1.54656e-05
-3.91004e-06
1.46824e-05
-1.77526e-05
1.38426e-05
-3.07088e-05
1.29561e-05
-4.27332e-05
1.20244e-05
-5.3801e-05
1.10678e-05
-6.38901e-05
1.00891e-05
-7.29914e-05
9.10125e-06
-8.11002e-05
8.10882e-06
-8.82282e-05
7.12799e-06
-9.43949e-05
6.16669e-06
-9.96213e-05
5.22645e-06
-0.000103934
4.31249e-06
-0.00010737
3.43662e-06
-0.000109975
2.60432e-06
-0.00011179
1.81556e-06
-0.000112864
1.07368e-06
-0.000113242
3.77598e-07
-0.000112979
-2.62114e-07
-0.000112116
-8.63628e-07
-0.000110692
-1.42349e-06
-0.000108748
-1.94409e-06
-0.000106319
-2.4289e-06
-0.000103439
-2.88015e-06
-0.000100138
-3.30135e-06
-9.64456e-05
-3.69222e-06
-9.23931e-05
-4.05257e-06
-8.80119e-05
-4.38119e-06
-8.33366e-05
-4.6753e-06
-7.84048e-05
-4.93171e-06
-7.32573e-05
-5.14752e-06
-6.79365e-05
-5.3208e-06
-6.24853e-05
-5.45126e-06
-5.69453e-05
-5.54001e-06
-5.1351e-05
-5.59428e-06
-4.5728e-05
-5.62295e-06
-4.00931e-05
-5.63497e-06
-3.4451e-05
-5.64205e-06
-2.87969e-05
-5.65409e-06
-2.31231e-05
-5.67381e-06
-1.74166e-05
-5.70654e-06
-1.16664e-05
-5.75018e-06
-5.86332e-06
-5.80308e-06
-5.86332e-06
-5.51472e-05
0.000124503
-0.00011107
0.000126009
-0.000168346
0.000128487
-0.000227717
0.000131836
-0.000288978
0.000135101
-0.000353101
0.000139469
-0.000419866
0.000143733
-0.000490089
0.000148911
-0.000563592
0.000154031
-0.000640535
0.000159323
-0.00072134
0.000165034
-0.000805876
0.000170609
-0.000894118
0.00017598
-0.000985825
0.000181024
-0.00108076
0.00018559
-0.00117852
0.00018943
-0.00127854
0.000192437
-0.00138035
0.000194526
-0.00148342
0.000195616
-0.00158677
0.000195241
-0.00168949
0.000193377
-0.00179083
0.000190147
-0.00188974
0.000185231
-0.00198517
0.000178599
-0.00207619
0.000170333
-0.0021618
0.000160377
-0.00224107
0.000148826
-0.00231304
0.000135603
-0.00237682
0.000120891
-0.00243182
0.000104933
-0.00247729
8.77022e-05
-0.00251255
6.93404e-05
-0.00253718
5.00554e-05
-0.00255075
2.99647e-05
-0.00255289
9.08576e-06
-0.00254431
-1.10253e-05
-0.00252481
-3.13879e-05
-0.00249448
-5.17147e-05
-0.00245356
-7.17498e-05
-0.00240239
-9.13035e-05
-0.0023414
-0.000110181
-0.00227111
-0.000128232
-0.00219212
-0.000145291
-0.00210508
-0.000161229
-0.00201071
-0.000175919
-0.00190981
-0.000189219
-0.00180316
-0.000201087
-0.00169165
-0.000211363
-0.0015761
-0.000220064
-0.00145747
-0.000227021
-0.00133662
-0.000232304
-0.00121451
-0.000235787
-0.00109212
-0.000237436
-0.000970242
-0.000237402
-0.000849946
-0.000235458
-0.000731906
-0.000231961
-0.000617134
-0.000226598
-0.000506528
-0.000219508
-0.000400705
-0.000210979
-0.000300439
-0.000201021
-0.000206423
-0.000189536
-0.000119182
-0.000176841
-3.93702e-05
-0.00016295
3.25222e-05
-0.000147985
9.59191e-05
-0.000132046
0.000150626
-0.000115536
0.000196572
-9.85042e-05
0.000233555
-8.11206e-05
0.000261416
-6.34424e-05
0.000280262
-4.57594e-05
0.000290278
-2.82654e-05
0.000291629
-1.1074e-05
0.000284686
5.37573e-06
0.000269791
2.11934e-05
0.000247498
3.61412e-05
0.000218364
5.00726e-05
0.000183021
6.28401e-05
0.000142158
7.43078e-05
9.65128e-05
8.43542e-05
4.69026e-05
9.28665e-05
-5.90963e-06
9.9885e-05
-6.10526e-05
0.000105255
-0.000117733
0.000109019
-0.000175096
0.000111121
-0.000232352
0.000111638
-0.000288734
0.000110606
-0.000343458
0.00010801
-0.000395841
0.000104001
-0.000445246
9.86785e-05
-0.00049108
9.21239e-05
-0.000532835
8.44911e-05
-0.000570075
7.59016e-05
-0.000602426
6.64928e-05
-0.000629593
5.64375e-05
-0.000651394
4.58923e-05
-0.000667658
3.49719e-05
-0.000678376
2.39116e-05
-0.000683502
1.27096e-05
-0.000683026
1.59226e-06
-0.000677344
-9.32147e-06
-0.000666505
-1.98252e-05
-0.000650768
-2.98833e-05
-0.000630437
-3.93864e-05
-0.000605854
-4.82507e-05
-0.0005774
-5.63964e-05
-0.000545471
-6.3755e-05
-0.000510483
-7.02934e-05
-0.00047288
-7.59648e-05
-0.000433095
-8.07436e-05
-0.000391548
-8.46417e-05
-0.000348698
-8.76495e-05
-0.000304992
-8.97213e-05
-0.000260801
-9.1004e-05
-0.000216533
-9.14047e-05
-0.000172622
-9.10082e-05
-0.000129371
-8.98752e-05
-8.71253e-05
-8.80356e-05
-4.62112e-05
-8.54981e-05
-6.92605e-06
-8.24046e-05
3.06374e-05
-7.88287e-05
6.61352e-05
-7.47241e-05
9.93925e-05
-7.01957e-05
0.000130248
-6.53225e-05
0.000158584
-6.01494e-05
0.000184285
-5.47423e-05
0.000207297
-4.91697e-05
0.000227576
-4.35066e-05
0.000245114
-3.7803e-05
0.000259905
-3.20796e-05
0.000271979
-2.6362e-05
0.000281398
-2.07917e-05
0.000288216
-1.5323e-05
0.000292536
-1.00498e-05
0.000294422
-4.90835e-06
0.000294099
-1.24246e-07
0.000291591
4.40966e-06
0.000287073
8.71597e-06
0.000280676
1.27134e-05
0.000272558
1.64035e-05
0.000262884
1.97662e-05
0.000251794
2.27929e-05
0.000239453
2.54817e-05
0.000226036
2.78186e-05
0.000211708
2.98072e-05
0.000196629
3.14585e-05
0.000180927
3.27987e-05
0.000164784
3.38003e-05
0.000148346
3.44939e-05
0.000131751
3.48779e-05
0.000115115
3.49903e-05
9.86017e-05
3.48206e-05
8.2301e-05
3.44093e-05
6.63119e-05
3.37655e-05
5.07585e-05
3.29014e-05
3.57017e-05
3.18636e-05
2.12633e-05
3.06146e-05
7.46448e-06
2.92644e-05
-5.5939e-06
2.77407e-05
-1.78896e-05
2.61382e-05
-2.93756e-05
2.44422e-05
-4.00136e-05
2.26624e-05
-4.97839e-05
2.08382e-05
-5.86692e-05
1.89745e-05
-6.66641e-05
1.70961e-05
-7.37712e-05
1.52159e-05
-7.99968e-05
1.33536e-05
-8.53528e-05
1.15227e-05
-8.98723e-05
9.746e-06
-9.35844e-05
8.02459e-06
-9.65182e-05
6.37036e-06
-9.8707e-05
4.79309e-06
-0.000100199
3.30766e-06
-0.000101041
1.91549e-06
-0.000101275
6.12057e-07
-0.000100946
-5.91665e-07
-0.000100091
-1.71813e-06
-9.87497e-05
-2.76508e-06
-9.69554e-05
-3.73834e-06
-9.47392e-05
-4.64512e-06
-9.21291e-05
-5.49028e-06
-8.91498e-05
-6.28067e-06
-8.58264e-05
-7.01556e-06
-8.21847e-05
-7.69429e-06
-7.82516e-05
-8.31425e-06
-7.40573e-05
-8.86961e-06
-6.96354e-05
-9.35361e-06
-6.50228e-05
-9.76019e-06
-6.02591e-05
-1.00845e-05
-5.53848e-05
-1.03255e-05
-5.04404e-05
-1.04845e-05
-4.54585e-05
-1.05762e-05
-4.04628e-05
-1.06186e-05
-3.5467e-05
-1.06307e-05
-3.0473e-05
-1.06361e-05
-2.54731e-05
-1.0654e-05
-2.04573e-05
-1.06895e-05
-1.54121e-05
-1.07518e-05
-1.03254e-05
-1.08368e-05
-5.19042e-06
-1.09381e-05
-1.10537e-05
-2.63996e-05
0.000150902
-5.38029e-05
0.000153413
-8.33569e-05
0.000158041
-0.00011593
0.00016441
-0.000153031
0.000172201
-0.000195062
0.000181501
-0.00024348
0.00019215
-0.000298579
0.000204011
-0.000361504
0.000216957
-0.00043306
0.000230878
-0.000513069
0.000245043
-0.000602023
0.000259563
-0.000699742
0.000273698
-0.000806051
0.000287333
-0.000920242
0.000299781
-0.00104179
0.000310976
-0.00116969
0.000320341
-0.00130262
0.000327457
-0.00143914
0.000332131
-0.00157789
0.000333993
-0.0017173
0.00033279
-0.0018554
0.000328247
-0.00199049
0.000320318
-0.0021207
0.000308813
-0.00224423
0.000293854
-0.0023593
0.000275456
-0.00246428
0.000253804
-0.00255782
0.000229138
-0.00263865
0.000201728
-0.00270566
0.000171941
-0.00275825
0.00014029
-0.00279584
0.000106929
-0.00281822
7.24353e-05
-0.00282508
3.68244e-05
-0.00281698
9.8612e-07
-0.00279419
-3.38183e-05
-0.00275694
-6.86325e-05
-0.00270597
-0.000102685
-0.00264201
-0.00013571
-0.00256588
-0.000167438
-0.00247847
-0.000197585
-0.00238074
-0.000225968
-0.00227367
-0.000252357
-0.0021583
-0.000276602
-0.00203567
-0.000298549
-0.00190689
-0.000317999
-0.00177302
-0.000334957
-0.00163521
-0.000349169
-0.0014945
-0.000360775
-0.00135206
-0.000369459
-0.00120889
-0.000375477
-0.00106616
-0.000378519
-0.000924788
-0.000378808
-0.000785989
-0.000376201
-0.000650398
-0.000371049
-0.000519267
-0.000363093
-0.000393729
-0.000352136
-0.000274093
-0.000339144
-0.000161367
-0.000323704
-5.61716e-05
-0.000306216
4.06411e-05
-0.000286348
0.000128481
-0.000264682
0.000206931
-0.0002414
0.000275649
-0.000216703
0.00033449
-0.000190888
0.000383025
-0.000164071
0.000421162
-0.000136641
0.000448759
-0.000108717
0.000465965
-8.06483e-05
0.000473055
-5.28497e-05
0.000470304
-2.55137e-05
0.000458378
8.51768e-07
0.000437614
2.614e-05
0.000408601
5.02058e-05
0.000371964
7.27786e-05
0.000328531
9.35058e-05
0.000279054
0.000112317
0.000224452
0.000128909
0.000165613
0.000143194
0.000103475
0.000155004
3.89417e-05
0.000164418
-2.69672e-05
0.000171164
-9.33701e-05
0.000175422
-0.00015935
0.0001771
-0.000224052
0.00017634
-0.000286679
0.000173233
-0.000346463
0.000167794
-0.000402713
0.000160251
-0.000454849
0.000150815
-0.000502325
0.0001396
-0.000544717
0.000126882
-0.000581634
0.00011282
-0.000612819
9.76772e-05
-0.000638127
8.17458e-05
-0.000657399
6.51641e-05
-0.00067066
4.82334e-05
-0.000677914
3.11651e-05
-0.000679372
1.41681e-05
-0.00067524
-2.54023e-06
-0.000665791
-1.87708e-05
-0.000651254
-3.43623e-05
-0.000631974
-4.9163e-05
-0.000608345
-6.30149e-05
-0.000580766
-7.58304e-05
-0.000549683
-8.74794e-05
-0.000515538
-9.78995e-05
-0.000478778
-0.000107053
-0.000439876
-0.000114867
-0.000399251
-0.000121369
-0.000357399
-0.000126494
-0.000314686
-0.000130362
-0.000271549
-0.000132859
-0.00022839
-0.000134162
-0.000185596
-0.000134199
-0.000143458
-0.000133145
-0.000102334
-0.000131
-6.24595e-05
-0.00012791
-2.4129e-05
-0.000123829
1.24123e-05
-0.000118946
4.69777e-05
-0.000113394
7.93834e-05
-0.00010713
0.000109463
-0.000100276
0.000137163
-9.3022e-05
0.00016239
-8.53766e-05
0.000185055
-7.74068e-05
0.000205132
-6.92475e-05
0.000222604
-6.09786e-05
0.000237467
-5.26653e-05
0.000249699
-4.43123e-05
0.000259489
-3.61515e-05
0.000266808
-2.81109e-05
0.000271736
-2.02512e-05
0.00027439
-1.27033e-05
0.000274922
-5.44093e-06
0.000273416
1.38184e-06
0.000269981
7.84458e-06
0.000264766
1.39311e-05
0.00025792
1.95594e-05
0.000249564
2.47591e-05
0.000239863
2.94677e-05
0.000228979
3.36765e-05
0.000217043
3.74182e-05
0.000204191
4.06703e-05
0.000190582
4.34165e-05
0.000176354
4.56864e-05
0.00016165
4.75023e-05
0.000146626
4.88241e-05
0.000131404
4.97163e-05
0.000116123
5.01585e-05
0.000100886
5.02271e-05
8.57818e-05
4.99252e-05
7.09338e-05
4.92573e-05
5.6456e-05
4.82434e-05
4.23988e-05
4.69586e-05
2.88752e-05
4.53872e-05
1.58901e-05
4.35997e-05
3.57862e-06
4.15758e-05
-8.11111e-06
3.94305e-05
-1.90574e-05
3.70845e-05
-2.92438e-05
3.46286e-05
-3.86457e-05
3.20643e-05
-4.72494e-05
2.94418e-05
-5.50419e-05
2.6767e-05
-6.20219e-05
2.4076e-05
-6.81928e-05
2.13868e-05
-7.35675e-05
1.87283e-05
-7.81639e-05
1.6119e-05
-8.20053e-05
1.35874e-05
-8.51214e-05
1.11406e-05
-8.75455e-05
8.79448e-06
-8.93144e-05
6.56195e-06
-9.04699e-05
4.46315e-06
-9.1052e-05
2.49768e-06
-9.11046e-05
6.64655e-07
-9.06696e-05
-1.02672e-06
-8.97817e-05
-2.606e-06
-8.84761e-05
-4.07074e-06
-8.67826e-05
-5.43181e-06
-8.47268e-05
-6.70094e-06
-8.23307e-05
-7.8864e-06
-7.96131e-05
-8.99823e-06
-7.65936e-05
-1.0035e-05
-7.32928e-05
-1.09951e-05
-6.97331e-05
-1.1874e-05
-6.59401e-05
-1.26625e-05
-6.19442e-05
-1.33496e-05
-5.77789e-05
-1.39254e-05
-5.34831e-05
-1.43803e-05
-4.90966e-05
-1.4712e-05
-4.46611e-05
-1.492e-05
-4.02093e-05
-1.50279e-05
-3.57641e-05
-1.50639e-05
-3.13353e-05
-1.50596e-05
-2.69199e-05
-1.50514e-05
-2.25062e-05
-1.50678e-05
-1.80801e-05
-1.51156e-05
-1.36267e-05
-1.52052e-05
-9.1324e-06
-1.53311e-05
-4.59224e-06
-1.54782e-05
-1.5646e-05
3.22208e-05
0.000118681
6.25374e-05
0.000123096
8.90918e-05
0.000131487
0.000109153
0.000144348
0.000119946
0.000161409
0.000119556
0.00018189
0.000105835
0.000205871
7.66425e-05
0.000233203
3.08989e-05
0.0002627
-3.28504e-05
0.000294627
-0.00011485
0.000327043
-0.000215669
0.000360382
-0.000334518
0.000392547
-0.000470821
0.000423636
-0.000623626
0.000452586
-0.000790988
0.000478338
-0.00097087
0.000500223
-0.00116141
0.000518001
-0.00135987
0.000530583
-0.00156325
0.000537374
-0.00176843
0.000537972
-0.00197217
0.000531985
-0.00217106
0.000519213
-0.00236177
0.000499524
-0.00254099
0.000473073
-0.00270586
0.000440327
-0.00285353
0.000401465
-0.00298213
0.000357741
-0.00308961
0.00030921
-0.00317435
0.000256685
-0.00323527
0.00020121
-0.0032721
0.000143753
-0.00328495
8.52857e-05
-0.00327439
2.62635e-05
-0.00324419
-2.92108e-05
-0.00319434
-8.36677e-05
-0.0031262
-0.000136776
-0.00304099
-0.000187896
-0.00294012
-0.000236574
-0.00282512
-0.000282435
-0.00269756
-0.000325148
-0.00255897
-0.000364558
-0.00241097
-0.00040036
-0.00225506
-0.000432512
-0.00209273
-0.000460879
-0.00192551
-0.000485221
-0.00175471
-0.000505757
-0.00158175
-0.000522124
-0.00140798
-0.000534545
-0.00123462
-0.000542825
-0.00106286
-0.000547232
-0.000894088
-0.000547293
-0.000729012
-0.000543884
-0.000568902
-0.000536311
-0.000415271
-0.00052468
-0.000268642
-0.000509722
-0.000129574
-0.000491204
8.49779e-07
-0.000469568
0.000121567
-0.000444422
0.000232021
-0.00041667
0.000331774
-0.000386101
0.000420331
-0.000353239
0.000497184
-0.000318252
0.000561836
-0.000281355
0.000614301
-0.000243353
0.000654342
-0.000204112
0.000681982
-0.000164282
0.000697472
-0.000124207
0.000701223
-8.43992e-05
0.000693399
-4.50265e-05
0.000674739
-6.8533e-06
0.000646181
2.94095e-05
0.000608028
6.42938e-05
0.000561174
9.70597e-05
0.000506565
0.000127387
0.000445195
0.000154876
0.000378151
0.000179361
0.000306458
0.000200601
0.000231274
0.000218378
0.000153709
0.000232569
7.48426e-05
0.000243285
-4.19713e-06
0.000250203
-8.2409e-05
0.000253634
-0.000158761
0.000253453
-0.000232373
0.000249952
-0.000302399
0.000243259
-0.000368098
0.000233493
-0.000428804
0.000220958
-0.000483967
0.000205977
-0.000533092
0.000188726
-0.000575922
0.000169712
-0.000612148
0.000149046
-0.0006416
0.00012713
-0.000664268
0.000104413
-0.000680258
8.11545e-05
-0.000689624
5.75993e-05
-0.000692538
3.40791e-05
-0.000689379
1.10087e-05
-0.000680482
-1.14374e-05
-0.00066616
-3.30922e-05
-0.000646848
-5.36749e-05
-0.000622974
-7.30365e-05
-0.000595037
-9.09519e-05
-0.000563494
-0.000107373
-0.000528854
-0.00012212
-0.000491624
-0.000135129
-0.00045228
-0.000146398
-0.000411327
-0.000155819
-0.000369199
-0.000163497
-0.000326297
-0.000169395
-0.000283082
-0.000173578
-0.000239905
-0.000176036
-0.000197224
-0.000176844
-0.000155289
-0.000176134
-0.000114466
-0.000173968
-7.49352e-05
-0.000170531
-3.70516e-05
-0.000165794
-1.00501e-06
-0.000159875
3.31159e-05
-0.000153067
6.50011e-05
-0.000145279
9.46745e-05
-0.000136803
0.000122005
-0.000127606
0.000146847
-0.000117864
0.000169167
-0.000107696
0.000188962
-9.72018e-05
0.000206224
-8.65103e-05
0.000220962
-7.57158e-05
0.000233248
-6.49521e-05
0.000243191
-5.42548e-05
0.000250707
-4.36677e-05
0.000255968
-3.33719e-05
0.000259097
-2.33802e-05
0.000260141
-1.37477e-05
0.000259187
-4.48597e-06
0.000256501
4.06757e-06
0.000252081
1.22642e-05
0.000246095
1.99177e-05
0.000238667
2.69865e-05
0.000229958
3.34683e-05
0.000220111
3.93146e-05
0.000209229
4.45585e-05
0.000197487
4.9161e-05
0.000185007
5.31497e-05
0.000171929
5.64952e-05
0.000158392
5.92226e-05
0.000144532
6.13631e-05
0.000130447
6.29091e-05
0.000116272
6.38912e-05
0.000102054
6.43768e-05
8.79636e-05
6.4317e-05
7.41166e-05
6.37721e-05
6.05583e-05
6.28156e-05
4.73327e-05
6.1469e-05
3.45953e-05
5.9696e-05
2.23427e-05
5.76398e-05
1.06762e-05
5.52662e-05
-3.96077e-07
5.26481e-05
-1.07971e-05
4.98315e-05
-2.05207e-05
4.68081e-05
-2.95419e-05
4.36498e-05
-3.78364e-05
4.03588e-05
-4.53928e-05
3.69982e-05
-5.22019e-05
3.35761e-05
-5.82655e-05
3.01396e-05
-6.35897e-05
2.67111e-05
-6.8188e-05
2.33266e-05
-7.20898e-05
2.00209e-05
-7.53067e-05
1.68043e-05
-7.78732e-05
1.37072e-05
-7.98201e-05
1.07413e-05
-8.11919e-05
7.93375e-06
-8.20271e-05
5.29833e-06
-8.23603e-05
2.83093e-06
-8.22336e-05
5.37911e-07
-8.16859e-05
-1.57437e-06
-8.07536e-05
-3.5383e-06
-7.94682e-05
-5.35611e-06
-7.78551e-05
-7.04494e-06
-7.59345e-05
-8.62152e-06
-7.37222e-05
-1.00987e-05
-7.1231e-05
-1.14894e-05
-6.84747e-05
-1.27913e-05
-6.54691e-05
-1.40007e-05
-6.22324e-05
-1.51107e-05
-5.87863e-05
-1.61086e-05
-5.51578e-05
-1.6978e-05
-5.13774e-05
-1.77059e-05
-4.74842e-05
-1.82735e-05
-4.35183e-05
-1.86778e-05
-3.95248e-05
-1.89136e-05
-3.55379e-05
-1.90148e-05
-3.15801e-05
-1.90217e-05
-2.76566e-05
-1.89831e-05
-2.3759e-05
-1.8949e-05
-1.98696e-05
-1.89572e-05
-1.59695e-05
-1.90156e-05
-1.20435e-05
-1.91312e-05
-8.07671e-06
-1.9298e-05
-4.06272e-06
-1.94922e-05
-1.97087e-05
0.000142406
-2.37244e-05
0.000282899
-1.73973e-05
0.000415296
-9.10061e-07
0.000534714
2.49298e-05
0.000636964
5.91591e-05
0.000717777
0.000101077
0.000772949
0.000150699
0.000797749
0.000208404
0.00078779
0.000272659
0.000741651
0.000340765
0.00065729
0.000411404
0.000534839
0.000482834
0.000374463
0.000552923
0.000178347
0.000619752
-5.05808e-05
0.000681514
-0.000308635
0.000736392
-0.000591531
0.000783119
-0.000894048
0.000820518
-0.00121071
0.000847246
-0.00153567
0.00086233
-0.00186258
0.000864884
-0.00218489
0.000854301
-0.002496
0.000830319
-0.00278933
0.000792856
-0.00305859
0.000742335
-0.00329817
0.000679904
-0.00350346
0.000606752
-0.00367085
0.000525137
-0.00379897
0.00043733
-0.00388809
0.000345804
-0.00393962
0.000252734
-0.00395542
0.000159554
-0.00393793
6.77933e-05
-0.0038911
-2.05626e-05
-0.00381541
-0.000104899
-0.00371418
-0.000184898
-0.00359089
-0.000260064
-0.00344856
-0.000330233
-0.00329002
-0.000395114
-0.00311781
-0.000454644
-0.00293428
-0.000508678
-0.00274156
-0.000557274
-0.00254168
-0.000600245
-0.00233635
-0.00063784
-0.00212746
-0.000669767
-0.00191634
-0.000696344
-0.00170487
-0.000717229
-0.00149398
-0.000733008
-0.00128546
-0.000743065
-0.00108022
-0.000748063
-0.000879493
-0.00074796
-0.000684735
-0.00074205
-0.000497291
-0.000731329
-0.00031763
-0.000715972
-0.000146552
-0.000695759
1.49228e-05
-0.000671196
0.000165463
-0.000641745
0.000304489
-0.000608594
0.000431368
-0.000571301
0.000545436
-0.000530737
0.000646114
-0.000486779
0.000732673
-0.000439798
0.000805156
-0.000390735
0.000863226
-0.000339426
0.000906459
-0.000286586
0.000935241
-0.000232894
0.000950153
-0.000179193
0.00095132
-0.000125374
0.00093829
-7.137e-05
0.000913403
-2.01393e-05
0.000877092
2.94573e-05
0.000829423
7.70792e-05
0.000771719
0.000121998
0.000705066
0.000163713
0.000630646
0.000201807
0.000549767
0.000235755
0.000463648
0.000265479
0.000373724
0.000290525
0.000281302
0.0003108
0.000187686
0.000326186
9.40786e-05
0.000336892
1.70169e-06
0.00034258
-8.82674e-05
0.000343603
-0.000174756
0.000339942
-0.00025682
0.000332016
-0.000333593
0.000320032
-0.000404378
0.000304278
-0.000468606
0.000285186
-0.000525786
0.000263156
-0.000575501
0.000238441
-0.00061754
0.000211751
-0.00065184
0.000183346
-0.000678409
0.000153699
-0.000697538
0.000123542
-0.000709209
9.28257e-05
-0.000713564
6.19541e-05
-0.000711386
3.19008e-05
-0.000702886
2.50936e-06
-0.00068857
-2.57531e-05
-0.000668863
-5.27993e-05
-0.000644333
-7.82048e-05
-0.000615519
-0.000101851
-0.000583014
-0.000123457
-0.000547341
-0.000143047
-0.000509019
-0.000160442
-0.000468654
-0.000175495
-0.000426691
-0.00018836
-0.000383602
-0.000198909
-0.000339933
-0.000207166
-0.000296041
-0.000213287
-0.000252379
-0.00021724
-0.000209363
-0.000219052
-0.000167098
-0.000219109
-0.000126077
-0.000217155
-8.65616e-05
-0.000213483
-4.87369e-05
-0.000208355
-1.27863e-05
-0.000201744
2.12569e-05
-0.000193918
5.29847e-05
-0.000184795
8.2474e-05
-0.000174768
0.000109537
-0.000163866
0.000134116
-0.000152185
0.000156184
-0.000139932
0.000175814
-0.000127326
0.00019299
-0.000114378
0.000207713
-0.000101233
0.000220027
-8.80297e-05
0.000229893
-7.48179e-05
0.000237526
-6.18878e-05
0.000243046
-4.9188e-05
0.000246387
-3.6713e-05
0.000247808
-2.48013e-05
0.000247278
-1.32177e-05
0.000245142
-2.35e-06
0.000241315
7.8951e-06
0.000235975
1.76046e-05
0.000229285
2.66074e-05
0.000221353
3.4918e-05
0.000212322
4.24996e-05
0.000202321
4.93155e-05
0.000191482
5.5398e-05
0.000179935
6.07079e-05
0.000167806
6.52784e-05
0.000155224
6.90773e-05
0.000142308
7.21388e-05
0.000129157
7.45143e-05
0.000115895
7.61706e-05
0.000102612
7.71739e-05
8.94312e-05
7.75578e-05
7.6425e-05
7.73231e-05
6.36299e-05
7.65672e-05
5.11894e-05
7.52562e-05
3.91792e-05
7.34791e-05
2.7586e-05
7.12891e-05
1.65241e-05
6.87017e-05
6.02909e-06
6.57612e-05
-3.89943e-06
6.25766e-05
-1.31981e-05
5.91302e-05
-2.18454e-05
5.54555e-05
-2.98257e-05
5.163e-05
-3.71321e-05
4.76652e-05
-4.3755e-05
4.36211e-05
-4.96865e-05
3.95076e-05
-5.49316e-05
3.53847e-05
-5.94995e-05
3.1279e-05
-6.34175e-05
2.72446e-05
-6.6692e-05
2.32953e-05
-6.93505e-05
1.94629e-05
-7.14234e-05
1.57801e-05
-7.29517e-05
1.22697e-05
-7.39731e-05
8.95518e-06
-7.4516e-05
5.84123e-06
-7.46243e-05
2.93923e-06
-7.43389e-05
2.52436e-07
-7.36925e-05
-2.22077e-06
-7.27226e-05
-4.50821e-06
-7.14585e-05
-6.62014e-06
-6.99211e-05
-8.5824e-06
-6.81257e-05
-1.04169e-05
-6.60815e-05
-1.21429e-05
-6.37953e-05
-1.37756e-05
-6.12757e-05
-1.53109e-05
-5.85341e-05
-1.67423e-05
-5.55854e-05
-1.80594e-05
-5.24474e-05
-1.92467e-05
-4.91442e-05
-2.02812e-05
-4.5702e-05
-2.11481e-05
-4.21617e-05
-2.18138e-05
-3.85638e-05
-2.22757e-05
-3.49591e-05
-2.25183e-05
-3.13836e-05
-2.25902e-05
-2.78603e-05
-2.2545e-05
-2.43888e-05
-2.24546e-05
-2.09548e-05
-2.2383e-05
-1.75335e-05
-2.23785e-05
-1.41017e-05
-2.24474e-05
-1.06445e-05
-2.25885e-05
-7.14643e-06
-2.2796e-05
-3.59589e-06
-2.30428e-05
-2.33046e-05
0.000329788
-0.000353513
0.000655953
-0.000343562
0.000969361
-0.000314318
0.00126145
-0.000267164
0.00152225
-0.000201637
0.00174099
-0.000117663
0.00190725
-1.55632e-05
0.00201164
0.000104021
0.00204625
0.000238046
0.00200801
0.000379008
0.00189853
0.000520883
0.00172128
0.000660085
0.00148037
0.000793829
0.00118097
0.00091915
0.000829476
0.00103301
0.00043208
0.00113379
-3.30213e-06
0.0012185
-0.000468086
0.0012853
-0.000953917
0.00133308
-0.00145098
0.00135939
-0.00194919
0.00136309
-0.00243747
0.00134258
-0.00290532
0.00129818
-0.00334165
0.00122918
-0.0037357
0.00113639
-0.00407803
0.00102223
-0.00436056
0.000889277
-0.00457484
0.000739422
-0.00472002
0.000582504
-0.00479853
0.000424321
-0.00481582
0.000270023
-0.00477813
0.00012186
-0.00469422
-1.61171e-05
-0.00457579
-0.000138986
-0.00442647
-0.000254223
-0.00425091
-0.00036046
-0.0040535
-0.000457472
-0.00383836
-0.00054537
-0.00360933
-0.000624147
-0.0033696
-0.000694372
-0.00312225
-0.000756035
-0.00286963
-0.000809892
-0.00261425
-0.000855627
-0.00235778
-0.000894304
-0.00210203
-0.000925521
-0.00184834
-0.000950036
-0.00159828
-0.000967286
-0.00135279
-0.0009785
-0.00111323
-0.000982627
-0.000880866
-0.000980423
-0.00065599
-0.000972836
-0.000439699
-0.000958341
-0.000233073
-0.000937954
-3.72482e-05
-0.000911797
0.000147008
-0.000880015
0.000318343
-0.000842532
0.000476492
-0.000799894
0.000620644
-0.000752745
0.000749939
-0.000700596
0.000863993
-0.000644791
0.000962134
-0.000584921
0.00104367
-0.00052133
0.00110859
-0.000455662
0.00115722
-0.000388056
0.00118896
-0.000318321
0.00120483
-0.000248768
0.00120499
-0.00017935
0.00118862
-0.000109001
0.00115926
-4.20121e-05
0.00111614
2.29822e-05
0.0010599
8.56991e-05
0.000992043
0.000144932
0.00091395
0.000200091
0.000826764
0.000250899
0.00073224
0.000296332
0.000631808
0.000336186
0.000526994
0.000370294
0.000419283
0.000398236
0.000310116
0.000419967
0.000201146
0.000435156
9.38398e-05
0.000444199
-1.04687e-05
0.000446889
-0.000110676
0.00044381
-0.000205608
0.000434874
-0.00029435
0.000420758
-0.000376144
0.000401826
-0.000450241
0.000378375
-0.000516145
0.00035109
-0.000573536
0.000320547
-0.000622294
0.000287199
-0.00066224
0.000251696
-0.000693481
0.000214587
-0.000716023
0.000176241
-0.000730367
0.000137887
-0.000736488
9.89466e-05
-0.000735612
6.10786e-05
-0.000727643
2.39312e-05
-0.000713497
-1.16367e-05
-0.000693457
-4.57926e-05
-0.000668316
-7.79408e-05
-0.000638647
-0.000107874
-0.000605113
-0.000135385
-0.000568249
-0.00016032
-0.000528742
-0.000182554
-0.000487189
-0.000201994
-0.000444003
-0.000218681
-0.000399873
-0.00023249
-0.000355154
-0.000243628
-0.000310346
-0.000251974
-0.000265913
-0.000257721
-0.000222185
-0.000260967
-0.000179494
-0.000261744
-0.000138118
-0.000260485
-9.83424e-05
-0.000256931
-6.02806e-05
-0.000251545
-2.42167e-05
-0.000244419
9.79375e-06
-0.000235755
4.14837e-05
-0.000225608
7.08018e-05
-0.000214113
9.77878e-05
-0.000201755
0.000122278
-0.000188357
0.000144245
-0.000174153
0.000163837
-0.000159524
0.000180949
-0.000144438
0.000195596
-0.000129025
0.000207877
-0.000113514
0.000217882
-9.80351e-05
0.000225715
-8.26508e-05
0.000231312
-6.74845e-05
0.000234918
-5.27937e-05
0.000236671
-3.84661e-05
0.000236536
-2.4666e-05
0.000234811
-1.14936e-05
0.000231527
9.34675e-07
0.00022676
1.26617e-05
0.000220693
2.36722e-05
0.000213439
3.38615e-05
0.000205122
4.32341e-05
0.000195881
5.17413e-05
0.000185844
5.9352e-05
0.000175121
6.61216e-05
0.000163836
7.19926e-05
0.000152103
7.70119e-05
0.000140048
8.11316e-05
0.000127748
8.44392e-05
0.000115306
8.69563e-05
0.000102817
8.8659e-05
9.03924e-05
8.95989e-05
7.81161e-05
8.98341e-05
6.60787e-05
8.93605e-05
5.43506e-05
8.82954e-05
4.29563e-05
8.66505e-05
3.19683e-05
8.44671e-05
2.14779e-05
8.17795e-05
1.14838e-05
7.86958e-05
2.03219e-06
7.52128e-05
-6.8511e-06
7.14599e-05
-1.5135e-05
6.74141e-05
-2.28117e-05
6.31321e-05
-2.98726e-05
5.8691e-05
-3.62987e-05
5.40912e-05
-4.20902e-05
4.94127e-05
-4.7248e-05
4.46654e-05
-5.17759e-05
3.99126e-05
-5.56857e-05
3.51888e-05
-5.89911e-05
3.055e-05
-6.17169e-05
2.6021e-05
-6.38878e-05
2.16338e-05
-6.55377e-05
1.743e-05
-6.67058e-05
1.34377e-05
-6.74172e-05
9.66661e-06
-6.77133e-05
6.13727e-06
-6.76328e-05
2.85878e-06
-6.72155e-05
-1.64847e-07
-6.6492e-05
-2.9443e-06
-6.5499e-05
-5.50125e-06
-6.4265e-05
-7.85406e-06
-6.2806e-05
-1.00415e-05
-6.11331e-05
-1.20897e-05
-5.92487e-05
-1.40273e-05
-5.71539e-05
-1.58704e-05
-5.48522e-05
-1.76126e-05
-5.23518e-05
-1.92427e-05
-4.9665e-05
-2.07461e-05
-4.68061e-05
-2.21056e-05
-4.37966e-05
-2.32907e-05
-4.0657e-05
-2.42877e-05
-3.74308e-05