/*--------------------------------*- C++ -*----------------------------------*\
  =========                 |
  \\      /  F ield         | OpenFOAM: The Open Source CFD Toolbox
   \\    /   O peration     | Website:  https://openfoam.org
    \\  /    A nd           | Version:  12
     \\/     M anipulation  |
\*---------------------------------------------------------------------------*/
FoamFile
{
    format      ascii;
    class       volScalarField;
    location    "14.34";
    object      p;
}
// * * * * * * * * * * * * * * * * * * * * * * * * * * * * * * * * * * * * * //

dimensions      [1 -1 -2 0 0 0 0];

internalField   nonuniform List<scalar> 
3829
(
-614.306
-614.306
-614.307
-614.307
-614.307
-614.308
-614.309
-614.31
-614.311
-614.312
-614.314
-614.315
-614.317
-614.319
-614.322
-614.324
-614.327
-614.331
-614.334
-614.338
-614.342
-614.346
-614.35
-614.354
-614.359
-614.363
-614.367
-614.372
-614.375
-614.379
-614.381
-614.384
-614.385
-614.385
-614.385
-614.383
-614.38
-614.375
-614.369
-614.36
-614.35
-614.338
-614.323
-614.307
-614.288
-614.267
-614.244
-614.219
-614.193
-614.164
-614.134
-614.102
-614.069
-614.035
-614
-613.965
-613.929
-613.894
-613.86
-613.826
-613.795
-613.765
-613.738
-613.713
-613.693
-613.676
-613.663
-613.655
-613.651
-613.653
-613.66
-613.673
-613.691
-613.715
-613.745
-613.78
-613.821
-613.866
-613.915
-613.968
-614.026
-614.084
-614.144
-614.204
-614.264
-614.322
-614.378
-614.43
-614.478
-614.52
-614.556
-614.585
-614.605
-614.618
-614.621
-614.614
-614.598
-614.574
-614.542
-614.502
-614.457
-614.406
-614.351
-614.295
-614.238
-614.182
-614.13
-614.084
-614.044
-614.012
-613.991
-613.981
-613.982
-613.996
-614.022
-614.06
-614.108
-614.164
-614.227
-614.295
-614.364
-614.432
-614.495
-614.551
-614.597
-614.631
-614.651
-614.656
-614.644
-614.616
-614.573
-614.518
-614.453
-614.381
-614.307
-614.235
-614.168
-614.112
-614.069
-614.042
-614.034
-614.045
-614.075
-614.121
-614.181
-614.25
-614.329
-614.401
-614.467
-614.52
-614.558
-614.577
-614.576
-614.554
-614.515
-614.461
-614.399
-614.333
-614.271
-614.22
-614.182
-614.164
-614.164
-614.185
-614.221
-614.268
-614.319
-614.37
-614.409
-614.432
-614.437
-614.421
-614.386
-614.337
-614.279
-614.219
-614.17
-614.135
-614.121
-614.13
-614.16
-614.208
-614.266
-614.326
-614.38
-614.422
-614.447
-614.452
-614.442
-614.419
-614.392
-614.365
-614.346
-614.337
-614.341
-614.358
-614.379
-614.402
-614.421
-614.433
-1772.66
-1772.66
-1772.66
-1772.66
-1772.66
-1772.66
-1772.66
-1772.66
-1772.66
-1772.66
-1772.66
-1772.66
-1772.67
-1772.67
-1772.67
-1772.67
-1772.68
-1772.68
-1772.69
-1772.69
-1772.7
-1772.71
-1772.71
-1772.72
-1772.73
-1772.74
-1772.75
-1772.75
-1772.76
-1772.77
-1772.78
-1772.78
-1772.79
-1772.8
-1772.8
-1772.8
-1772.8
-1772.8
-1772.79
-1772.79
-1772.78
-1772.77
-1772.75
-1772.74
-1772.72
-1772.69
-1772.67
-1772.64
-1772.61
-1772.57
-1772.54
-1772.5
-1772.46
-1772.41
-1772.37
-1772.33
-1772.28
-1772.24
-1772.2
-1772.15
-1772.11
-1772.08
-1772.04
-1772.01
-1771.98
-1771.96
-1771.94
-1771.93
-1771.93
-1771.93
-1771.93
-1771.95
-1771.97
-1772
-1772.03
-1772.08
-1772.12
-1772.18
-1772.24
-1772.3
-1772.37
-1772.44
-1772.51
-1772.59
-1772.66
-1772.73
-1772.8
-1772.86
-1772.92
-1772.97
-1773.01
-1773.04
-1773.06
-1773.08
-1773.08
-1773.07
-1773.05
-1773.02
-1772.98
-1772.93
-1772.87
-1772.8
-1772.73
-1772.66
-1772.59
-1772.52
-1772.46
-1772.4
-1772.35
-1772.31
-1772.28
-1772.27
-1772.27
-1772.29
-1772.32
-1772.37
-1772.43
-1772.5
-1772.58
-1772.66
-1772.74
-1772.83
-1772.9
-1772.97
-1773.03
-1773.07
-1773.1
-1773.1
-1773.08
-1773.05
-1773
-1772.93
-1772.85
-1772.76
-1772.67
-1772.58
-1772.5
-1772.43
-1772.38
-1772.35
-1772.34
-1772.35
-1772.39
-1772.45
-1772.52
-1772.61
-1772.7
-1772.79
-1772.87
-1772.94
-1772.98
-1773
-1773
-1772.97
-1772.92
-1772.85
-1772.77
-1772.69
-1772.62
-1772.56
-1772.51
-1772.49
-1772.5
-1772.52
-1772.57
-1772.63
-1772.69
-1772.76
-1772.81
-1772.84
-1772.84
-1772.82
-1772.78
-1772.72
-1772.65
-1772.58
-1772.52
-1772.48
-1772.46
-1772.47
-1772.51
-1772.56
-1772.63
-1772.7
-1772.77
-1772.81
-1772.84
-1772.84
-1772.83
-1772.8
-1772.76
-1772.73
-1772.7
-1772.7
-1772.7
-1772.72
-1772.75
-1772.78
-1772.8
-1772.81
-2798.82
-2798.82
-2798.82
-2798.82
-2798.82
-2798.82
-2798.82
-2798.81
-2798.81
-2798.81
-2798.81
-2798.81
-2798.81
-2798.81
-2798.81
-2798.81
-2798.81
-2798.82
-2798.82
-2798.83
-2798.84
-2798.85
-2798.86
-2798.88
-2798.89
-2798.91
-2798.92
-2798.94
-2798.96
-2798.98
-2798.99
-2799.01
-2799.03
-2799.04
-2799.06
-2799.07
-2799.08
-2799.08
-2799.08
-2799.08
-2799.07
-2799.06
-2799.05
-2799.03
-2799
-2798.97
-2798.94
-2798.9
-2798.86
-2798.82
-2798.77
-2798.71
-2798.66
-2798.6
-2798.54
-2798.48
-2798.42
-2798.36
-2798.3
-2798.24
-2798.18
-2798.13
-2798.08
-2798.03
-2797.99
-2797.96
-2797.94
-2797.92
-2797.91
-2797.91
-2797.92
-2797.93
-2797.96
-2798
-2798.04
-2798.1
-2798.16
-2798.23
-2798.31
-2798.4
-2798.49
-2798.58
-2798.68
-2798.77
-2798.87
-2798.96
-2799.05
-2799.13
-2799.2
-2799.27
-2799.32
-2799.37
-2799.39
-2799.41
-2799.41
-2799.39
-2799.36
-2799.31
-2799.26
-2799.18
-2799.1
-2799.01
-2798.92
-2798.82
-2798.72
-2798.63
-2798.54
-2798.46
-2798.39
-2798.34
-2798.3
-2798.28
-2798.29
-2798.31
-2798.35
-2798.42
-2798.5
-2798.59
-2798.7
-2798.81
-2798.92
-2799.04
-2799.14
-2799.23
-2799.31
-2799.36
-2799.39
-2799.4
-2799.38
-2799.33
-2799.26
-2799.16
-2799.05
-2798.94
-2798.81
-2798.69
-2798.58
-2798.49
-2798.43
-2798.39
-2798.38
-2798.4
-2798.45
-2798.53
-2798.63
-2798.75
-2798.87
-2798.99
-2799.1
-2799.18
-2799.24
-2799.26
-2799.26
-2799.21
-2799.14
-2799.05
-2798.95
-2798.84
-2798.74
-2798.65
-2798.6
-2798.57
-2798.58
-2798.62
-2798.69
-2798.77
-2798.86
-2798.95
-2799.02
-2799.06
-2799.07
-2799.04
-2798.98
-2798.9
-2798.81
-2798.71
-2798.64
-2798.58
-2798.56
-2798.58
-2798.63
-2798.7
-2798.79
-2798.88
-2798.96
-2799.01
-2799.04
-2799.04
-2799.01
-2798.97
-2798.92
-2798.87
-2798.84
-2798.83
-2798.84
-2798.87
-2798.9
-2798.94
-2798.97
-2798.99
-3707.84
-3707.84
-3707.84
-3707.83
-3707.83
-3707.82
-3707.81
-3707.81
-3707.8
-3707.79
-3707.78
-3707.77
-3707.77
-3707.76
-3707.76
-3707.76
-3707.76
-3707.76
-3707.77
-3707.78
-3707.8
-3707.81
-3707.84
-3707.86
-3707.89
-3707.92
-3707.95
-3707.98
-3708.02
-3708.06
-3708.09
-3708.13
-3708.16
-3708.2
-3708.22
-3708.25
-3708.27
-3708.29
-3708.3
-3708.3
-3708.3
-3708.29
-3708.28
-3708.26
-3708.23
-3708.19
-3708.15
-3708.1
-3708.04
-3707.98
-3707.91
-3707.84
-3707.76
-3707.68
-3707.6
-3707.51
-3707.42
-3707.33
-3707.25
-3707.16
-3707.08
-3707.01
-3706.94
-3706.87
-3706.82
-3706.77
-3706.73
-3706.7
-3706.69
-3706.69
-3706.69
-3706.72
-3706.75
-3706.8
-3706.86
-3706.94
-3707.02
-3707.12
-3707.23
-3707.34
-3707.46
-3707.59
-3707.72
-3707.85
-3707.98
-3708.1
-3708.22
-3708.33
-3708.43
-3708.52
-3708.59
-3708.64
-3708.68
-3708.69
-3708.69
-3708.66
-3708.62
-3708.55
-3708.47
-3708.36
-3708.25
-3708.12
-3707.99
-3707.85
-3707.71
-3707.58
-3707.46
-3707.34
-3707.25
-3707.18
-3707.13
-3707.1
-3707.11
-3707.14
-3707.2
-3707.29
-3707.4
-3707.53
-3707.68
-3707.83
-3707.99
-3708.15
-3708.29
-3708.42
-3708.52
-3708.59
-3708.63
-3708.64
-3708.61
-3708.54
-3708.44
-3708.31
-3708.16
-3707.99
-3707.82
-3707.66
-3707.51
-3707.39
-3707.3
-3707.25
-3707.24
-3707.27
-3707.35
-3707.46
-3707.6
-3707.76
-3707.93
-3708.09
-3708.23
-3708.35
-3708.42
-3708.45
-3708.44
-3708.37
-3708.27
-3708.14
-3708
-3707.85
-3707.71
-3707.6
-3707.53
-3707.5
-3707.52
-3707.58
-3707.67
-3707.79
-3707.92
-3708.04
-3708.13
-3708.19
-3708.2
-3708.16
-3708.08
-3707.97
-3707.85
-3707.72
-3707.62
-3707.54
-3707.52
-3707.54
-3707.61
-3707.7
-3707.82
-3707.94
-3708.04
-3708.11
-3708.13
-3708.12
-3708.08
-3708.02
-3707.95
-3707.89
-3707.85
-3707.84
-3707.85
-3707.89
-3707.94
-3707.99
-3708.03
-3708.06
-4513.22
-4513.22
-4513.21
-4513.2
-4513.18
-4513.16
-4513.14
-4513.11
-4513.09
-4513.06
-4513.03
-4513.01
-4512.98
-4512.96
-4512.94
-4512.93
-4512.92
-4512.92
-4512.92
-4512.93
-4512.95
-4512.98
-4513.01
-4513.05
-4513.1
-4513.15
-4513.21
-4513.27
-4513.34
-4513.41
-4513.47
-4513.54
-4513.61
-4513.67
-4513.72
-4513.77
-4513.82
-4513.85
-4513.87
-4513.89
-4513.89
-4513.88
-4513.87
-4513.84
-4513.8
-4513.75
-4513.69
-4513.62
-4513.54
-4513.46
-4513.36
-4513.26
-4513.15
-4513.03
-4512.91
-4512.79
-4512.67
-4512.55
-4512.43
-4512.31
-4512.19
-4512.09
-4511.99
-4511.9
-4511.82
-4511.75
-4511.7
-4511.66
-4511.64
-4511.63
-4511.64
-4511.67
-4511.72
-4511.78
-4511.87
-4511.96
-4512.08
-4512.21
-4512.35
-4512.51
-4512.67
-4512.84
-4513.02
-4513.19
-4513.36
-4513.53
-4513.69
-4513.84
-4513.97
-4514.08
-4514.17
-4514.24
-4514.29
-4514.3
-4514.29
-4514.25
-4514.19
-4514.09
-4513.98
-4513.84
-4513.68
-4513.5
-4513.32
-4513.13
-4512.94
-4512.76
-4512.58
-4512.43
-4512.3
-4512.2
-4512.14
-4512.1
-4512.11
-4512.16
-4512.24
-4512.36
-4512.51
-4512.69
-4512.89
-4513.1
-4513.32
-4513.53
-4513.73
-4513.9
-4514.04
-4514.13
-4514.19
-4514.19
-4514.15
-4514.05
-4513.91
-4513.73
-4513.53
-4513.31
-4513.08
-4512.86
-4512.66
-4512.49
-4512.37
-4512.3
-4512.29
-4512.34
-4512.45
-4512.6
-4512.79
-4513.01
-4513.24
-4513.46
-4513.65
-4513.8
-4513.9
-4513.94
-4513.91
-4513.82
-4513.68
-4513.5
-4513.3
-4513.09
-4512.91
-4512.76
-4512.67
-4512.64
-4512.67
-4512.76
-4512.89
-4513.06
-4513.23
-4513.4
-4513.52
-4513.6
-4513.61
-4513.56
-4513.45
-4513.3
-4513.13
-4512.96
-4512.82
-4512.73
-4512.7
-4512.73
-4512.82
-4512.95
-4513.11
-4513.26
-4513.39
-4513.47
-4513.5
-4513.48
-4513.41
-4513.32
-4513.23
-4513.15
-4513.1
-4513.08
-4513.1
-4513.16
-4513.23
-4513.29
-4513.35
-4513.38
-5226.73
-5226.72
-5226.7
-5226.67
-5226.64
-5226.59
-5226.54
-5226.49
-5226.43
-5226.37
-5226.3
-5226.24
-5226.18
-5226.12
-5226.07
-5226.03
-5226.01
-5225.99
-5225.99
-5226
-5226.02
-5226.07
-5226.12
-5226.19
-5226.28
-5226.37
-5226.48
-5226.59
-5226.7
-5226.82
-5226.94
-5227.06
-5227.17
-5227.28
-5227.37
-5227.45
-5227.52
-5227.58
-5227.62
-5227.65
-5227.66
-5227.66
-5227.64
-5227.6
-5227.55
-5227.48
-5227.4
-5227.31
-5227.2
-5227.07
-5226.94
-5226.8
-5226.65
-5226.49
-5226.33
-5226.16
-5226
-5225.83
-5225.66
-5225.5
-5225.35
-5225.2
-5225.07
-5224.95
-5224.84
-5224.75
-5224.68
-5224.62
-5224.59
-5224.58
-5224.59
-5224.63
-5224.7
-5224.78
-5224.89
-5225.02
-5225.17
-5225.35
-5225.54
-5225.74
-5225.95
-5226.18
-5226.41
-5226.64
-5226.86
-5227.08
-5227.29
-5227.48
-5227.65
-5227.8
-5227.92
-5228.01
-5228.06
-5228.08
-5228.06
-5228.01
-5227.91
-5227.79
-5227.63
-5227.44
-5227.22
-5226.99
-5226.74
-5226.49
-5226.23
-5225.99
-5225.76
-5225.56
-5225.39
-5225.26
-5225.17
-5225.13
-5225.14
-5225.2
-5225.31
-5225.47
-5225.68
-5225.92
-5226.18
-5226.47
-5226.75
-5227.03
-5227.29
-5227.51
-5227.7
-5227.83
-5227.89
-5227.9
-5227.83
-5227.7
-5227.52
-5227.28
-5227.01
-5226.71
-5226.4
-5226.11
-5225.85
-5225.64
-5225.48
-5225.4
-5225.39
-5225.46
-5225.6
-5225.81
-5226.06
-5226.35
-5226.65
-5226.94
-5227.19
-5227.38
-5227.5
-5227.55
-5227.5
-5227.38
-5227.19
-5226.95
-5226.69
-5226.41
-5226.18
-5225.99
-5225.87
-5225.83
-5225.88
-5226
-5226.19
-5226.41
-5226.65
-5226.86
-5227.03
-5227.12
-5227.14
-5227.07
-5226.93
-5226.73
-5226.5
-5226.28
-5226.1
-5225.99
-5225.95
-5225.99
-5226.11
-5226.28
-5226.49
-5226.68
-5226.84
-5226.94
-5226.96
-5226.93
-5226.84
-5226.72
-5226.59
-5226.49
-5226.43
-5226.41
-5226.44
-5226.51
-5226.6
-5226.69
-5226.76
-5226.8
-5859.13
-5859.11
-5859.07
-5859.01
-5858.92
-5858.82
-5858.7
-5858.57
-5858.42
-5858.28
-5858.13
-5857.99
-5857.86
-5857.74
-5857.64
-5857.55
-5857.49
-5857.45
-5857.43
-5857.45
-5857.48
-5857.55
-5857.65
-5857.77
-5857.91
-5858.08
-5858.26
-5858.46
-5858.66
-5858.86
-5859.06
-5859.25
-5859.43
-5859.6
-5859.74
-5859.87
-5859.97
-5860.05
-5860.11
-5860.14
-5860.16
-5860.15
-5860.12
-5860.06
-5859.99
-5859.89
-5859.78
-5859.65
-5859.5
-5859.33
-5859.15
-5858.96
-5858.76
-5858.55
-5858.33
-5858.11
-5857.9
-5857.68
-5857.46
-5857.25
-5857.05
-5856.85
-5856.68
-5856.52
-5856.38
-5856.26
-5856.17
-5856.1
-5856.06
-5856.05
-5856.07
-5856.11
-5856.19
-5856.3
-5856.44
-5856.61
-5856.8
-5857.02
-5857.27
-5857.53
-5857.8
-5858.09
-5858.39
-5858.68
-5858.97
-5859.25
-5859.52
-5859.76
-5859.98
-5860.16
-5860.31
-5860.42
-5860.49
-5860.51
-5860.48
-5860.41
-5860.28
-5860.12
-5859.9
-5859.66
-5859.38
-5859.07
-5858.75
-5858.42
-5858.09
-5857.78
-5857.48
-5857.22
-5857
-5856.83
-5856.72
-5856.67
-5856.68
-5856.77
-5856.91
-5857.12
-5857.39
-5857.7
-5858.04
-5858.41
-5858.78
-5859.14
-5859.47
-5859.76
-5859.99
-5860.15
-5860.24
-5860.24
-5860.15
-5859.98
-5859.74
-5859.43
-5859.08
-5858.69
-5858.3
-5857.93
-5857.6
-5857.32
-5857.13
-5857.02
-5857.02
-5857.11
-5857.3
-5857.57
-5857.9
-5858.27
-5858.66
-5859.02
-5859.34
-5859.58
-5859.73
-5859.78
-5859.72
-5859.56
-5859.31
-5859
-5858.66
-5858.31
-5858
-5857.76
-5857.61
-5857.57
-5857.64
-5857.8
-5858.05
-5858.34
-5858.65
-5858.92
-5859.14
-5859.26
-5859.28
-5859.18
-5859
-5858.74
-5858.45
-5858.18
-5857.95
-5857.8
-5857.76
-5857.82
-5857.97
-5858.19
-5858.45
-5858.69
-5858.88
-5859
-5859.03
-5858.97
-5858.85
-5858.69
-5858.53
-5858.4
-5858.33
-5858.31
-5858.35
-5858.45
-5858.56
-5858.67
-5858.75
-5858.8
-6419.79
-6419.75
-6419.67
-6419.55
-6419.4
-6419.21
-6418.99
-6418.75
-6418.5
-6418.24
-6417.98
-6417.71
-6417.46
-6417.22
-6417
-6416.82
-6416.67
-6416.56
-6416.5
-6416.5
-6416.54
-6416.64
-6416.79
-6416.99
-6417.23
-6417.52
-6417.83
-6418.15
-6418.49
-6418.81
-6419.12
-6419.41
-6419.67
-6419.9
-6420.1
-6420.28
-6420.42
-6420.52
-6420.6
-6420.64
-6420.65
-6420.63
-6420.58
-6420.5
-6420.39
-6420.26
-6420.11
-6419.93
-6419.73
-6419.51
-6419.28
-6419.03
-6418.77
-6418.49
-6418.22
-6417.93
-6417.65
-6417.37
-6417.09
-6416.83
-6416.57
-6416.33
-6416.1
-6415.9
-6415.72
-6415.58
-6415.46
-6415.37
-6415.32
-6415.3
-6415.33
-6415.39
-6415.49
-6415.62
-6415.8
-6416.01
-6416.26
-6416.53
-6416.84
-6417.17
-6417.51
-6417.87
-6418.24
-6418.61
-6418.97
-6419.32
-6419.65
-6419.96
-6420.23
-6420.46
-6420.64
-6420.78
-6420.85
-6420.88
-6420.84
-6420.74
-6420.58
-6420.36
-6420.1
-6419.78
-6419.43
-6419.04
-6418.63
-6418.22
-6417.8
-6417.41
-6417.04
-6416.71
-6416.43
-6416.22
-6416.08
-6416.02
-6416.04
-6416.15
-6416.34
-6416.6
-6416.94
-6417.33
-6417.76
-6418.22
-6418.69
-6419.14
-6419.55
-6419.92
-6420.21
-6420.41
-6420.51
-6420.51
-6420.39
-6420.18
-6419.87
-6419.48
-6419.03
-6418.55
-6418.06
-6417.6
-6417.18
-6416.84
-6416.6
-6416.47
-6416.47
-6416.59
-6416.83
-6417.18
-6417.6
-6418.06
-6418.55
-6419
-6419.39
-6419.69
-6419.88
-6419.93
-6419.85
-6419.64
-6419.32
-6418.93
-6418.49
-6418.06
-6417.68
-6417.38
-6417.2
-6417.15
-6417.24
-6417.46
-6417.77
-6418.14
-6418.53
-6418.88
-6419.14
-6419.29
-6419.31
-6419.19
-6418.95
-6418.63
-6418.27
-6417.93
-6417.65
-6417.47
-6417.42
-6417.49
-6417.69
-6417.96
-6418.29
-6418.59
-6418.82
-6418.95
-6418.98
-6418.9
-6418.74
-6418.54
-6418.34
-6418.18
-6418.09
-6418.07
-6418.12
-6418.26
-6418.39
-6418.52
-6418.63
-6418.69
-6917.15
-6917.07
-6916.92
-6916.69
-6916.38
-6915.99
-6915.51
-6914.96
-6914.43
-6913.89
-6913.36
-6912.84
-6912.36
-6911.94
-6911.58
-6911.28
-6911.06
-6910.91
-6910.85
-6910.87
-6910.97
-6911.15
-6911.43
-6911.79
-6912.23
-6912.74
-6913.31
-6913.9
-6914.49
-6915.01
-6915.49
-6915.92
-6916.28
-6916.57
-6916.82
-6917.02
-6917.17
-6917.28
-6917.35
-6917.38
-6917.37
-6917.33
-6917.24
-6917.13
-6916.98
-6916.8
-6916.6
-6916.36
-6916.11
-6915.83
-6915.53
-6915.22
-6914.89
-6914.55
-6914.2
-6913.85
-6913.5
-6913.15
-6912.8
-6912.47
-6912.16
-6911.86
-6911.58
-6911.34
-6911.12
-6910.93
-6910.79
-6910.68
-6910.62
-6910.6
-6910.63
-6910.7
-6910.83
-6911
-6911.21
-6911.47
-6911.78
-6912.12
-6912.49
-6912.89
-6913.32
-6913.76
-6914.21
-6914.66
-6915.1
-6915.53
-6915.93
-6916.3
-6916.63
-6916.9
-6917.13
-6917.29
-6917.38
-6917.4
-6917.35
-6917.22
-6917.02
-6916.76
-6916.42
-6916.03
-6915.6
-6915.12
-6914.62
-6914.11
-6913.6
-6913.11
-6912.66
-6912.26
-6911.92
-6911.66
-6911.5
-6911.42
-6911.45
-6911.58
-6911.82
-6912.15
-6912.56
-6913.04
-6913.58
-6914.14
-6914.71
-6915.26
-6915.77
-6916.21
-6916.57
-6916.81
-6916.93
-6916.92
-6916.78
-6916.51
-6916.13
-6915.65
-6915.1
-6914.51
-6913.91
-6913.34
-6912.83
-6912.42
-6912.13
-6911.98
-6911.99
-6912.15
-6912.45
-6912.87
-6913.39
-6913.96
-6914.55
-6915.1
-6915.58
-6915.94
-6916.16
-6916.21
-6916.1
-6915.84
-6915.44
-6914.96
-6914.43
-6913.9
-6913.44
-6913.08
-6912.86
-6912.81
-6912.93
-6913.2
-6913.59
-6914.05
-6914.53
-6914.95
-6915.27
-6915.45
-6915.47
-6915.32
-6915.02
-6914.63
-6914.19
-6913.77
-6913.44
-6913.22
-6913.16
-6913.26
-6913.5
-6913.84
-6914.24
-6914.59
-6914.86
-6915.02
-6915.04
-6914.93
-6914.74
-6914.48
-6914.24
-6914.06
-6913.95
-6913.93
-6914
-6914.16
-6914.32
-6914.48
-6914.61
-6914.68
-7358.74
-7358.64
-7358.45
-7358.15
-7357.74
-7357.2
-7356.56
-7355.69
-7355
-7353.9
-7352.96
-7352.13
-7351.39
-7350.75
-7350.21
-7349.76
-7349.42
-7349.18
-7349.05
-7349.03
-7349.12
-7349.34
-7349.67
-7350.14
-7350.74
-7351.49
-7352.44
-7353.24
-7354.16
-7354.86
-7355.47
-7355.97
-7356.41
-7356.78
-7357.09
-7357.32
-7357.48
-7357.58
-7357.63
-7357.64
-7357.6
-7357.51
-7357.39
-7357.23
-7357.03
-7356.8
-7356.53
-7356.24
-7355.92
-7355.57
-7355.21
-7354.82
-7354.42
-7354
-7353.58
-7353.15
-7352.73
-7352.3
-7351.89
-7351.49
-7351.11
-7350.75
-7350.42
-7350.13
-7349.87
-7349.65
-7349.47
-7349.35
-7349.27
-7349.25
-7349.29
-7349.38
-7349.53
-7349.73
-7349.99
-7350.31
-7350.67
-7351.08
-7351.52
-7352.01
-7352.51
-7353.04
-7353.58
-7354.12
-7354.65
-7355.15
-7355.63
-7356.07
-7356.46
-7356.79
-7357.05
-7357.24
-7357.35
-7357.37
-7357.3
-7357.15
-7356.91
-7356.58
-7356.18
-7355.71
-7355.18
-7354.61
-7354.01
-7353.39
-7352.79
-7352.2
-7351.66
-7351.18
-7350.78
-7350.47
-7350.27
-7350.19
-7350.22
-7350.39
-7350.67
-7351.07
-7351.56
-7352.14
-7352.79
-7353.46
-7354.15
-7354.81
-7355.42
-7355.94
-7356.36
-7356.65
-7356.79
-7356.77
-7356.6
-7356.27
-7355.81
-7355.23
-7354.57
-7353.87
-7353.15
-7352.47
-7351.87
-7351.38
-7351.04
-7350.87
-7350.88
-7351.07
-7351.44
-7351.95
-7352.57
-7353.26
-7353.96
-7354.62
-7355.18
-7355.61
-7355.86
-7355.92
-7355.78
-7355.46
-7354.98
-7354.4
-7353.76
-7353.13
-7352.58
-7352.16
-7351.91
-7351.85
-7352
-7352.33
-7352.8
-7353.35
-7353.93
-7354.44
-7354.82
-7355.03
-7355.04
-7354.86
-7354.5
-7354.03
-7353.51
-7353.01
-7352.61
-7352.36
-7352.3
-7352.43
-7352.71
-7353.1
-7353.6
-7354.01
-7354.32
-7354.49
-7354.5
-7354.37
-7354.13
-7353.82
-7353.54
-7353.33
-7353.2
-7353.19
-7353.28
-7353.46
-7353.65
-7353.84
-7353.99
-7354.07
-7750.98
-7750.88
-7750.68
-7750.36
-7749.88
-7749.23
-7748.32
-7747.13
-7745.46
-7742.89
-7741.25
-7739.84
-7738.66
-7737.69
-7736.91
-7736.3
-7735.86
-7735.56
-7735.42
-7735.44
-7735.61
-7735.95
-7736.48
-7737.22
-7738.19
-7739.43
-7741.37
-7743.18
-7744.43
-7745.36
-7746.06
-7746.6
-7747
-7747.31
-7747.53
-7747.7
-7747.8
-7747.86
-7747.87
-7747.83
-7747.74
-7747.61
-7747.43
-7747.22
-7746.96
-7746.67
-7746.35
-7745.99
-7745.6
-7745.18
-7744.74
-7744.28
-7743.8
-7743.31
-7742.8
-7742.3
-7741.79
-7741.3
-7740.81
-7740.34
-7739.89
-7739.47
-7739.08
-7738.73
-7738.43
-7738.17
-7737.97
-7737.82
-7737.74
-7737.72
-7737.76
-7737.87
-7738.04
-7738.29
-7738.59
-7738.96
-7739.39
-7739.87
-7740.4
-7740.96
-7741.56
-7742.18
-7742.81
-7743.44
-7744.06
-7744.65
-7745.21
-7745.72
-7746.18
-7746.56
-7746.86
-7747.08
-7747.2
-7747.22
-7747.14
-7746.95
-7746.67
-7746.28
-7745.81
-7745.25
-7744.63
-7743.96
-7743.25
-7742.52
-7741.81
-7741.13
-7740.49
-7739.93
-7739.46
-7739.1
-7738.87
-7738.77
-7738.82
-7739.01
-7739.35
-7739.82
-7740.4
-7741.09
-7741.84
-7742.64
-7743.44
-7744.22
-7744.93
-7745.54
-7746.03
-7746.36
-7746.53
-7746.5
-7746.29
-7745.91
-7745.36
-7744.68
-7743.9
-7743.07
-7742.23
-7741.44
-7740.73
-7740.17
-7739.77
-7739.58
-7739.6
-7739.83
-7740.27
-7740.87
-7741.6
-7742.41
-7743.23
-7744
-7744.66
-7745.15
-7745.44
-7745.5
-7745.33
-7744.94
-7744.38
-7743.69
-7742.94
-7742.2
-7741.56
-7741.07
-7740.78
-7740.73
-7740.91
-7741.31
-7741.86
-7742.5
-7743.2
-7743.79
-7744.23
-7744.47
-7744.48
-7744.26
-7743.84
-7743.29
-7742.68
-7742.1
-7741.63
-7741.35
-7741.28
-7741.43
-7741.77
-7742.22
-7742.82
-7743.28
-7743.63
-7743.82
-7743.83
-7743.67
-7743.38
-7743.01
-7742.69
-7742.44
-7742.31
-7742.3
-7742.41
-7742.61
-7742.84
-7743.06
-7743.23
-7743.32
-8099.06
-8098.99
-8098.86
-8098.65
-8098.38
-8098.11
-8097.71
-8097.52
-8091.41
-8091.67
-8092.13
-8092.46
-8092.81
-8093.11
-8093.36
-8093.55
-8093.67
-8093.74
-8093.75
-8093.71
-8093.63
-8093.49
-8093.31
-8093.08
-8092.81
-8092.49
-8092.14
-8091.75
-8091.32
-8090.86
-8090.37
-8089.85
-8089.31
-8088.75
-8088.18
-8087.6
-8087.02
-8086.43
-8085.86
-8085.29
-8084.75
-8084.23
-8083.75
-8083.3
-8082.9
-8082.55
-8082.26
-8082.02
-8081.86
-8081.76
-8081.74
-8081.79
-8081.92
-8082.12
-8082.4
-8082.76
-8083.19
-8083.68
-8084.24
-8084.84
-8085.5
-8086.18
-8086.89
-8087.62
-8088.35
-8089.06
-8089.74
-8090.38
-8090.97
-8091.49
-8091.93
-8092.28
-8092.52
-8092.66
-8092.68
-8092.58
-8092.36
-8092.02
-8091.58
-8091.03
-8090.38
-8089.67
-8088.89
-8088.08
-8087.23
-8086.41
-8085.62
-8084.89
-8084.24
-8083.7
-8083.29
-8083.02
-8082.91
-8082.97
-8083.2
-8083.59
-8084.13
-8084.81
-8085.61
-8086.48
-8087.4
-8088.32
-8089.22
-8090.04
-8090.74
-8091.3
-8091.68
-8091.86
-8091.83
-8091.58
-8091.13
-8090.5
-8089.71
-8088.81
-8087.85
-8086.89
-8085.98
-8085.17
-8084.52
-8084.07
-8083.85
-8083.88
-8084.16
-8084.67
-8085.37
-8086.22
-8087.15
-8088.09
-8088.97
-8089.73
-8090.29
-8090.61
-8090.67
-8090.47
-8090.01
-8089.36
-8088.56
-8087.69
-8086.85
-8086.11
-8085.55
-8085.23
-8085.18
-8085.4
-8085.86
-8086.5
-8087.24
-8088.05
-8088.72
-8089.22
-8089.5
-8089.5
-8089.25
-8088.76
-8088.12
-8087.42
-8086.76
-8086.23
-8085.91
-8085.84
-8086.02
-8086.41
-8086.93
-8087.61
-8088.13
-8088.53
-8088.74
-8088.74
-8088.54
-8088.22
-8087.78
-8087.42
-8087.14
-8086.99
-8086.99
-8087.11
-8087.35
-8087.61
-8087.85
-8088.05
-8088.15
-8407.99
-8407.97
-8407.91
-8407.83
-8407.73
-8407.65
-8407.5
-8407.5
-8399.48
-8399.51
-8399.73
-8399.86
-8400.01
-8400.14
-8400.25
-8400.32
-8400.37
-8400.36
-8400.32
-8400.23
-8400.09
-8399.9
-8399.66
-8399.38
-8399.05
-8398.68
-8398.26
-8397.8
-8397.31
-8396.78
-8396.21
-8395.62
-8395
-8394.36
-8393.71
-8393.05
-8392.38
-8391.72
-8391.06
-8390.42
-8389.81
-8389.22
-8388.67
-8388.17
-8387.71
-8387.32
-8386.99
-8386.72
-8386.54
-8386.43
-8386.4
-8386.46
-8386.61
-8386.85
-8387.17
-8387.58
-8388.06
-8388.62
-8389.25
-8389.94
-8390.68
-8391.46
-8392.27
-8393.1
-8393.92
-8394.72
-8395.49
-8396.22
-8396.88
-8397.47
-8397.96
-8398.35
-8398.63
-8398.78
-8398.8
-8398.68
-8398.43
-8398.04
-8397.53
-8396.9
-8396.17
-8395.36
-8394.47
-8393.55
-8392.59
-8391.66
-8390.76
-8389.94
-8389.2
-8388.59
-8388.12
-8387.82
-8387.7
-8387.77
-8388.04
-8388.48
-8389.1
-8389.88
-8390.78
-8391.77
-8392.81
-8393.87
-8394.88
-8395.81
-8396.6
-8397.23
-8397.66
-8397.86
-8397.82
-8397.54
-8397.02
-8396.3
-8395.4
-8394.38
-8393.29
-8392.2
-8391.16
-8390.25
-8389.52
-8389.02
-8388.78
-8388.82
-8389.14
-8389.72
-8390.53
-8391.49
-8392.54
-8393.61
-8394.61
-8395.46
-8396.09
-8396.45
-8396.51
-8396.27
-8395.75
-8394.99
-8394.08
-8393.1
-8392.15
-8391.31
-8390.69
-8390.33
-8390.28
-8390.53
-8391.06
-8391.79
-8392.62
-8393.57
-8394.32
-8394.88
-8395.19
-8395.19
-8394.89
-8394.34
-8393.61
-8392.82
-8392.07
-8391.48
-8391.12
-8391.05
-8391.26
-8391.71
-8392.3
-8393.06
-8393.64
-8394.09
-8394.31
-8394.3
-8394.07
-8393.7
-8393.2
-8392.8
-8392.49
-8392.32
-8392.33
-8392.48
-8392.74
-8393.03
-8393.31
-8393.52
-8393.64
-8681.81
-8681.8
-8681.77
-8681.73
-8681.67
-8681.63
-8681.55
-8681.56
-8671.65
-8671.65
-8671.81
-8671.9
-8672.01
-8672.09
-8672.14
-8672.16
-8672.15
-8672.09
-8671.99
-8671.85
-8671.66
-8671.42
-8671.14
-8670.8
-8670.42
-8669.98
-8669.51
-8668.98
-8668.42
-8667.82
-8667.18
-8666.51
-8665.82
-8665.1
-8664.37
-8663.62
-8662.88
-8662.13
-8661.4
-8660.69
-8660
-8659.34
-8658.73
-8658.17
-8657.66
-8657.22
-8656.85
-8656.56
-8656.36
-8656.24
-8656.21
-8656.28
-8656.45
-8656.72
-8657.08
-8657.53
-8658.08
-8658.71
-8659.42
-8660.19
-8661.02
-8661.89
-8662.79
-8663.71
-8664.63
-8665.53
-8666.39
-8667.2
-8667.94
-8668.59
-8669.14
-8669.57
-8669.88
-8670.04
-8670.06
-8669.92
-8669.64
-8669.2
-8668.63
-8667.92
-8667.1
-8666.19
-8665.2
-8664.16
-8663.09
-8662.05
-8661.05
-8660.12
-8659.3
-8658.62
-8658.1
-8657.77
-8657.64
-8657.72
-8658.01
-8658.52
-8659.22
-8660.09
-8661.09
-8662.21
-8663.37
-8664.55
-8665.68
-8666.72
-8667.61
-8668.31
-8668.78
-8669
-8668.95
-8668.63
-8668.05
-8667.23
-8666.23
-8665.08
-8663.87
-8662.64
-8661.49
-8660.48
-8659.67
-8659.11
-8658.85
-8658.9
-8659.27
-8659.92
-8660.82
-8661.9
-8663.08
-8664.28
-8665.39
-8666.33
-8667.03
-8667.42
-8667.48
-8667.2
-8666.61
-8665.77
-8664.75
-8663.65
-8662.58
-8661.65
-8660.96
-8660.57
-8660.52
-8660.81
-8661.41
-8662.23
-8663.16
-8664.23
-8665.05
-8665.68
-8666.02
-8666.02
-8665.68
-8665.05
-8664.24
-8663.35
-8662.52
-8661.87
-8661.47
-8661.4
-8661.64
-8662.15
-8662.82
-8663.64
-8664.29
-8664.78
-8665.03
-8665
-8664.74
-8664.32
-8663.77
-8663.32
-8662.97
-8662.8
-8662.81
-8662.98
-8663.27
-8663.6
-8663.9
-8664.13
-8664.26
-8924.44
-8924.43
-8924.42
-8924.39
-8924.37
-8924.35
-8924.3
-8924.32
-8912.89
-8912.86
-8912.94
-8912.98
-8913.02
-8913.05
-8913.06
-8913.03
-8912.97
-8912.87
-8912.73
-8912.55
-8912.31
-8912.03
-8911.69
-8911.31
-8910.87
-8910.38
-8909.84
-8909.26
-8908.63
-8907.96
-8907.25
-8906.51
-8905.74
-8904.95
-8904.14
-8903.31
-8902.49
-8901.67
-8900.86
-8900.07
-8899.31
-8898.59
-8897.91
-8897.29
-8896.74
-8896.25
-8895.85
-8895.53
-8895.31
-8895.18
-8895.15
-8895.23
-8895.42
-8895.72
-8896.12
-8896.62
-8897.23
-8897.92
-8898.7
-8899.56
-8900.47
-8901.44
-8902.43
-8903.45
-8904.46
-8905.45
-8906.4
-8907.29
-8908.1
-8908.82
-8909.42
-8909.9
-8910.23
-8910.41
-8910.42
-8910.27
-8909.95
-8909.47
-8908.83
-8908.05
-8907.14
-8906.13
-8905.03
-8903.89
-8902.71
-8901.56
-8900.45
-8899.43
-8898.53
-8897.78
-8897.21
-8896.84
-8896.7
-8896.79
-8897.12
-8897.68
-8898.45
-8899.42
-8900.53
-8901.76
-8903.05
-8904.35
-8905.6
-8906.74
-8907.73
-8908.5
-8909.02
-8909.25
-8909.19
-8908.83
-8908.18
-8907.28
-8906.16
-8904.9
-8903.56
-8902.21
-8900.94
-8899.82
-8898.93
-8898.32
-8898.04
-8898.11
-8898.52
-8899.25
-8900.25
-8901.44
-8902.74
-8904.06
-8905.28
-8906.31
-8907.08
-8907.51
-8907.57
-8907.25
-8906.59
-8905.65
-8904.52
-8903.31
-8902.13
-8901.12
-8900.36
-8899.93
-8899.88
-8900.22
-8900.88
-8901.8
-8902.83
-8903.99
-8904.9
-8905.59
-8905.96
-8905.95
-8905.57
-8904.88
-8903.99
-8903.01
-8902.1
-8901.37
-8900.95
-8900.88
-8901.15
-8901.72
-8902.46
-8903.34
-8904.06
-8904.6
-8904.86
-8904.82
-8904.52
-8904.05
-8903.46
-8902.96
-8902.58
-8902.4
-8902.42
-8902.61
-8902.93
-8903.28
-8903.61
-8903.87
-8904
-9139.41
-9139.4
-9139.39
-9139.38
-9139.36
-9139.35
-9139.33
-9139.34
-9126.54
-9126.49
-9126.55
-9126.55
-9126.56
-9126.55
-9126.52
-9126.46
-9126.37
-9126.23
-9126.05
-9125.83
-9125.55
-9125.23
-9124.85
-9124.42
-9123.93
-9123.39
-9122.8
-9122.15
-9121.46
-9120.73
-9119.95
-9119.14
-9118.29
-9117.43
-9116.54
-9115.64
-9114.74
-9113.84
-9112.96
-9112.1
-9111.27
-9110.49
-9109.75
-9109.08
-9108.47
-9107.95
-9107.51
-9107.16
-9106.92
-9106.78
-9106.76
-9106.85
-9107.05
-9107.38
-9107.82
-9108.37
-9109.03
-9109.8
-9110.65
-9111.58
-9112.58
-9113.63
-9114.72
-9115.83
-9116.93
-9118.01
-9119.04
-9120.02
-9120.9
-9121.68
-9122.34
-9122.85
-9123.21
-9123.4
-9123.41
-9123.24
-9122.89
-9122.36
-9121.66
-9120.81
-9119.81
-9118.7
-9117.51
-9116.26
-9114.97
-9113.71
-9112.51
-9111.39
-9110.41
-9109.59
-9108.97
-9108.57
-9108.42
-9108.52
-9108.89
-9109.5
-9110.35
-9111.4
-9112.63
-9113.97
-9115.38
-9116.8
-9118.16
-9119.41
-9120.48
-9121.32
-9121.88
-9122.13
-9122.06
-9121.66
-9120.95
-9119.96
-9118.74
-9117.36
-9115.89
-9114.42
-9113.04
-9111.82
-9110.85
-9110.2
-9109.89
-9109.97
-9110.43
-9111.23
-9112.32
-9113.63
-9115.05
-9116.48
-9117.81
-9118.94
-9119.77
-9120.23
-9120.28
-9119.93
-9119.21
-9118.17
-9116.94
-9115.61
-9114.33
-9113.23
-9112.4
-9111.95
-9111.9
-9112.27
-9113.01
-9114.01
-9115.15
-9116.39
-9117.39
-9118.15
-9118.54
-9118.53
-9118.11
-9117.35
-9116.37
-9115.31
-9114.31
-9113.53
-9113.08
-9113
-9113.31
-9113.93
-9114.75
-9115.69
-9116.48
-9117.05
-9117.33
-9117.28
-9116.94
-9116.42
-9115.79
-9115.24
-9114.84
-9114.64
-9114.67
-9114.88
-9115.23
-9115.61
-9115.97
-9116.24
-9116.39
-9329.85
-9329.85
-9329.84
-9329.83
-9329.82
-9329.82
-9329.8
-9329.81
-9315.79
-9315.74
-9315.77
-9315.76
-9315.74
-9315.71
-9315.65
-9315.56
-9315.44
-9315.28
-9315.07
-9314.81
-9314.5
-9314.14
-9313.72
-9313.25
-9312.71
-9312.12
-9311.48
-9310.78
-9310.03
-9309.23
-9308.39
-9307.51
-9306.6
-9305.66
-9304.7
-9303.73
-9302.76
-9301.79
-9300.83
-9299.91
-9299.01
-9298.16
-9297.37
-9296.65
-9295.99
-9295.43
-9294.96
-9294.58
-9294.32
-9294.18
-9294.15
-9294.25
-9294.48
-9294.83
-9295.31
-9295.91
-9296.63
-9297.45
-9298.38
-9299.39
-9300.47
-9301.6
-9302.78
-9303.97
-9305.16
-9306.33
-9307.45
-9308.49
-9309.45
-9310.29
-9311
-9311.55
-9311.93
-9312.13
-9312.14
-9311.96
-9311.57
-9311
-9310.24
-9309.31
-9308.24
-9307.04
-9305.74
-9304.39
-9303
-9301.64
-9300.34
-9299.13
-9298.07
-9297.19
-9296.52
-9296.09
-9295.93
-9296.04
-9296.44
-9297.11
-9298.03
-9299.17
-9300.49
-9301.95
-9303.48
-9305.01
-9306.48
-9307.83
-9308.98
-9309.88
-9310.48
-9310.76
-9310.67
-9310.23
-9309.46
-9308.39
-9307.07
-9305.57
-9303.98
-9302.4
-9300.9
-9299.59
-9298.55
-9297.85
-9297.53
-9297.62
-9298.12
-9298.99
-9300.18
-9301.59
-9303.13
-9304.67
-9306.11
-9307.32
-9308.21
-9308.7
-9308.75
-9308.36
-9307.57
-9306.45
-9305.11
-9303.68
-9302.3
-9301.11
-9300.22
-9299.74
-9299.7
-9300.11
-9300.91
-9302
-9303.23
-9304.55
-9305.64
-9306.46
-9306.88
-9306.86
-9306.4
-9305.58
-9304.52
-9303.37
-9302.3
-9301.46
-9300.97
-9300.9
-9301.24
-9301.92
-9302.81
-9303.81
-9304.65
-9305.27
-9305.56
-9305.49
-9305.13
-9304.55
-9303.88
-9303.29
-9302.86
-9302.65
-9302.69
-9302.92
-9303.29
-9303.7
-9304.09
-9304.38
-9304.53
-9498.56
-9498.56
-9498.55
-9498.55
-9498.54
-9498.54
-9498.53
-9498.53
-9483.44
-9483.38
-9483.41
-9483.38
-9483.35
-9483.3
-9483.22
-9483.11
-9482.97
-9482.78
-9482.55
-9482.26