/*--------------------------------*- C++ -*----------------------------------*\
  =========                 |
  \\      /  F ield         | OpenFOAM: The Open Source CFD Toolbox
   \\    /   O peration     | Website:  https://openfoam.org
    \\  /    A nd           | Version:  12
     \\/     M anipulation  |
\*---------------------------------------------------------------------------*/
FoamFile
{
    format      ascii;
    class       volVectorField;
    location    "7.64";
    object      U;
}
// * * * * * * * * * * * * * * * * * * * * * * * * * * * * * * * * * * * * * //

dimensions      [0 1 -1 0 0 0 0];

internalField   nonuniform List<vector> 
3829
(
(1.39511e-06 -8.43014e-05 0)
(4.06704e-06 -8.55492e-05 0)
(6.89996e-06 -8.56933e-05 0)
(9.83429e-06 -8.58864e-05 0)
(1.29501e-05 -8.61369e-05 0)
(1.6301e-05 -8.64289e-05 0)
(1.98979e-05 -8.67504e-05 0)
(2.37697e-05 -8.70942e-05 0)
(2.79742e-05 -8.74216e-05 0)
(3.24945e-05 -8.77186e-05 0)
(3.74106e-05 -8.79539e-05 0)
(4.27143e-05 -8.8112e-05 0)
(4.83769e-05 -8.81369e-05 0)
(5.43736e-05 -8.80175e-05 0)
(6.07057e-05 -8.76945e-05 0)
(6.73676e-05 -8.71532e-05 0)
(7.42684e-05 -8.63504e-05 0)
(8.13646e-05 -8.52614e-05 0)
(8.85983e-05 -8.38476e-05 0)
(9.59011e-05 -8.20864e-05 0)
(0.000103179 -7.99563e-05 0)
(0.000110337 -7.74372e-05 0)
(0.000117281 -7.45236e-05 0)
(0.000123911 -7.12097e-05 0)
(0.000130072 -6.75039e-05 0)
(0.000135694 -6.34099e-05 0)
(0.000140713 -5.89516e-05 0)
(0.000144973 -5.41637e-05 0)
(0.000148352 -4.90711e-05 0)
(0.000150752 -4.3719e-05 0)
(0.000151996 -3.81463e-05 0)
(0.000152153 -3.23699e-05 0)
(0.000151278 -2.64924e-05 0)
(0.000149177 -2.06533e-05 0)
(0.000145837 -1.48961e-05 0)
(0.000141246 -9.3311e-06 0)
(0.000135332 -3.99254e-06 0)
(0.000128181 1.08427e-06 0)
(0.000119846 5.84919e-06 0)
(0.0001104 1.02752e-05 0)
(9.98747e-05 1.43168e-05 0)
(8.83725e-05 1.79401e-05 0)
(7.60482e-05 2.11096e-05 0)
(6.30005e-05 2.38052e-05 0)
(4.94098e-05 2.59884e-05 0)
(3.54066e-05 2.76489e-05 0)
(2.11629e-05 2.87737e-05 0)
(6.84423e-06 2.93562e-05 0)
(-7.36583e-06 2.93974e-05 0)
(-2.12849e-05 2.89067e-05 0)
(-3.47512e-05 2.78918e-05 0)
(-4.75272e-05 2.63922e-05 0)
(-5.95442e-05 2.44077e-05 0)
(-7.04983e-05 2.20145e-05 0)
(-8.02801e-05 1.91897e-05 0)
(-8.87275e-05 1.6033e-05 0)
(-9.57863e-05 1.25571e-05 0)
(-0.000101216 8.8602e-06 0)
(-0.000104944 4.91536e-06 0)
(-0.000107007 8.54146e-07 0)
(-0.000106951 -3.26275e-06 0)
(-0.000104854 -7.39613e-06 0)
(-0.000100701 -1.15133e-05 0)
(-9.46715e-05 -1.55277e-05 0)
(-8.67953e-05 -1.94067e-05 0)
(-7.72515e-05 -2.30779e-05 0)
(-6.58874e-05 -2.6411e-05 0)
(-5.30147e-05 -2.947e-05 0)
(-3.8727e-05 -3.20691e-05 0)
(-2.33044e-05 -3.42755e-05 0)
(-6.82374e-06 -3.59185e-05 0)
(1.07618e-05 -3.70884e-05 0)
(2.89419e-05 -3.76393e-05 0)
(4.7345e-05 -3.7662e-05 0)
(6.57094e-05 -3.70361e-05 0)
(8.37135e-05 -3.58573e-05 0)
(0.0001012 -3.40402e-05 0)
(0.000117845 -3.16965e-05 0)
(0.000133153 -2.87961e-05 0)
(0.000147031 -2.53938e-05 0)
(0.000159053 -2.15278e-05 0)
(0.000169238 -1.72748e-05 0)
(0.000176979 -1.27322e-05 0)
(0.000182237 -7.89999e-06 0)
(0.000185003 -2.9353e-06 0)
(0.000184829 2.11558e-06 0)
(0.000181623 7.10884e-06 0)
(0.000175415 1.19816e-05 0)
(0.000166484 1.66292e-05 0)
(0.000154857 2.09348e-05 0)
(0.000140653 2.48461e-05 0)
(0.000124229 2.82521e-05 0)
(0.000105833 3.10663e-05 0)
(8.57958e-05 3.32205e-05 0)
(6.4499e-05 3.46493e-05 0)
(4.23724e-05 3.53208e-05 0)
(1.99038e-05 3.52058e-05 0)
(-2.39264e-06 3.43055e-05 0)
(-2.40162e-05 3.26241e-05 0)
(-4.44486e-05 3.02067e-05 0)
(-6.3239e-05 2.71022e-05 0)
(-7.99477e-05 2.33916e-05 0)
(-9.40119e-05 1.9181e-05 0)
(-0.000105214 1.45439e-05 0)
(-0.000113273 9.66381e-06 0)
(-0.000117897 4.64047e-06 0)
(-0.000118912 -3.53682e-07 0)
(-0.000116276 -5.18867e-06 0)
(-0.000110208 -9.72018e-06 0)
(-0.000100936 -1.38134e-05 0)
(-8.88067e-05 -1.73431e-05 0)
(-7.42411e-05 -2.0188e-05 0)
(-5.77064e-05 -2.22546e-05 0)
(-3.98256e-05 -2.34952e-05 0)
(-2.12266e-05 -2.3861e-05 0)
(-2.53806e-06 -2.33524e-05 0)
(1.54896e-05 -2.1997e-05 0)
(3.22302e-05 -1.98722e-05 0)
(4.70513e-05 -1.70673e-05 0)
(5.94329e-05 -1.37137e-05 0)
(6.8917e-05 -9.9466e-06 0)
(7.52149e-05 -5.94897e-06 0)
(7.81579e-05 -1.91049e-06 0)
(7.75657e-05 1.99669e-06 0)
(7.36058e-05 5.59371e-06 0)
(6.66524e-05 8.72657e-06 0)
(5.71957e-05 1.12582e-05 0)
(4.57555e-05 1.30532e-05 0)
(3.29941e-05 1.40701e-05 0)
(1.96552e-05 1.4239e-05 0)
(6.48405e-06 1.36178e-05 0)
(-5.76505e-06 1.22198e-05 0)
(-1.64128e-05 1.01966e-05 0)
(-2.48722e-05 7.64317e-06 0)
(-3.07179e-05 4.77956e-06 0)
(-3.36713e-05 1.74909e-06 0)
(-3.35486e-05 -1.18929e-06 0)
(-3.04527e-05 -3.90085e-06 0)
(-2.48294e-05 -6.18179e-06 0)
(-1.71124e-05 -7.89662e-06 0)
(-7.93261e-06 -8.92293e-06 0)
(2.08434e-06 -9.22726e-06 0)
(1.20319e-05 -8.78151e-06 0)
(2.10128e-05 -7.65399e-06 0)
(2.84644e-05 -5.94701e-06 0)
(3.3804e-05 -3.79529e-06 0)
(3.6581e-05 -1.39719e-06 0)
(3.65063e-05 1.08279e-06 0)
(3.35648e-05 3.42982e-06 0)
(2.80138e-05 5.49403e-06 0)
(2.03262e-05 7.11622e-06 0)
(1.10648e-05 8.16232e-06 0)
(6.84857e-07 8.59127e-06 0)
(-9.85547e-06 8.38537e-06 0)
(-1.96416e-05 7.56339e-06 0)
(-2.81522e-05 6.24799e-06 0)
(-3.47872e-05 4.52057e-06 0)
(-3.91121e-05 2.58429e-06 0)
(-4.09012e-05 5.35102e-07 0)
(-4.00796e-05 -1.39484e-06 0)
(-3.68165e-05 -3.12317e-06 0)
(-3.14826e-05 -4.48988e-06 0)
(-2.4569e-05 -5.44156e-06 0)
(-1.67127e-05 -5.91315e-06 0)
(-8.51082e-06 -5.87691e-06 0)
(-6.24001e-07 -5.39762e-06 0)
(6.31002e-06 -4.51253e-06 0)
(1.18128e-05 -3.33315e-06 0)
(1.55051e-05 -1.95714e-06 0)
(1.71784e-05 -4.9831e-07 0)
(1.67441e-05 9.0177e-07 0)
(1.42952e-05 2.169e-06 0)
(1.01303e-05 3.20572e-06 0)
(4.56516e-06 3.93932e-06 0)
(-2.03716e-06 4.33569e-06 0)
(-8.99904e-06 4.37643e-06 0)
(-1.56586e-05 4.08029e-06 0)
(-2.16458e-05 3.47123e-06 0)
(-2.65039e-05 2.61784e-06 0)
(-2.98602e-05 1.57741e-06 0)
(-3.14604e-05 4.35682e-07 0)
(-3.11358e-05 -7.21845e-07 0)
(-2.88824e-05 -1.83328e-06 0)
(-2.48348e-05 -2.81614e-06 0)
(-1.92167e-05 -3.61993e-06 0)
(-1.23902e-05 -4.18891e-06 0)
(-4.75101e-06 -4.50299e-06 0)
(3.37113e-06 -4.53829e-06 0)
(1.14011e-05 -4.31152e-06 0)
(1.87919e-05 -3.82341e-06 0)
(2.51628e-05 -3.13172e-06 0)
(3.01349e-05 -2.24823e-06 0)
(3.3406e-05 -1.25766e-06 0)
(3.4747e-05 -1.97498e-07 0)
(3.40595e-05 8.68306e-07 0)
(3.13542e-05 1.87492e-06 0)
(2.67449e-05 2.7642e-06 0)
(2.0471e-05 3.49387e-06 0)
(1.28813e-05 4.00841e-06 0)
(4.40029e-06 4.27766e-06 0)
(6.91053e-07 2.85381e-05 0)
(2.23268e-06 2.92776e-05 0)
(3.93488e-06 2.80061e-05 0)
(5.85125e-06 2.60855e-05 0)
(8.132e-06 2.35278e-05 0)
(1.09125e-05 2.03463e-05 0)
(1.41184e-05 1.65951e-05 0)
(1.79989e-05 1.23513e-05 0)
(2.26598e-05 7.71441e-06 0)
(2.80039e-05 2.77562e-06 0)
(3.41104e-05 -2.34327e-06 0)
(4.1159e-05 -7.50736e-06 0)
(4.90705e-05 -1.26034e-05 0)
(5.78225e-05 -1.74921e-05 0)
(6.74307e-05 -2.20238e-05 0)
(7.77439e-05 -2.60912e-05 0)
(8.87335e-05 -2.95418e-05 0)
(0.000100305 -3.22721e-05 0)
(0.000112369 -3.41713e-05 0)
(0.000124717 -3.5125e-05 0)
(0.000137228 -3.50443e-05 0)
(0.00014968 -3.38708e-05 0)
(0.000161874 -3.15658e-05 0)
(0.000173609 -2.80883e-05 0)
(0.000184667 -2.34814e-05 0)
(0.000194878 -1.77412e-05 0)
(0.000203972 -1.09368e-05 0)
(0.000211802 -3.15063e-06 0)
(0.00021819 5.53441e-06 0)
(0.000222967 1.49636e-05 0)
(0.000226156 2.49924e-05 0)
(0.000227434 3.53834e-05 0)
(0.000226101 4.60243e-05 0)
(0.000222383 5.67936e-05 0)
(0.000216492 6.75479e-05 0)
(0.000208503 7.8175e-05 0)
(0.000198835 8.8402e-05 0)
(0.000187491 9.8059e-05 0)
(0.000174593 0.000107041 0)
(0.000160255 0.0001151 0)
(0.000144482 0.000122101 0)
(0.000127447 0.000127951 0)
(0.000109397 0.000132536 0)
(9.04203e-05 0.000135777 0)
(7.07608e-05 0.000137604 0)
(5.06978e-05 0.000137982 0)
(3.04238e-05 0.000136867 0)
(1.01811e-05 0.000134284 0)
(-9.76309e-06 0.000130225 0)
(-2.91948e-05 0.000124737 0)
(-4.78039e-05 0.000117862 0)
(-6.53997e-05 0.00010968 0)
(-8.17422e-05 0.000100256 0)
(-9.66481e-05 8.969e-05 0)
(-0.000109911 7.81309e-05 0)
(-0.000121205 6.57363e-05 0)
(-0.000130508 5.25153e-05 0)
(-0.00013778 3.88406e-05 0)
(-0.000142813 2.46489e-05 0)
(-0.000145243 1.03267e-05 0)
(-0.000145079 -4.11806e-06 0)
(-0.000142544 -1.83604e-05 0)
(-0.000137423 -3.23668e-05 0)
(-0.000129911 -4.58604e-05 0)
(-0.000120117 -5.8701e-05 0)
(-0.000107811 -7.07135e-05 0)
(-9.34515e-05 -8.16851e-05 0)
(-7.71374e-05 -9.14985e-05 0)
(-5.89814e-05 -9.99176e-05 0)
(-3.93503e-05 -0.000106888 0)
(-1.84162e-05 -0.000112166 0)
(3.74219e-06 -0.000115756 0)
(2.66188e-05 -0.000117528 0)
(4.97236e-05 -0.000117461 0)
(7.27839e-05 -0.000115511 0)
(9.53326e-05 -0.000111647 0)
(0.000117159 -0.000105945 0)
(0.00013773 -9.84745e-05 0)
(0.000156783 -8.92697e-05 0)
(0.000173972 -7.85444e-05 0)
(0.000188802 -6.63798e-05 0)
(0.000201097 -5.30303e-05 0)
(0.000210548 -3.87189e-05 0)
(0.000216918 -2.36371e-05 0)
(0.000220049 -8.12395e-06 0)
(0.00021957 7.56152e-06 0)
(0.000215359 2.31176e-05 0)
(0.000207597 3.82252e-05 0)
(0.000196402 5.2635e-05 0)
(0.000181999 6.59787e-05 0)
(0.000164546 7.80188e-05 0)
(0.000144309 8.84476e-05 0)
(0.00012169 9.70134e-05 0)
(9.7102e-05 0.000103504 0)
(7.10539e-05 0.000107736 0)
(4.40958e-05 0.000109598 0)
(1.68193e-05 0.000109022 0)
(-1.01581e-05 0.000105999 0)
(-3.62072e-05 0.000100575 0)
(-6.0687e-05 9.28551e-05 0)
(-8.3053e-05 8.3024e-05 0)
(-0.000102715 7.13541e-05 0)
(-0.000119152 5.81163e-05 0)
(-0.000131947 4.36673e-05 0)
(-0.000140771 2.84287e-05 0)
(-0.000145396 1.28231e-05 0)
(-0.000145585 -2.68882e-06 0)
(-0.000141403 -1.76432e-05 0)
(-0.000133081 -3.16308e-05 0)
(-0.000120921 -4.42063e-05 0)
(-0.00010533 -5.49805e-05 0)
(-8.68293e-05 -6.36012e-05 0)
(-6.60895e-05 -6.97825e-05 0)
(-4.38574e-05 -7.3357e-05 0)
(-2.08857e-05 -7.42014e-05 0)
(2.00702e-06 -7.23614e-05 0)
(2.38888e-05 -6.78974e-05 0)
(4.39973e-05 -6.10438e-05 0)
(6.15869e-05 -5.20971e-05 0)
(7.60481e-05 -4.14646e-05 0)
(8.6829e-05 -2.96284e-05 0)
(9.3543e-05 -1.71161e-05 0)
(9.60732e-05 -4.47926e-06 0)
(9.42921e-05 7.62379e-06 0)
(8.8436e-05 1.87493e-05 0)
(7.89939e-05 2.83665e-05 0)
(6.65164e-05 3.606e-05 0)
(5.17462e-05 4.14503e-05 0)
(3.54965e-05 4.43616e-05 0)
(1.87223e-05 4.46524e-05 0)
(2.34108e-06 4.24603e-05 0)
(-1.27104e-05 3.78779e-05 0)
(-2.55994e-05 3.13514e-05 0)
(-3.56237e-05 2.324e-05 0)
(-4.22826e-05 1.41608e-05 0)
(-4.52507e-05 4.68023e-06 0)
(-4.4385e-05 -4.55478e-06 0)
(-3.99203e-05 -1.29463e-05 0)
(-3.23215e-05 -2.0003e-05 0)
(-2.21961e-05 -2.52077e-05 0)
(-1.03759e-05 -2.83047e-05 0)
(2.33279e-06 -2.90735e-05 0)
(1.48393e-05 -2.75428e-05 0)
(2.60193e-05 -2.38836e-05 0)
(3.52049e-05 -1.84488e-05 0)
(4.16625e-05 -1.16769e-05 0)
(4.49112e-05 -4.1368e-06 0)
(4.46566e-05 3.56301e-06 0)
(4.09287e-05 1.08501e-05 0)
(3.40987e-05 1.7187e-05 0)
(2.46821e-05 2.21056e-05 0)
(1.34475e-05 2.52509e-05 0)
(1.0454e-06 2.64458e-05 0)
(-1.14693e-05 2.5682e-05 0)
(-2.29652e-05 2.30557e-05 0)
(-3.28318e-05 1.89043e-05 0)
(-4.03589e-05 1.35699e-05 0)
(-4.5104e-05 7.55407e-06 0)
(-4.68167e-05 1.30691e-06 0)
(-4.5456e-05 -4.58672e-06 0)
(-4.1314e-05 -9.81588e-06 0)
(-3.48136e-05 -1.3924e-05 0)
(-2.65917e-05 -1.67258e-05 0)
(-1.73264e-05 -1.80325e-05 0)
(-7.79829e-06 -1.78546e-05 0)
(1.24408e-06 -1.62916e-05 0)
(9.10594e-06 -1.35546e-05 0)
(1.52348e-05 -9.91572e-06 0)
(1.92584e-05 -5.72697e-06 0)
(2.09208e-05 -1.33734e-06 0)
(2.01957e-05 2.89319e-06 0)
(1.72429e-05 6.68628e-06 0)
(1.23698e-05 9.76615e-06 0)
(5.97867e-06 1.19233e-05 0)
(-1.49581e-06 1.30749e-05 0)
(-9.30976e-06 1.31526e-05 0)
(-1.67503e-05 1.22162e-05 0)
(-2.33902e-05 1.03689e-05 0)
(-2.87374e-05 7.78918e-06 0)
(-3.24047e-05 4.67233e-06 0)
(-3.41108e-05 1.27046e-06 0)
(-3.37216e-05 -2.18421e-06 0)
(-3.12421e-05 -5.47382e-06 0)
(-2.6825e-05 -8.38425e-06 0)
(-2.07288e-05 -1.07426e-05 0)
(-1.33522e-05 -1.24134e-05 0)
(-5.12819e-06 -1.33146e-05 0)
(3.5733e-06 -1.34055e-05 0)
(1.21509e-05 -1.27037e-05 0)
(2.00163e-05 -1.12664e-05 0)
(2.67791e-05 -9.1973e-06 0)
(3.20363e-05 -6.60978e-06 0)
(3.54629e-05 -3.67561e-06 0)
(3.68552e-05 -5.56239e-07 0)
(3.60913e-05 2.572e-06 0)
(3.31919e-05 5.52716e-06 0)
(2.82964e-05 8.14676e-06 0)
(2.16501e-05 1.02771e-05 0)
(1.3616e-05 1.17851e-05 0)
(4.65073e-06 1.25746e-05 0)
(-3.84174e-06 -0.000103041 0)
(-1.1533e-05 -0.000106458 0)
(-1.89839e-05 -0.000109943 0)
(-2.59876e-05 -0.00011511 0)
(-3.24101e-05 -0.000121903 0)
(-3.78263e-05 -0.00013018 0)
(-4.17686e-05 -0.000139804 0)
(-4.38773e-05 -0.000150588 0)
(-4.40315e-05 -0.000162373 0)
(-4.2148e-05 -0.000174833 0)
(-3.78864e-05 -0.0001876 0)
(-3.1359e-05 -0.000200316 0)
(-2.26301e-05 -0.000212632 0)
(-1.15318e-05 -0.000224156 0)
(1.64859e-06 -0.000234527 0)
(1.68485e-05 -0.000243396 0)
(3.38997e-05 -0.000250401 0)
(5.24153e-05 -0.000255219 0)
(7.23615e-05 -0.000257536 0)
(9.34622e-05 -0.000257077 0)
(0.000115214 -0.000253681 0)
(0.00013716 -0.000247207 0)
(0.000159065 -0.000237594 0)
(0.000180297 -0.000224816 0)
(0.000200466 -0.000208958 0)
(0.000219345 -0.000190194 0)
(0.000236348 -0.000168694 0)
(0.000251267 -0.0001448 0)
(0.000263589 -0.00011891 0)
(0.000272896 -9.13982e-05 0)
(0.000278627 -6.26187e-05 0)
(0.000281061 -3.31079e-05 0)
(0.000280896 -3.19898e-06 0)
(0.000277865 2.64355e-05 0)
(0.000272077 5.53291e-05 0)
(0.000262883 8.32562e-05 0)
(0.00025002 0.00010972 0)
(0.000234537 0.00013445 0)
(0.00021612 0.000157147 0)
(0.000194759 0.000177444 0)
(0.000171349 0.000195144 0)
(0.000146135 0.000210071 0)
(0.000119391 0.000222058 0)
(9.14739e-05 0.000230999 0)
(6.27977e-05 0.000236841 0)
(3.36505e-05 0.00023955 0)
(4.50825e-06 0.000239127 0)
(-2.42905e-05 0.000235636 0)
(-5.2464e-05 0.000229149 0)
(-7.9595e-05 0.000219812 0)
(-0.00010537 0.000207743 0)
(-0.000129483 0.000193119 0)
(-0.000151786 0.000176127 0)
(-0.000171645 0.000157008 0)
(-0.000188723 0.000136027 0)
(-0.000203495 0.000113391 0)
(-0.00021504 8.94413e-05 0)
(-0.00022347 6.44614e-05 0)
(-0.000228713 3.88057e-05 0)
(-0.000230484 1.2751e-05 0)
(-0.000228723 -1.3278e-05 0)
(-0.000223455 -3.90695e-05 0)
(-0.000214893 -6.42695e-05 0)
(-0.000202831 -8.85762e-05 0)
(-0.000187757 -0.00011157 0)
(-0.000169562 -0.000132972 0)
(-0.000148433 -0.000152441 0)
(-0.000124623 -0.000169684 0)
(-9.85008e-05 -0.000184415 0)
(-7.03616e-05 -0.000196393 0)
(-4.05271e-05 -0.000205408 0)
(-9.41401e-06 -0.000211272 0)
(2.25522e-05 -0.000213914 0)
(5.46694e-05 -0.000213209 0)
(8.67012e-05 -0.000209123 0)
(0.000117904 -0.000201668 0)
(0.000147774 -0.000190863 0)
(0.000176124 -0.00017692 0)
(0.000202041 -0.000159955 0)
(0.000225262 -0.00014023 0)
(0.000245261 -0.000118081 0)
(0.000261629 -9.38053e-05 0)
(0.000274049 -6.78493e-05 0)
(0.000282139 -4.06433e-05 0)
(0.000285714 -1.26819e-05 0)
(0.000284522 1.54587e-05 0)
(0.000278362 4.32834e-05 0)
(0.000267483 7.02833e-05 0)
(0.00025206 9.59066e-05 0)
(0.000232238 0.000119608 0)
(0.00020838 0.00014083 0)
(0.000180846 0.000159103 0)
(0.000150218 0.000173969 0)
(0.000117067 0.000185078 0)
(8.21032e-05 0.000192131 0)
(4.61074e-05 0.00019492 0)
(9.86953e-06 0.000193312 0)
(-2.5783e-05 0.00018732 0)
(-6.00358e-05 0.000177071 0)
(-9.20175e-05 0.000162773 0)
(-0.000120873 0.000144766 0)
(-0.000145961 0.000123525 0)
(-0.000166568 9.95822e-05 0)
(-0.000182132 7.35707e-05 0)
(-0.000192277 4.62373e-05 0)
(-0.000196704 1.83518e-05 0)
(-0.000195196 -9.26588e-06 0)
(-0.000187923 -3.58211e-05 0)
(-0.000175225 -6.04966e-05 0)
(-0.000157449 -8.25338e-05 0)
(-0.000135229 -0.000101228 0)
(-0.000109288 -0.000115977 0)
(-8.05735e-05 -0.000126334 0)
(-5.01171e-05 -0.00013197 0)
(-1.90424e-05 -0.000132733 0)
(1.1598e-05 -0.000128647 0)
(4.06439e-05 -0.000119947 0)
(6.69823e-05 -0.000107027 0)
(8.96467e-05 -9.04675e-05 0)
(0.000107773 -7.10182e-05 0)
(0.000120718 -4.95064e-05 0)
(0.000128118 -2.69031e-05 0)
(0.000129619 -4.24638e-06 0)
(0.000125341 1.73537e-05 0)
(0.000115793 3.7062e-05 0)
(0.000101475 5.3927e-05 0)
(8.32317e-05 6.72152e-05 0)
(6.21119e-05 7.63067e-05 0)
(3.92718e-05 8.08555e-05 0)
(1.60708e-05 8.07548e-05 0)
(-6.3006e-06 7.60826e-05 0)
(-2.65334e-05 6.73134e-05 0)
(-4.34884e-05 5.50034e-05 0)
(-5.63219e-05 4.00646e-05 0)
(-6.42968e-05 2.34067e-05 0)
(-6.71548e-05 6.24619e-06 0)
(-6.47349e-05 -1.03989e-05 0)
(-5.74852e-05 -2.53796e-05 0)
(-4.60524e-05 -3.78034e-05 0)
(-3.13325e-05 -4.68295e-05 0)
(-1.45029e-05 -5.1984e-05 0)
(3.31244e-06 -5.2951e-05 0)
(2.05562e-05 -4.97614e-05 0)
(3.58128e-05 -4.2834e-05 0)
(4.81226e-05 -3.27584e-05 0)
(5.65987e-05 -2.04128e-05 0)
(6.05869e-05 -6.80643e-06 0)
(5.98535e-05 6.96257e-06 0)
(5.45537e-05 1.98763e-05 0)
(4.51679e-05 3.09456e-05 0)
(3.24861e-05 3.9413e-05 0)
(1.75496e-05 4.46829e-05 0)
(1.34967e-06 4.64637e-05 0)
(-1.47553e-05 4.47747e-05 0)
(-2.93569e-05 3.98864e-05 0)
(-4.16098e-05 3.23372e-05 0)
(-5.0714e-05 2.28409e-05 0)
(-5.61298e-05 1.22172e-05 0)
(-5.7566e-05 1.36044e-06 0)
(-5.51759e-05 -8.87186e-06 0)
(-4.93516e-05 -1.77641e-05 0)
(-4.06602e-05 -2.46939e-05 0)
(-2.99752e-05 -2.92643e-05 0)
(-1.81954e-05 -3.12562e-05 0)
(-6.2998e-06 -3.06906e-05 0)
(4.80342e-06 -2.77761e-05 0)
(1.42768e-05 -2.28918e-05 0)
(2.14883e-05 -1.65485e-05 0)
(2.59944e-05 -9.31123e-06 0)
(2.76012e-05 -1.79965e-06 0)
(2.63365e-05 5.39093e-06 0)
(2.24223e-05 1.17508e-05 0)
(1.6256e-05 1.68572e-05 0)
(8.39478e-06 2.03992e-05 0)
(-6.24386e-07 2.21913e-05 0)
(-9.95809e-06 2.22023e-05 0)
(-1.87552e-05 2.05175e-05 0)
(-2.65204e-05 1.73377e-05 0)
(-3.27081e-05 1.29518e-05 0)
(-3.68821e-05 7.71915e-06 0)
(-3.8763e-05 2.02885e-06 0)
(-3.82383e-05 -3.72028e-06 0)
(-3.53392e-05 -9.15771e-06 0)
(-3.02608e-05 -1.39398e-05 0)
(-2.33206e-05 -1.77844e-05 0)
(-1.49824e-05 -2.04852e-05 0)
(-5.74329e-06 -2.19097e-05 0)
(3.96521e-06 -2.20055e-05 0)
(1.34736e-05 -2.08083e-05 0)
(2.21543e-05 -1.84149e-05 0)
(2.95793e-05 -1.49889e-05 0)
(3.53136e-05 -1.07462e-05 0)
(3.90189e-05 -5.93783e-06 0)
(4.04753e-05 -8.4343e-07 0)
(3.95742e-05 4.24799e-06 0)
(3.63502e-05 9.05879e-06 0)
(3.09541e-05 1.33118e-05 0)
(2.36596e-05 1.6767e-05 0)
(1.4873e-05 1.92133e-05 0)
(5.07947e-06 2.04917e-05 0)
(-1.23262e-05 0.000143033 0)
(-3.65054e-05 0.000139936 0)
(-5.98656e-05 0.000130832 0)
(-8.16454e-05 0.000117181 0)
(-0.000100994 9.91755e-05 0)
(-0.000117392 7.7021e-05 0)
(-0.000130631 5.11995e-05 0)
(-0.000140386 2.20104e-05 0)
(-0.000145693 -9.83887e-06 0)
(-0.00014538 -4.3789e-05 0)
(-0.000139304 -7.89099e-05 0)
(-0.000127582 -0.000114536 0)
(-0.000110228 -0.00014971 0)
(-8.73414e-05 -0.000183595 0)
(-5.93621e-05 -0.000215258 0)
(-2.65811e-05 -0.000243814 0)
(1.06567e-05 -0.000268416 0)
(5.18076e-05 -0.000288345 0)
(9.63808e-05 -0.000302872 0)
(0.000143171 -0.000311641 0)
(0.00019116 -0.00031411 0)
(0.000239466 -0.000310027 0)
(0.00028723 -0.00029935 0)
(0.000333374 -0.000282059 0)
(0.000376593 -0.000258489 0)
(0.00041631 -0.000229168 0)
(0.000451383 -0.000194426 0)
(0.000480568 -0.000155272 0)
(0.000503619 -0.000112447 0)
(0.0005207 -6.70943e-05 0)
(0.00053111 -2.00548e-05 0)
(0.000534825 2.7634e-05 0)
(0.000530798 7.52666e-05 0)
(0.000518712 0.000121951 0)
(0.00050111 0.000166949 0)
(0.000478001 0.000209525 0)
(0.000449622 0.00024906 0)
(0.000417145 0.000285051 0)
(0.000380298 0.000317054 0)
(0.000339752 0.000344792 0)
(0.000296555 0.000368012 0)
(0.000251078 0.000386492 0)
(0.000203917 0.000400121 0)
(0.00015573 0.000408833 0)
(0.000107109 0.000412629 0)
(5.85671e-05 0.000411573 0)
(1.07459e-05 0.0004057 0)
(-3.58335e-05 0.000395266 0)
(-8.05875e-05 0.000380373 0)
(-0.00012312 0.00036127 0)
(-0.000163054 0.000338196 0)
(-0.000199951 0.000311586 0)
(-0.00023339 0.000281532 0)
(-0.000262893 0.000248713 0)
(-0.000288439 0.000213213 0)
(-0.000309593 0.000175594 0)
(-0.000326006 0.000136236 0)
(-0.000337687 9.57184e-05 0)
(-0.000344547 5.44076e-05 0)
(-0.000346055 1.28316e-05 0)
(-0.000342552 -2.85008e-05 0)
(-0.000334578 -6.9189e-05 0)
(-0.000321711 -0.000108613 0)
(-0.000303955 -0.000146422 0)
(-0.000281603 -0.000181949 0)
(-0.000254793 -0.000214788 0)
(-0.000223979 -0.000244454 0)
(-0.000189537 -0.000270537 0)
(-0.000151852 -0.000292603 0)
(-0.000111567 -0.000310335 0)
(-6.90784e-05 -0.000323385 0)
(-2.50038e-05 -0.000331564 0)
(1.995e-05 -0.000334653 0)
(6.51415e-05 -0.000332585 0)
(0.000109867 -0.000325234 0)
(0.000153477 -0.000312776 0)
(0.000195133 -0.000295169 0)
(0.000234077 -0.00027275 0)
(0.000269886 -0.000245782 0)
(0.00030162 -0.000214654 0)
(0.000328726 -0.000179865 0)
(0.000350783 -0.000141936 0)
(0.000367181 -0.000101538 0)
(0.000377615 -5.93602e-05 0)
(0.000381601 -1.61688e-05 0)
(0.000378895 2.72706e-05 0)
(0.000369671 7.00858e-05 0)
(0.000354037 0.000111482 0)
(0.000332109 0.000150589 0)
(0.000304195 0.000186553 0)
(0.000270767 0.00021859 0)
(0.000232444 0.000245982 0)
(0.000190017 0.000268062 0)
(0.000144371 0.000284252 0)
(9.64377e-05 0.000294144 0)
(4.72303e-05 0.000297434 0)
(-2.09099e-06 0.000294026 0)
(-5.02702e-05 0.000283895 0)
(-9.62112e-05 0.000267268 0)
(-0.000138803 0.000244482 0)
(-0.000176908 0.000216114 0)
(-0.000209556 0.000182851 0)
(-0.000235944 0.00014562 0)
(-0.000255254 0.000105372 0)
(-0.000266967 6.32626e-05 0)
(-0.000270815 2.0498e-05 0)
(-0.000266613 -2.16516e-05 0)
(-0.000254567 -6.1995e-05 0)
(-0.000235113 -9.9273e-05 0)
(-0.0002089 -0.000132308 0)
(-0.000176776 -0.000160067 0)
(-0.000139897 -0.000181655 0)
(-9.95709e-05 -0.000196377 0)
(-5.71976e-05 -0.000203777 0)
(-1.42846e-05 -0.000203669 0)
(2.75731e-05 -0.000196137 0)
(6.67471e-05 -0.000181599 0)
(0.00010184 -0.000160667 0)
(0.000131484 -0.000134287 0)
(0.000154673 -0.000103611 0)
(0.000170558 -7.0042e-05 0)
(0.000178496 -3.50629e-05 0)
(0.000178214 -2.5982e-07 0)
(0.000170095 3.28932e-05 0)
(0.000154811 6.27989e-05 0)
(0.000133123 8.80944e-05 0)
(0.000106268 0.000107718 0)
(7.57478e-05 0.000120703 0)
(4.33118e-05 0.00012663 0)
(1.06732e-05 0.000125337 0)
(-2.02887e-05 0.00011705 0)
(-4.78648e-05 0.000102481 0)
(-7.05626e-05 8.26183e-05 0)
(-8.71947e-05 5.8854e-05 0)
(-9.68674e-05 3.26392e-05 0)
(-9.92136e-05 5.82966e-06 0)
(-9.43114e-05 -1.98154e-05 0)
(-8.27097e-05 -4.27283e-05 0)
(-6.5455e-05 -6.14649e-05 0)
(-4.38817e-05 -7.48672e-05 0)
(-1.96774e-05 -8.20897e-05 0)
(5.56542e-06 -8.27927e-05 0)
(2.96612e-05 -7.7178e-05 0)
(5.07044e-05 -6.58015e-05 0)
(6.74151e-05 -4.97621e-05 0)
(7.8543e-05 -3.04063e-05 0)
(8.33879e-05 -9.32282e-06 0)
(8.17479e-05 1.17794e-05 0)
(7.39054e-05 3.13683e-05 0)
(6.06723e-05 4.79592e-05 0)
(4.31753e-05 6.03463e-05 0)
(2.28593e-05 6.7802e-05 0)
(1.21936e-06 6.9938e-05 0)
(-1.99514e-05 6.67861e-05 0)
(-3.8872e-05 5.89038e-05 0)
(-5.44071e-05 4.71382e-05 0)
(-6.55531e-05 3.26064e-05 0)
(-7.17096e-05 1.65823e-05 0)
(-7.26488e-05 4.25062e-07 0)
(-6.86268e-05 -1.46785e-05 0)
(-6.0279e-05 -2.75802e-05 0)
(-4.84539e-05 -3.74799e-05 0)
(-3.43033e-05 -4.37842e-05 0)
(-1.90124e-05 -4.62675e-05 0)
(-3.85479e-06 -4.49889e-05 0)
(1.00273e-05 -4.03207e-05 0)
(2.16257e-05 -3.28674e-05 0)
(3.02184e-05 -2.3378e-05 0)
(3.53507e-05 -1.27283e-05 0)
(3.67856e-05 -1.78969e-06 0)
(3.46589e-05 8.57899e-06 0)
(2.93487e-05 1.76477e-05 0)
(2.14019e-05 2.48229e-05 0)
(1.14951e-05 2.97102e-05 0)
(3.61322e-07 3.20533e-05 0)
(-1.09784e-05 3.18584e-05 0)
(-2.15787e-05 2.92691e-05 0)
(-3.08246e-05 2.45901e-05 0)
(-3.80881e-05 1.82506e-05 0)
(-4.29064e-05 1.07613e-05 0)
(-4.49867e-05 2.68514e-06 0)
(-4.42388e-05 -5.40605e-06 0)
(-4.07439e-05 -1.30118e-05 0)
(-3.47576e-05 -1.96541e-05 0)
(-2.66821e-05 -2.49544e-05 0)
(-1.70656e-05 -2.86377e-05 0)
(-6.48758e-06 -3.05284e-05 0)
(4.53026e-06 -3.05709e-05 0)
(1.52561e-05 -2.88319e-05 0)
(2.49978e-05 -2.54426e-05 0)
(3.32723e-05 -2.06526e-05 0)
(3.96146e-05 -1.47515e-05 0)
(4.36619e-05 -8.09365e-06 0)
(4.51936e-05 -1.06209e-06 0)
(4.41059e-05 5.94685e-06 0)
(4.04456e-05 1.25584e-05 0)
(3.43959e-05 1.83904e-05 0)
(2.62676e-05 2.31237e-05 0)
(1.64995e-05 2.64716e-05 0)
(5.63293e-06 2.82174e-05 0)
(-3.38381e-05 0.000267778 0)
(-0.000100895 0.000253276 0)
(-0.000166398 0.000230659 0)
(-0.000228651 0.000196826 0)
(-0.000286402 0.000152364 0)
(-0.000337584 9.76038e-05 0)
(-0.000381362 3.455e-05 0)
(-0.000416225 -3.65073e-05 0)
(-0.000440572 -0.000111669 0)
(-0.00045322 -0.000191053 0)
(-0.000453618 -0.000271588 0)
(-0.000442062 -0.000352106 0)
(-0.000417982 -0.000430165 0)
(-0.000381724 -0.000504148 0)
(-0.000333613 -0.00057207 0)
(-0.0002745 -0.000632318 0)
(-0.000205825 -0.000683271 0)
(-0.00012893 -0.000723522 0)
(-4.59643e-05 -0.000752045 0)
(4.15564e-05 -0.000767659 0)
(0.000132418 -0.000769745 0)
(0.00022348 -0.00075789 0)
(0.00031324 -0.000731773 0)
(0.000399179 -0.000692095 0)
(0.000478227 -0.000639125 0)
(0.000550264 -0.000574507 0)
(0.000612583 -0.000498575 0)
(0.000663093 -0.000415349 0)
(0.000701019 -0.000324305 0)
(0.000725871 -0.000229869 0)
(0.000737868 -0.0001336 0)
(0.000738203 -3.83107e-05 0)
(0.000728235 5.46815e-05 0)
(0.000707862 0.000143871 0)
(0.000678367 0.000227855 0)
(0.000639882 0.000305381 0)
(0.000593369 0.000375659 0)
(0.000540742 0.00043794 0)
(0.000482765 0.000491746 0)
(0.000420393 0.000536925 0)
(0.000354827 0.000573346 0)
(0.000286952 0.000600951 0)
(0.000217736 0.000620032 0)
(0.000148009 0.000630663 0)
(7.87038e-05 0.000633231 0)
(1.02572e-05 0.000628038 0)
(-5.6161e-05 0.000615454 0)
(-0.000119983 0.00059591 0)
(-0.000180976 0.000569984 0)
(-0.000238286 0.000537838 0)
(-0.000291008 0.000500272 0)
(-0.00033941 0.000457618 0)
(-0.000382571 0.000410563 0)
(-0.000419962 0.000359653 0)
(-0.00045181 0.00030535 0)
(-0.000477556 0.000248466 0)
(-0.000496426 0.000189515 0)
(-0.000508651 0.000129162 0)
(-0.000514435 6.81424e-05 0)
(-0.000513109 7.18752e-06 0)
(-0.000505195 -5.33128e-05 0)
(-0.000490546 -0.000112329 0)
(-0.000469543 -0.000169375 0)
(-0.000441981 -0.000223441 0)
(-0.00040823 -0.000274161 0)
(-0.000368875 -0.000320617 0)
(-0.000324207 -0.000362415 0)
(-0.000274755 -0.000398773 0)
(-0.000221238 -0.000429315 0)
(-0.000164287 -0.000453449 0)
(-0.000104649 -0.00047085 0)
(-4.31937e-05 -0.000481161 0)
(1.92659e-05 -0.000484169 0)
(8.17574e-05 -0.000479744 0)
(0.000143321 -0.000467849 0)
(0.000203016 -0.00044857 0)
(0.000259885 -0.000422148 0)
(0.000312908 -0.000388837 0)
(0.000361185 -0.0003491 0)
(0.00040381 -0.000303616 0)
(0.000439998 -0.000252973 0)
(0.000469024 -0.000198062 0)
(0.000490229 -0.000139756 0)
(0.000503115 -7.90772e-05 0)
(0.000507389 -1.71958e-05 0)
(0.000502695 4.46726e-05 0)
(0.000488967 0.000105561 0)
(0.000466552 0.000164201 0)
(0.000435595 0.000219415 0)
(0.000396617 0.000269979 0)
(0.000350419 0.000314781 0)
(0.000297774 0.000352737 0)
(0.00023969 0.000383036 0)
(0.000177418 0.000404885 0)
(0.000112368 0.00041771 0)
(4.60468e-05 0.000421087 0)
(-2.01022e-05 0.00041486 0)
(-8.45287e-05 0.000399105 0)
(-0.000145654 0.000374117 0)
(-0.000201927 0.00034048 0)
(-0.000251829 0.000298995 0)
(-0.000294068 0.000250724 0)
(-0.000327527 0.000196999 0)
(-0.000351292 0.000139233 0)
(-0.000364633 7.90562e-05 0)
(-0.00036721 1.81732e-05 0)
(-0.000358979 -4.14295e-05 0)
(-0.000340297 -9.82053e-05 0)
(-0.000311705 -0.000150344 0)
(-0.00027414 -0.000196224 0)
(-0.000228909 -0.00023434 0)
(-0.000177498 -0.00026349 0)
(-0.000121754 -0.000282745 0)
(-6.36963e-05 -0.000291494 0)
(-5.44647e-06 -0.000289557 0)
(5.08509e-05 -0.000277065 0)
(0.000103137 -0.000254639 0)
(0.00014947 -0.000223289 0)
(0.000188039 -0.000184412 0)
(0.00021734 -0.000139695 0)
(0.000236336 -9.11148e-05 0)
(0.000244511 -4.08307e-05 0)
(0.000241688 8.80062e-06 0)
(0.000228167 5.57131e-05 0)
(0.000204822 9.77194e-05 0)
(0.000173136 0.000132834 0)
(0.000134711 0.000159562 0)
(9.16992e-05 0.000176644 0)
(4.65661e-05 0.000183539 0)
(1.66359e-06 0.00018003 0)
(-4.05057e-05 0.000166639 0)
(-7.75593e-05 0.000144365 0)
(-0.000107458 0.000114715 0)
(-0.000128802 7.97411e-05 0)
(-0.000140343 4.16757e-05 0)
(-0.000141556 3.00853e-06 0)
(-0.000132861 -3.3696e-05 0)
(-0.000115277 -6.61933e-05 0)
(-9.01678e-05 -9.23532e-05 0)
(-5.93665e-05 -0.000110623 0)
(-2.52302e-05 -0.000119838 0)
(9.70023e-06 -0.000119782 0)
(4.26801e-05 -0.000110617 0)
(7.11784e-05 -9.34079e-05 0)
(9.33094e-05 -6.9761e-05 0)
(0.000107661 -4.16249e-05 0)
(0.000113274 -1.13961e-05 0)
(0.000110119 1.86084e-05 0)
(9.8755e-05 4.60998e-05 0)
(8.01964e-05 6.89684e-05 0)
(5.62319e-05 8.57495e-05 0)
(2.89373e-05 9.54064e-05 0)
(2.42462e-07 9.74981e-05 0)
(-2.74004e-05 9.22259e-05 0)
(-5.16846e-05 8.04443e-05 0)
(-7.11898e-05 6.34534e-05 0)
(-8.47141e-05 4.28659e-05 0)
(-9.15495e-05 2.04817e-05 0)
(-9.15983e-05 -1.79798e-06 0)
(-8.53314e-05 -2.23739e-05 0)
(-7.36401e-05 -3.96548e-05 0)
(-5.77442e-05 -5.2682e-05 0)
(-3.91614e-05 -6.06307e-05 0)
(-1.94851e-05 -6.33378e-05 0)
(-3.06619e-07 -6.09696e-05 0)
(1.69352e-05 -5.40738e-05 0)
(3.10638e-05 -4.35489e-05 0)
(4.12314e-05 -3.04174e-05 0)
(4.69323e-05 -1.59143e-05 0)
(4.80392e-05 -1.21729e-06 0)
(4.47751e-05 1.25972e-05 0)
(3.76642e-05 2.45212e-05 0)
(2.74556e-05 3.38161e-05 0)
(1.50424e-05 3.99764e-05 0)
(1.3453e-06 4.27935e-05 0)
(-1.24264e-05 4.22288e-05 0)
(-2.51662e-05 3.85457e-05 0)
(-3.61427e-05 3.21739e-05 0)
(-4.46545e-05 2.37033e-05 0)
(-5.01822e-05 1.38125e-05 0)
(-5.24254e-05 3.24285e-06 0)
(-5.1356e-05 -7.28443e-06 0)
(-4.71143e-05 -1.70954e-05 0)
(-4.00216e-05 -2.56068e-05 0)
(-3.0583e-05 -3.23359e-05 0)
(-1.94426e-05 -3.69567e-05 0)
(-7.2812e-06 -3.92517e-05 0)
(5.27541e-06 -3.91888e-05 0)
(1.74152e-05 -3.6842e-05 0)
(2.83776e-05 -3.2425e-05 0)
(3.76254e-05 -2.62289e-05 0)
(4.46601e-05 -1.86638e-05 0)
(4.90924e-05 -1.01585e-05 0)
(5.06914e-05 -1.20792e-06 0)
(4.93729e-05 7.69253e-06 0)
(4.52011e-05 1.60601e-05 0)
(3.83847e-05 2.34326e-05 0)
(2.92805e-05 2.94059e-05 0)
(1.8378e-05 3.36288e-05 0)
(6.27162e-06 3.5834e-05 0)
(-7.80728e-05 0.000940121 0)
(-0.00023267 0.000915745 0)
(-0.000383748 0.000868444 0)
(-0.000526455 0.000797484 0)
(-0.000658644 0.000704581 0)
(-0.000772679 0.000589989 0)
(-0.000868989 0.000458881 0)
(-0.000938091 0.000310029 0)
(-0.000981914 0.000154584 0)
(-0.00100288 -1.22181e-05 0)
(-0.000994934 -0.00018336 0)
(-0.000962055 -0.000356551 0)
(-0.000902736 -0.000524981 0)
(-0.000820077 -0.000684263 0)
(-0.000715182 -0.000829893 0)
(-0.00059079 -0.000958447 0)
(-0.000448931 -0.00106677 0)
(-0.000293093 -0.00115198 0)
(-0.00012544 -0.00121192 0)
(4.93024e-05 -0.00124443 0)