/*--------------------------------*- C++ -*----------------------------------*\
  =========                 |
  \\      /  F ield         | OpenFOAM: The Open Source CFD Toolbox
   \\    /   O peration     | Website:  https://openfoam.org
    \\  /    A nd           | Version:  12
     \\/     M anipulation  |
\*---------------------------------------------------------------------------*/
FoamFile
{
    format      ascii;
    class       volScalarField;
    location    "17.48";
    object      p_rgh;
}
// * * * * * * * * * * * * * * * * * * * * * * * * * * * * * * * * * * * * * //

dimensions      [1 -1 -2 0 0 0 0];

internalField   nonuniform List<scalar> 
3829
(
3.21435
3.21329
3.2111
3.20777
3.20321
3.19738
3.19019
3.18158
3.17145
3.15967
3.14612
3.13068
3.11322
3.0936
3.0717
3.04738
3.02053
2.99102
2.95877
2.92367
2.88567
2.84471
2.80076
2.75382
2.70391
2.65108
2.59539
2.53695
2.47588
2.41234
2.34651
2.27862
2.20889
2.13759
2.06502
1.99147
1.91728
1.84277
1.76831
1.69423
1.6209
1.54865
1.47782
1.4087
1.34151
1.27829
1.21834
1.16186
1.10906
1.06012
1.01518
0.974367
0.937747
0.90535
0.877172
0.853161
0.833236
0.817273
0.805109
0.796526
0.791253
0.78896
0.789266
0.791733
0.795874
0.801161
0.807043
0.812928
0.818232
0.822343
0.82465
0.824549
0.821462
0.814844
0.8042
0.789102
0.769197
0.744214
0.712464
0.674911
0.631728
0.583128
0.529405
0.470906
0.40809
0.341555
0.272041
0.20042
0.12764
0.0548236
-0.0169157
-0.0863792
-0.15233
-0.213553
-0.268858
-0.317118
-0.357329
-0.388644
-0.410414
-0.418735
-0.416027
-0.40266
-0.379125
-0.346069
-0.30432
-0.255018
-0.199611
-0.139726
-0.0774412
-0.0148474
0.0459282
0.102635
0.153091
0.195246
0.227289
0.247763
0.255633
0.248817
0.228088
0.194247
0.148405
0.0920828
0.0274308
-0.0429448
-0.118472
-0.190556
-0.258281
-0.318207
-0.3671
-0.40215
-0.421205
-0.422914
-0.405007
-0.369316
-0.317614
-0.252288
-0.176722
-0.0950321
-0.0112729
0.0674185
0.136986
0.192775
0.230926
0.24873
0.244885
0.218604
0.172628
0.110365
0.0366845
-0.0426888
-0.121129
-0.191117
-0.246902
-0.28316
-0.296376
-0.285255
-0.250556
-0.196442
-0.12867
-0.0541808
0.018508
0.0798401
0.123103
0.142472
0.134978
0.0994426
0.040669
-0.0348917
-0.119385
-0.201159
-0.269956
-0.317375
-0.337275
-0.320006
-0.274511
-0.207076
-0.12591
-0.0434415
0.0268208
0.0751506
0.0940623
0.0811934
0.0395481
-0.0221672
-0.0915796
-0.155262
-0.198235
-0.212359
-0.19356
-0.145008
-0.0766292
-0.00252579
0.0611404
0.100072
0.104832
0.0748749
0.0180048
-0.0505736
-0.111959
-0.148529
3.34651
3.34585
3.34445
3.34229
3.33929
3.3354
3.33054
3.32466
3.31782
3.30847
3.29692
3.28313
3.26697
3.24827
3.22686
3.20254
3.17513
3.14445
3.11031
3.07255
3.03105
2.98569
2.9364
2.88317
2.82602
2.76499
2.70021
2.63184
2.56008
2.4852
2.40748
2.32725
2.24489
2.1608
2.07538
1.98907
1.90232
1.81558
1.72932
1.64401
1.56016
1.47826
1.39883
1.32243
1.24966
1.17913
1.11252
1.05057
0.993514
0.941577
0.894941
0.853739
0.818044
0.787875
0.763213
0.743986
0.730062
0.721243
0.717255
0.717747
0.722314
0.730488
0.741744
0.7555
0.771127
0.787924
0.80524
0.822312
0.838379
0.85267
0.864421
0.872876
0.877307
0.877031
0.871426
0.859945
0.842125
0.817669
0.785489
0.746003
0.699337
0.645705
0.585414
0.518912
0.446806
0.36985
0.289001
0.205365
0.120144
0.0347012
-0.0495609
-0.13115
-0.208532
-0.280199
-0.344666
-0.400546
-0.446615
-0.481785
-0.505195
-0.512676
-0.507057
-0.488602
-0.457735
-0.415181
-0.361998
-0.299622
-0.229868
-0.154814
-0.0768999
0.00122365
0.0769259
0.147426
0.210039
0.262239
0.30179
0.326836
0.336076
0.327738
0.302405
0.260822
0.204252
0.134707
0.0549075
-0.0319228
-0.125282
-0.214095
-0.297508
-0.371254
-0.431334
-0.474311
-0.497462
-0.498906
-0.477229
-0.433815
-0.370553
-0.290531
-0.198086
-0.0984102
0.00555371
0.101185
0.185619
0.253032
0.298636
0.318981
0.312418
0.278926
0.221152
0.14335
0.0516767
-0.0467685
-0.143512
-0.229744
-0.298174
-0.342243
-0.357458
-0.341649
-0.296922
-0.228139
-0.142645
-0.0491283
0.0416893
0.118421
0.172571
0.196891
0.187538
0.144389
0.0723649
-0.0203652
-0.123879
-0.223649
-0.30708
-0.363625
-0.385429
-0.365007
-0.309555
-0.226852
-0.127444
-0.0268474
0.0581861
0.115888
0.137087
0.11883
0.0656418
-0.0120117
-0.0988892
-0.178837
-0.232294
-0.249746
-0.226528
-0.166509
-0.0823394
0.00844775
0.0859893
0.134232
0.1384
0.0996947
0.0278734
-0.0577557
-0.134324
-0.179936
3.4692
3.46937
3.4697
3.47007
3.47027
3.47001
3.46879
3.46699
3.46451
3.4623
3.45932
3.45505
3.44853
3.43929
3.42679
3.4105
3.38989
3.3645
3.33389
3.2977
3.25565
3.20751
3.15313
3.09247
3.02553
2.95243
2.87335
2.78858
2.69845
2.60343
2.50404
2.40086
2.29453
2.18572
2.07516
1.96359
1.85176
1.74045
1.63041
1.52236
1.417
1.31498
1.21687
1.12313
1.03412
0.949987
0.874836
0.807199
0.747031
0.69436
0.649234
0.611679
0.581701
0.559285
0.544336
0.536698
0.536136
0.542338
0.554914
0.573372
0.597134
0.62553
0.657804
0.693124
0.730607
0.769309
0.808249
0.846398
0.882691
0.916068
0.945479
0.969899
0.98832
0.999818
1.00356
0.998782
0.984815
0.961001
0.927529
0.883949
0.830273
0.76668
0.693589
0.611629
0.521695
0.424878
0.322507
0.216108
0.107344
-0.0019274
-0.109773
-0.21415
-0.312952
-0.404136
-0.485718
-0.55584
-0.612816
-0.655186
-0.681799
-0.687648
-0.676353
-0.648062
-0.603206
-0.542702
-0.468006
-0.381118
-0.284519
-0.180962
-0.0738144
0.0332888
0.136826
0.23305
0.318292
0.38913
0.44252
0.475976
0.487739
0.476178
0.44174
0.385191
0.308214
0.21364
0.105217
-0.0126279
-0.138852
-0.259065
-0.371895
-0.471513
-0.552461
-0.610071
-0.640563
-0.641751
-0.612484
-0.553948
-0.468596
-0.36071
-0.236282
-0.102515
0.0373553
0.164939
0.277252
0.366357
0.425695
0.450739
0.438959
0.39142
0.311032
0.203835
0.078295
-0.0558743
-0.186863
-0.303224
-0.39501
-0.453822
-0.473599
-0.447574
-0.38314
-0.286593
-0.16785
-0.0385423
0.0862016
0.19164
0.265862
0.299247
0.286398
0.22839
0.131122
0.00602782
-0.133288
-0.266774
-0.377601
-0.451325
-0.477393
-0.449707
-0.374681
-0.26297
-0.129442
0.00504827
0.117586
0.192511
0.217517
0.189004
0.11378
0.00631929
-0.112804
-0.224397
-0.296579
-0.3198
-0.288024
-0.206419
-0.0925044
0.0295554
0.131874
0.199568
0.201083
0.145975
0.046495
-0.0713646
-0.176411
-0.238889
3.64153
3.64474
3.65119
3.6608
3.67348
3.68903
3.7073
3.72701
3.74708
3.76717
3.78675
3.8054
3.81949
3.82919
3.83366
3.83196
3.82312
3.80622
3.78043
3.74501
3.69937
3.64307
3.57584
3.49763
3.4086
3.30912
3.19975
3.08125
2.95403
2.82013
2.68022
2.53544
2.38699
2.23612
2.08397
1.93164
1.78031
1.63111
1.48512
1.34337
1.20686
1.07656
0.953445
0.838511
0.732807
0.637595
0.549721
0.471884
0.404577
0.348143
0.302779
0.268592
0.245579
0.233626
0.232538
0.241977
0.261468
0.290404
0.328051
0.373588
0.426128
0.484659
0.548085
0.615219
0.684797
0.755489
0.825901
0.894606
0.960142
1.02103
1.07582
1.12311
1.16151
1.18977
1.20671
1.21129
1.20275
1.18031
1.14391
1.09315
1.02806
0.948892
0.856259
0.75109
0.634641
0.508447
0.374374
0.234544
0.091254
-0.0528409
-0.195075
-0.332612
-0.462563
-0.582108
-0.688487
-0.779106
-0.851684
-0.90426
-0.935291
-0.938946
-0.919492
-0.876854
-0.811584
-0.724942
-0.618964
-0.496475
-0.360909
-0.216082
-0.0665711
0.0824779
0.226221
0.359491
0.4773
0.574897
0.648118
0.693601
0.708775
0.692257
0.6441
0.565298
0.458316
0.327083
0.176821
0.0137306
-0.159306
-0.325218
-0.48066
-0.617705
-0.728808
-0.807476
-0.848774
-0.849311
-0.808522
-0.727449
-0.609485
-0.46071
-0.289326
-0.105019
0.0829683
0.257939
0.410963
0.531381
0.610407
0.64164
0.622317
0.553743
0.440042
0.289841
0.114871
-0.0712445
-0.251709
-0.411214
-0.536084
-0.615607
-0.645998
-0.600342
-0.506754
-0.370036
-0.203134
-0.0218103
0.15214
0.299115
0.402334
0.448346
0.430317
0.350066
0.215627
0.0432684
-0.1482
-0.330581
-0.481026
-0.579512
-0.611389
-0.572632
-0.468405
-0.31422
-0.130852
0.0525657
0.204647
0.303974
0.334142
0.290227
0.182334
0.0316493
-0.132342
-0.293417
-0.390267
-0.421315
-0.377094
-0.26366
-0.106437
0.0618012
0.205187
0.289047
0.290966
0.212699
0.0732188
-0.0915325
-0.237897
-0.324852
3.59447
3.60441
3.62431
3.65395
3.69275
3.73982
3.79394
3.85354
3.91674
3.98137
4.04499
4.10562
4.16435
4.21758
4.26286
4.29799
4.32093
4.32986
4.32319
4.29958
4.25799
4.19782
4.11873
4.02079
3.90449
3.77067
3.62047
3.45518
3.27641
3.08619
2.88716
2.68158
2.47164
2.25952
2.0473
1.83698
1.63037
1.42908
1.23462
1.04834
0.871435
0.704878
0.549479
0.40569
0.273738
0.152841
0.0565303
-0.0240107
-0.0898336
-0.141063
-0.177564
-0.199308
-0.206319
-0.198773
-0.176997
-0.141483
-0.0928688
-0.0319597
0.0402722
0.122695
0.214068
0.312981
0.417914
0.527233
0.639224
0.752039
0.863783
0.972508
1.0762
1.17286
1.26056
1.33738
1.40144
1.45105
1.48471
1.50099
1.49862
1.47689
1.4361
1.37537
1.29463
1.19432
1.07533
0.939036
0.787181
0.621893
0.445725
0.261613
0.0727679
-0.117259
-0.304794
-0.485969
-0.656817
-0.81345
-0.952105
-1.06927
-1.16185
-1.22723
-1.26343
-1.26458
-1.2346
-1.17323
-1.08117
-0.960213
-0.81322
-0.644022
-0.457353
-0.258515
-0.0536422
0.150193
0.346472
0.528056
0.688149
0.820413
0.919258
0.980075
0.999335
0.975808
0.909095
0.800568
0.653787
0.474209
0.268985
0.0465036
-0.187587
-0.41331
-0.624484
-0.810203
-0.960433
-1.06646
-1.12147
-1.12083
-1.06454
-0.953416
-0.792356
-0.589768
-0.356963
-0.107103
0.145557
0.381637
0.587452
0.748404
0.852557
0.891794
0.861785
0.7649
0.607011
0.400002
0.160163
-0.0943724
-0.339486
-0.554769
-0.720815
-0.821654
-0.846372
-0.793237
-0.666062
-0.477631
-0.247551
0.00180971
0.240307
0.441476
0.582357
0.644548
0.619226
0.508913
0.325199
0.0906043
-0.169485
-0.415737
-0.617836
-0.748463
-0.787698
-0.733351
-0.58995
-0.379551
-0.130826
0.116361
0.319734
0.450484
0.486435
0.421681
0.270195
0.0614813
-0.166711
-0.377953
-0.512042
-0.553557
-0.493481
-0.337564
-0.124021
0.10403
0.30014
0.409089
0.408988
0.299974
0.107675
-0.118444
-0.319011
-0.438102
3.37293
3.39444
3.43758
3.50205
3.5868
3.69029
3.81012
3.9436
4.08747
4.23845
4.39232
4.54333
4.69125
4.83051
4.95653
5.06473
5.15045
5.2095
5.2392
5.23752
5.20279
5.1339
5.03042
4.89281
4.72219
4.5208
4.29149
4.03912
3.76748
3.4731
3.17797
2.87759
2.57511
2.27425
1.97801
1.68904
1.40965
1.14181
0.887328
0.647714
0.42439
0.218648
0.0316604
-0.135298
-0.280925
-0.403039
-0.515811
-0.609019
-0.680911
-0.731247
-0.760238
-0.768196
-0.755661
-0.723298
-0.671928
-0.602506
-0.516156
-0.41412
-0.297775
-0.168666
-0.0284877
0.120873
0.277417
0.438953
0.60319
0.767711
0.930021
1.08758
1.23774
1.37785
1.50536
1.61776
1.71261
1.78774
1.84109
1.87093
1.87568
1.85436
1.80678
1.73232
1.63106
1.5036
1.35124
1.17578
0.979554
0.765431
0.536827
0.297676
0.0521954
-0.194796
-0.438452
-0.673581
-0.894893
-1.09722
-1.2755
-1.42502
-1.54167
-1.62202
-1.66373
-1.66217
-1.61955
-1.53514
-1.40996
-1.24658
-1.04889
-0.822027
-0.572326
-0.306959
-0.03401
0.237293
0.498076
0.738986
0.950946
1.1256
1.25553
1.33461
1.35837
1.32563
1.23534
1.08965
0.893396
0.653775
0.380551
0.0848869
-0.224378
-0.523715
-0.803399
-1.04896
-1.24709
-1.38631
-1.45739
-1.45523
-1.37909
-1.23031
-1.01582
-0.746688
-0.438132
-0.107454
0.22539
0.5364
0.806582
1.01684
1.15154
1.19945
1.15595
1.02342
0.810337
0.532785
0.212521
-0.126424
-0.451314
-0.735269
-0.952229
-1.08004
-1.10263
-1.03384
-0.862811
-0.609454
-0.300808
0.0331432
0.351175
0.618947
0.805542
0.887259
0.852135
0.703843
0.458748
0.146911
-0.197456
-0.522538
-0.78804
-0.9578
-1.00623
-0.930969
-0.738146
-0.457809
-0.128522
0.196842
0.462923
0.631649
0.674381
0.58246
0.376531
0.0960414
-0.209918
-0.484557
-0.662753
-0.715799
-0.62926
-0.426796
-0.145048
0.155596
0.418424
0.558335
0.554513
0.407499
0.149534
-0.152251
-0.41951
-0.578259
2.57727
2.62518
2.72149
2.8655
3.05511
3.28685
3.55469
3.85316
4.17321
4.50664
4.84688
5.18315
5.50108
5.79339
6.05255
6.2723
6.44771
6.57476
6.64913
6.66725
6.62672
6.52641
6.36607
6.14678
5.87096
5.54435
5.17269
4.76627
4.33421
3.89482
3.45024
3.01211
2.58355
2.16773
1.76728
1.38459
1.02169
0.6803
0.361732
0.0671329
-0.202658
-0.447019
-0.665429
-0.857735
-1.02398
-1.16409
-1.28016
-1.36521
-1.42375
-1.45651
-1.46373
-1.44572
-1.40294
-1.33608
-1.246
-1.1338
-1.00085
-0.848684
-0.67908
-0.493996
-0.295594
-0.0862963
0.131307
0.354422
0.580114
0.805325
1.02686
1.24143
1.44568
1.63624
1.80987
1.96337
2.09367
2.19799
2.27367
2.31843
2.33074
2.30846
2.2521
2.16069
2.03437
1.87408
1.68154
1.45914
1.20992
0.937608
0.646636
0.342114
0.029453
-0.285032
-0.595082
-0.893992
-1.1749
-1.43109
-1.65602
-1.84352
-1.98797
-2.08446
-2.12869
-2.12747
-2.07077
-1.95911
-1.79457
-1.58084
-1.32303
-1.02796
-0.703832
-0.359944
-0.00672408
0.343893
0.680374
0.990832
1.26357
1.48774
1.6538
1.75402
1.78272
1.73818
1.61943
1.42936
1.17428
0.863681
0.50997
0.12784
-0.270033
-0.656036
-1.01608
-1.33177
-1.58588
-1.76365
-1.85378
-1.8491
-1.74872
-1.55497
-1.27698
-0.92922
-0.531146
-0.105329
0.321987
0.720969
1.06672
1.33451
1.5042
1.56221
1.5017
1.32624
1.04752
0.686292
0.270607
-0.168066
-0.587198
-0.952339
-1.22965
-1.39154
-1.42006
-1.32233
-1.09578
-0.764096
-0.361917
0.0722239
0.484151
0.830258
1.07023
1.17383
1.1266
0.932749
0.614661
0.211468
-0.232842
-0.650459
-0.990405
-1.20582
-1.26452
-1.16309
-0.91096
-0.547601
-0.123159
0.293928
0.63321
0.845504
0.895892
0.770453
0.499889
0.134715
-0.262161
-0.612572
-0.841774
-0.908375
-0.796043
-0.531799
-0.169205
0.214665
0.561161
0.734933
0.725704
0.534101
0.19797
-0.192607
-0.538557
-0.744377
0.925971
1.01014
1.18367
1.44519
1.79073
2.22748
2.72179
3.2815
3.87016
4.47493
5.06326
5.6316
6.16548
6.65382
7.08756
7.45934
7.76282
7.99256
8.14369
8.21209
8.19427
8.08764
7.89055
7.60369
7.20789
6.7488
6.1942
5.61358
4.86998
4.30099
3.61902
3.03476
2.46507
1.91982
1.40304
0.918068
0.466935
0.0506367
-0.330436
-0.676311
-0.98715
-1.26321
-1.50487
-1.71241
-1.88597
-2.02585
-2.13138
-2.21012
-2.25673
-2.27093
-2.25324
-2.20443
-2.1254
-2.01724
-1.88118
-1.71869
-1.53143
-1.32131
-1.0905
-0.841411
-0.576712
-0.299392
-0.0126355
0.280103
0.575157
0.868734
1.15685
1.43544
1.70031
1.9473
2.17239
2.37161
2.54113
2.6775
2.77754
2.83839
2.8576
2.83396
2.76653
2.65474
2.49897
2.30049
2.06148
1.78493
1.47476
1.13566
0.773223
0.393886
0.00447292
-0.387083
-0.772878
-1.14444
-1.49321
-1.81079
-2.08898
-2.32004
-2.49694
-2.61352
-2.66457
-2.65903
-2.58387
-2.43986
-2.22969
-1.95804
-1.63144
-1.25843
-0.849442
-0.416148
0.0283371
0.468938
0.891336
1.28046
1.62181
1.90178
2.10842
2.23217
2.26591
2.20734
2.05555
1.81443
1.492
1.10042
0.655005
0.174302
-0.324709
-0.808884
-1.26002
-1.65495
-1.97214
-2.19337
-2.30452
-2.29644
-2.16785
-1.92241
-1.57174
-1.13426
-0.634311
-0.10015
0.434498
0.933154
1.36426
1.69686
1.90587
1.97394
1.89367
1.66896
1.31484
0.85787
0.333658
-0.219879
-0.746096
-1.20328
-1.54911
-1.74955
-1.78354
-1.65233
-1.36108
-0.938936
-0.429644
0.11926
0.63785
1.07275
1.37309
1.50082
1.43882
1.19223
0.79033
0.282848
-0.275526
-0.798058
-1.22221
-1.48905
-1.55914
-1.42606
-1.10544
-0.647124
-0.114246
0.406637
0.828372
1.08895
1.14653
0.982439
0.638219
0.176545
-0.323204
-0.760277
-1.04675
-1.12809
-0.985233
-0.650215
-0.195173
0.277196
0.729814
0.935838
0.919739
0.670085
0.251857
-0.23917
-0.674288
-0.934323
-1.6325
-1.52842
-1.202
-0.734816
-0.134004
0.679076
1.54968
2.58029
3.64319
4.73574
5.86258
6.94431
7.92939
8.80794
9.56964
10.2059
10.71
11.0766
11.3011
11.379
11.3065
11.0812
10.7006
10.1667
9.48335
8.66848
7.70968
6.68945
5.58877
4.63599
3.70833
2.86413
2.09249
1.39229
0.757186
0.181476
-0.339532
-0.809734
-1.23219
-1.60942
-1.94338
-2.23559
-2.48719
-2.69923
-2.87263
-3.0081
-3.1055
-3.16235
-3.18289
-3.16735
-3.11583
-3.02878
-2.90692
-2.75128
-2.56319
-2.34427
-2.09646
-1.82201
-1.52349
-1.20377
-0.866057
-0.513955
-0.151288
0.217846
0.588871
0.957197
1.31806
1.66648
1.99741
2.3058
2.58679
2.83552
3.04734
3.21807
3.34389
3.42146
3.44824
3.42144
3.34073
3.20556
3.01647
2.77506
2.48401
2.14707
1.76904
1.35568
0.913913
0.4516
-0.0228769
-0.499701
-0.96921
-1.42109
-1.84486
-2.23027
-2.56734
-2.84668
-3.05989
-3.19963
-3.25999
-3.24716
-3.14985
-2.96892
-2.70759
-2.37142
-1.96848
-1.50924
-1.00645
-0.474417
0.0707876
0.610592
1.12757
1.60314
2.01971
2.36068
2.6116
2.76068
2.79958
2.72487
2.53603
2.23807
1.84087
1.35939
0.812601
0.222883
-0.387385
-0.979887
-1.53142
-2.01345
-2.39986
-2.66838
-2.80164
-2.78935
-2.62911
-2.3262
-1.89495
-1.35788
-0.745397
-0.0918986
0.561175
1.16961
1.6945
2.09809
2.34973
2.42843
2.32543
2.04545
1.60764
1.04438
0.399409
-0.28056
-0.925311
-1.48396
-1.90507
-2.14724
-2.18529
-2.01713
-1.65356
-1.13054
-0.50183
0.17327
0.810034
1.34265
1.70902
1.86287
1.78339
1.47765
0.98243
0.359386
-0.325009
-0.963008
-1.47949
-1.80238
-1.88412
-1.71509
-1.31794
-0.754219
-0.101753
0.533363
1.04544
1.35774
1.41264
1.2146
0.789039
0.220734
-0.392414
-0.925213
-1.27424
-1.37098
-1.19317
-0.779493
-0.220406
0.364774
0.899315
1.15611
1.13437
0.827774
0.311468
-0.291102
-0.824574
-1.14491
-5.57656
-5.34323
-4.99104
-4.41325
-3.5939
-2.47187
-1.09873
1.04183
3.43717
5.98986
7.31747
9.10387
10.3956
11.4841
12.3824
13.1108
13.6849
14.1112
14.3876
14.5091
14.4698
14.2657
13.8702
13.2561
12.3324
11.1992
9.43841
7.36186
5.58359
4.39352
3.18751
2.22008
1.31344
0.522053
-0.181592
-0.807017
-1.36319
-1.85763
-2.2961
-2.68315
-3.02195
-3.31476
-3.56307
-3.76781
-3.92927
-4.0479
-4.12408
-4.16166
-4.15702
-4.11036
-4.02227
-3.89349
-3.72492
-3.51774
-3.27343
-2.99379
-2.68102
-2.33769
-1.96676
-1.57162
-1.156
-0.724159
-0.28067
0.170088
0.621869
1.06972
1.50791
1.93055
2.33163
2.70511
3.04518
3.34615
3.6025
3.80929
3.96201
4.05667
4.08999
4.05918
3.96347
3.80241
3.57677
3.2885
2.94085
2.53834
2.08678
1.59309
1.0656
0.513737
-0.0524946
-0.621194
-1.18087
-1.71919
-2.22363
-2.68196
-3.08228
-3.41348
-3.66571
-3.83041
-3.90107
-3.87933
-3.7574
-3.53608
-3.21916
-2.8132
-2.3278
-1.7756
-1.1718
-0.533436
0.120072
0.766394
1.38476
1.95301
2.45005
2.85613
3.15405
3.32976
3.37366
3.28107
3.05189
2.69229
2.21427
1.63559
0.979605
0.272769
-0.457269
-1.16607
-1.82529
-2.40077
-2.86114
-3.17978
-3.33634
-3.31883
-3.12403
-2.75881
-2.2404
-1.59622
-0.862516
-0.0802324
0.699836
1.42609
2.05151
2.53092
2.82775
2.91725
2.78897
2.44884
1.92019
1.2423
0.467553
-0.349883
-1.12183
-1.78926
-2.29078
-2.57709
-2.61844
-2.40972
-1.96745
-1.33516
-0.577836
0.234266
0.997832
1.63528
2.07195
2.25303
2.15383
1.78363
1.18716
0.43909
-0.380042
-1.14235
-1.75758
-2.13992
-2.23311
-2.02469
-1.54437
-0.866636
-0.085737
0.671907
1.28068
1.64868
1.71034
1.46435
0.949667
0.266275
-0.468631
-1.10433
-1.52003
-1.63257
-1.4161
-0.917285
-0.24542
0.460392
1.08182
1.39275
1.36542
0.996538
0.375188
-0.347224
-0.986456
-1.37262
-11.5755
-11.3535
-10.8803
-10.1284
-9.04168
-7.51687
-5.42385
-2.65673
1.07712
4.20972
6.97704
9.52679
11.7086
13.6008
15.1939
16.4886
17.4784
18.1621
18.5415
18.614
18.3699
17.8041
16.8991
15.9984
14.2572
12.5009
10.187
6.98156
5.74845
3.71072
2.18745
0.992407
0.0328432
-0.768557
-1.45535
-2.05744
-2.59041
-3.06463
-3.48601
-3.8584
-4.18393
-4.46393
-4.69898
-4.88924
-5.03484
-5.13539
-5.1903
-5.19939
-5.16308
-5.08105
-4.95329
-4.78019
-4.56252
-4.30138
-3.99831
-3.65525
-3.27467
-2.85945
-2.413
-1.93916
-1.44226
-0.927204
-0.399254
0.135944
0.672083
1.20284
1.72157
2.22144
2.69541
3.13648
3.53787
3.89294
4.19526
4.43907
4.61912
4.7308
4.7704
4.73459
4.62236
4.43343
4.16873
3.83057
3.42282
2.95085
2.4215
1.84294
1.225
0.578675
-0.0841459
-0.749636
-1.40419
-2.03342
-2.62262
-3.15748
-3.62413
-4.00963
-4.30252
-4.49292
-4.57353
-4.54255
-4.39458
-4.13048
-3.75466
-3.275
-2.70266
-2.05251
-1.34234
-0.592169
0.175214
0.933369
1.65807
2.32346
2.90473
3.37884
3.72567
3.92892
3.9774
3.86546
3.59338
3.16856
2.60504
1.92387
1.15273
0.322685
-0.532891
-1.36404
-2.13621
-2.80953
-3.34721
-3.71817
-3.89879
-3.87505
-3.64336
-3.21204
-2.60161
-1.84448
-0.983138
-0.0658912
0.847767
1.69763
2.42836
2.98705
3.33098
3.43105
3.27555
2.8717
2.24688
1.44804
0.537264
-0.427146
-1.33191
-2.11329
-2.69887
-3.03087
-3.0745
-2.8227
-2.29691
-1.54881
-0.65572
0.300879
1.19768
1.94512
2.45517
2.66405
2.54328
2.10447
1.40064
0.520673
-0.439921
-1.33276
-2.05131
-2.49537
-2.59965
-2.34903
-1.78045
-0.982166
-0.0666336
0.819693
1.52963
1.95576
2.02338
1.72647
1.11707
0.312069
-0.550276
-1.29419
-1.77946
-1.90793
-1.65005
-1.06115
-0.270227
0.560518
1.27552
1.6419
1.60857
1.17342
0.441804
-0.406809
-1.15644
-1.6133
-18.6652
-18.651
-18.654
-18.6385
-18.3932
-18.1326
-17.805
-17.3272
0.440259
0.0732968
-0.193239
-0.628165
-1.21852
-1.79429
-2.36923
-2.91612
-3.42775
-3.8985
-4.32877
-4.71728
-5.06414
-5.36867
-5.63021
-5.84785
-6.02052
-6.14688
-6.22605
-6.25736
-6.24044
-6.1735
-6.05616
-5.88836
-5.67035
-5.40282
-5.08685
-4.72402
-4.31643
-3.86677
-3.37829
-2.85478
-2.3006
-1.72067
-1.12062
-0.506449
0.115285
0.737543
1.35298
1.95396
2.53266
3.08102
3.59098
4.05482
4.46489
4.81383
5.09505
5.30252
5.43115
5.47768
5.43475
5.30478
5.08655
4.78103
4.39088
3.92068
3.37666
2.76672
2.10037
1.38894
0.645199
-0.117779
-0.882985
-1.63534
-2.35821
-3.03469
-3.6483
-4.18311
-4.62428
-4.95866
-5.17502
-5.26509
-5.22465
-5.04971
-4.74131
-4.30452
-3.74856
-3.08637
-2.33504
-1.51513
-0.649651
0.23488
1.10816
1.94231
2.70754
3.37531
3.9192
4.31598
4.54722
4.59986
4.46741
4.15068
3.65814
3.00613
2.21912
1.32889
0.371941
-0.613009
-1.57021
-2.45855
-3.23235
-3.84933
-4.27382
-4.47874
-4.44798
-4.17773
-3.67786
-2.97231
-2.09819
-1.10517
-0.0492338
1.0021
1.97921
2.8182
3.45826
3.85023
3.9606
3.77653
3.3063
2.58188
1.65779
0.605584
-0.50892
-1.55134
-2.44994
-3.12178
-3.50028
-3.54531
-3.24861
-2.6359
-1.76753
-0.733052
0.370821
1.40577
2.26641
2.85172
3.08857
2.94475
2.43438
1.61913
0.602996
-0.503897
-1.53075
-2.35536
-2.86232
-2.9771
-2.68231
-2.02201
-1.09905
-0.0446162
0.973944
1.78766
2.27304
2.3454
1.99595
1.28826
0.357294
-0.635813
-1.49125
-2.04774
-2.19206
-1.89085
-1.20865
-0.294592
0.663491
1.47666
1.89919
1.85951
1.35548
0.509935
-0.468574
-1.33133
-1.86273
-27.0563
-26.9569
-26.7407
-26.4826
-26.2233
-26.015
-25.7847
-25.6448
-1.75714
-1.93097
-2.26373
-2.58864
-3.01426
-3.45286
-3.90276
-4.34781
-4.78002
-5.19102
-5.57599
-5.9305
-6.2512
-6.53478
-6.77845
-6.97955
-7.13567
-7.2446
-7.3043
-7.31297
-7.26927
-7.17183
-7.01972
-6.81247
-6.55011
-6.23316
-5.86267
-5.44029
-4.96825
-4.4495
-3.88761
-3.28682
-2.65199
-1.98868
-1.30321
-0.602363
0.106427
0.815261
1.5158
2.19944
2.85732
3.48036
4.05946
4.5859
5.05105
5.44658
5.76501
5.99946
6.14364
6.19172
6.1459
5.99844
5.7502
5.40281
4.95951
4.4256
3.80818
3.11629
2.36073
1.55438
0.711732
-0.15269
-1.01904
-1.87049
-2.68817
-3.45295
-4.14618
-4.74981
-5.24706
-5.62308
-5.8653
-5.96429
-5.91426
-5.71188
-5.35839
-4.85964
-4.22613
-3.47271
-2.61872
-1.6875
-0.705231
0.297778
1.28758
2.2324
3.09853
3.85364
4.46784
4.91484
5.17402
5.23043
5.07683
4.71438
4.15279
3.41086
2.51648
1.50555
0.419843
-0.696361
-1.78095
-2.78677
-3.66205
-4.35902
-4.8373
-5.06631
-5.02799
-4.71823
-4.14855
-3.34639
-2.35352
-1.22706
-0.0302529
1.16017
2.26591
3.21434
3.93653
4.37675
4.49731
4.28364
3.74537
2.9195
1.8682
0.67279
-0.594599
-1.77619
-2.79324
-3.55218
-3.97729
-4.02306
-3.68021
-2.97871
-1.98775
-0.810142
0.444157
1.61855
2.59362
3.25476
3.51938
3.35149
2.76781
1.83904
0.68436
-0.570387
-1.73283
-2.66449
-3.23455
-3.35915
-3.01902
-2.26517
-1.21525
-0.0203471
1.13185
2.05022
2.59498
2.67115
2.26823
1.46044
0.401503
-0.723887
-1.69208
-2.32024
-2.4801
-2.13452
-1.3574
-0.31838
0.767978
1.68145
2.16026
2.11404
1.53969
0.578646
-0.531869
-1.50764
-2.11683
-33.2223
-33.1707
-33.0739
-32.9502
-32.8081
-32.6928
-32.5583
-32.4992
-3.4997
-3.6636
-3.92994
-4.18059
-4.51887
-4.87766
-5.25729
-5.64251
-6.02576
-6.39762
-6.75198
-7.08259
-7.38433
-7.6523
-7.8823
-8.07038
-8.21298
-8.30681
-8.34908
-8.33732
-8.26936
-8.14341
-7.95822
-7.71308
-7.40779
-7.04277
-6.61904
-6.1383
-5.60292
-5.01612
-4.38181
-3.70466
-2.99008
-2.24423
-1.47416
-0.687423
0.107655
0.902275
1.68713
2.45263
3.18892
3.88586
4.53336
5.12168
5.64123
6.08274
6.43785
6.69897
6.85927
6.91343
6.85919
6.69272
6.41382
6.02414
5.52738
4.92952
4.23855
3.46461
2.61986
1.71866
0.777263
-0.18848
-1.15574
-2.10602
-3.01825
-3.87102
-4.64351
-5.31556
-5.86847
-6.28571
-6.55336
-6.66082
-6.60107
-6.37113
-5.97248
-5.41172
-4.70068
-3.85605
-2.8995
-1.8572
-0.758486
0.362674
1.46856
2.52362
3.49018
4.33217
5.01616
5.51295
5.79956
5.85937
5.68432
5.27588
4.64513
3.8132
2.8115
1.68008
0.465884
-0.781467
-1.99284
-3.11567
-4.09193
-4.86835
-5.39991
-5.65256
-5.60626
-5.25671
-4.6171
-3.71812
-2.60682
-1.34707
-0.00961788
1.31933
2.55314
3.61051
4.41438
4.90244
5.03306
4.78917
4.1824
3.25466
2.07632
0.740182
-0.684655
-2.00273
-3.13762
-3.98323
-4.45444
-4.50041
-4.1109
-3.32013
-2.20628
-0.885533
0.519167
1.83253
2.92154
3.65793
3.94975
3.75721
3.09976
2.05708
0.763533
-0.638078
-1.93576
-2.97386
-3.6063
-3.74004
-3.3541
-2.50639
-1.32918
0.00557793
1.29075
2.31313
2.91654
2.99577
2.53916
1.63113
0.44389
-0.812772
-1.89343
-2.59268
-2.76761
-2.37735
-1.50528
-0.341154
0.872434
1.8864
2.42102
2.3683
1.72329
0.646832
-0.595399
-1.68268
-2.37178
-38.8555
-38.8299
-38.7817
-38.7189
-38.6443
-38.5857
-38.5142
-38.4917
-5.0668
-5.14734
-5.34683
-5.54735
-5.82143
-6.12629
-6.45847
-6.80451
-7.15641
-7.50392
-7.8397
-8.15617
-8.44691
-8.70581
-8.92752
-9.10703
-9.2399
-9.32205
-9.34985
-9.32016
-9.23027
-9.07805
-8.86193
-8.58094
-8.23473
-7.82359
-7.34854
-6.81133
-6.2145
-5.56152
-4.85667
-4.10503
-3.31256
-2.48602
-1.63318
-0.762412
0.117113
0.995667
1.863
2.70856
3.52149
4.29067
5.00498
5.65373
6.22637
6.71268
7.10352
7.39053
7.56635
7.62521
7.56318
7.37756
7.06798
6.63627
6.08654
5.42543
4.66177
3.80687
2.87417
1.8795
0.840912
-0.224656
-1.29121
-2.33872
-3.34394
-4.28323
-5.13355
-5.87274
-6.48019
-6.93773
-7.2301
-7.34562
-7.27608
-7.01878
-6.57553
-5.95356
-5.16608
-4.23153
-3.17393
-2.02227
-0.809015
0.428334
1.64834
2.81173
3.87695
4.8042
5.55658
6.1021
6.41532
6.4782
6.28169
5.8277
5.12864
4.20791
3.10032
1.85031
0.509552
-0.866857
-2.20278
-3.44061
-4.51604
-5.37034
-5.95403
-6.22959
-6.17507
-5.78602
-5.07731
-4.08269
-2.85475
-1.46378
0.0120523
1.47713
2.8368
4.00119
4.88524
5.42009
5.56028
5.28629
4.61168
3.58312
2.27935
0.807201
-0.777814
-2.22732
-3.47806
-4.40889
-4.92513
-4.97088
-4.53486
-3.65569
-2.42038
-0.958163
0.594522
2.04455
3.24555
4.05565
4.37378
4.15645
3.42587
2.27043
0.839544
-0.705792
-2.13659
-3.27916
-3.97251
-4.1147
-3.68317
-2.74263
-1.43953
0.0326261
1.44824
2.57268
3.23329
3.31497
2.80518
1.79818
0.484423
-0.90147
-2.09244
-2.86127
-3.05066
-2.61611
-1.65038
-0.362909
0.975761
2.08846
2.67788
2.61886
1.9039
0.713645
-0.658672
-1.85511
-2.62266
-43.9301
-43.9162
-43.8896
-43.8552
-43.8125
-43.7802
-43.7379
-43.728
-6.26101
-6.32129
-6.49423
-6.67221
-6.91811
-7.19706
-7.50602
-7.8325
-8.16903
-8.50532
-8.83333
-9.14465
-9.43182
-9.68781
-9.90633
-10.0816
-10.2086
-10.2824
-10.2987
-10.2538
-10.1446
-9.96847
-9.72374
-9.40924
-9.02443
-8.56954
-8.04555
-7.4543
-6.79849
-6.08186
-5.30903
-4.48553
-3.6178
-2.71324
-1.78033
-0.828212
0.13303
1.09279
2.03989
2.96287
3.8499
4.68888
5.46775
6.17487
6.79875
7.32827
7.75348
8.06537
8.25592
8.31885
8.2491
8.04455
7.70481
7.23189
6.63034
5.90745
5.07289
4.13907
3.12071
2.03505
0.901973
-0.260732
-1.42377
-2.5658
-3.66141
-4.68475
-5.61064
-6.41493
-7.07521
-7.57169
-7.88784
-8.01106
-7.93172
-7.64761
-7.16083
-6.4792
-5.61725
-4.59516
-3.43918
-2.18115
-0.856557
0.493662
1.82452
3.09313
4.25413
5.26407
6.08268
6.67537
7.01419
7.0798
6.86212
6.36358
5.59789
4.59062
3.37975
2.01431
0.550608
-0.95114
-2.4081
-3.75768
-4.92934
-5.85912
-6.49319
-6.79076
-6.72794
-6.30018
-5.52399
-4.43612
-3.09461
-1.57586
0.0340839
1.63143
3.11343
4.38171
5.34357
5.92367
6.07297
5.76928
5.02842
3.90127
2.47475
0.872023
-0.871332
-2.44661
-3.81036
-4.82405
-5.38382
-5.42897
-4.94722
-3.98168
-2.62763
-1.02722
0.668922
2.25189
3.5617
4.44318
4.78651
4.5446
3.74245
2.47685
0.911208
-0.772049
-2.33282
-3.57677
-4.32892
-4.47886
-4.00255
-2.9714
-1.54528
0.0602809
1.60223
2.82573
3.54153
3.62514
3.0633
1.95987
0.522614
-0.988635
-2.28663
-3.12285
-3.32598
-2.84806
-1.79116
-0.38338
1.07675
2.28509
2.9278
2.86281
2.07942
0.778481
-0.721105
-2.02659
-2.86275
-48.4577
-48.4492
-48.4324
-48.4114
-48.384
-48.3647
-48.3379
-48.3325
-7.24061
-7.2915
-7.4482
-7.61596
-7.84858
-8.11687
-8.41701
-8.73717
-9.07016
-9.40546
-9.73453
-10.0481
-10.338
-10.5963
-10.816
-10.9909
-11.1152
-11.1836
-11.1912
-11.1338
-11.0075
-10.8098
-10.5388
-10.1932
-9.77232
-9.27629
-8.70607
-8.06357
-7.35165
-6.57435
-5.73665
-4.84447
-3.90475
-2.92545
-1.91581
-0.885734
0.153824
1.19136
2.21485
3.21192
4.16988
5.07565
5.91627
6.67923
7.35209
7.92285
8.38083
8.71637
8.92083
8.98752
8.90996
8.68693
8.31794
7.80509
7.15342
6.37089
5.46791
4.45805
3.35715
2.18388
0.959812
-0.296237
-1.55206
-2.78503
-3.96758
-5.07174
-6.07021
-6.93696
-7.64789
-8.18162
-8.5204
-8.65113
-8.56187
-8.25182
-7.72305
-6.98385
-6.05014
-4.94373
-3.69303
-2.3326
-0.900931
0.557733
1.99516
3.36489
4.61792
5.70721
6.5893
7.22719
7.59042
7.65844
7.4201
6.87849
6.04853
4.95779
3.64736
2.17069
0.588739
-1.03315
-2.60663
-4.06367
-5.32777
-6.32994
-7.01225
-7.33074
-7.25966
-6.79438
-5.95299
-4.77531
-3.32427
-1.68241
0.0561183
1.78049
3.38021
4.7483
5.78491
6.40826
6.56628
6.2336
5.42873
4.20631
2.6605
0.930715
-0.960473
-2.65787
-4.13112
-5.22453
-5.82597
-5.87022
-5.34407
-4.29502
-2.82622
-1.09166
0.740846
2.45233
3.86678
4.81667
5.18393
4.91795
4.04658
2.67459
0.978806
-0.836776
-2.52245
-3.86374
-4.67207
-4.8291
-4.3093
-3.19069
-1.64582
0.0882623
1.75101
3.06976
3.83825
3.92334
3.31112
2.11478
0.55831
-1.07329
-2.474
-3.37482
-3.59092
-3.07103
-1.92634
-0.402745
1.17471
2.47424
3.16833
3.0978
2.24819
0.840745
-0.78154
-2.1957
-3.08993
-52.4847
-52.4789
-52.4667
-52.4521
-52.4321
-52.4189
-52.4003
-52.3963
-8.04576
-8.09276
-8.24456
-8.41004
-8.64006
-8.90765
-9.20878
-9.53166
-9.8695
-10.2114
-10.5484
-10.8701
-11.1675
-11.432
-11.6563
-11.8338
-11.9583
-12.0238
-12.025
-11.9572
-11.8161
-11.599
-11.3041
-10.9298
-10.4754
-9.941
-9.32743
-8.6367
-7.87183
-7.0372
-6.13811
-5.18087
-4.17286
-3.12262
-2.04007
-0.935894
0.178056
1.28941
2.38539
3.4528
4.47801
5.44714
6.34633
7.16225