# Wall shear stress
# Time            	patch             	min               	max               
1.0000000000e+00	walls	(-1.0439807593e-01 -6.0276169459e-06 0.0000000000e+00)	(-1.0438725110e-01 6.0268832321e-06 0.0000000000e+00)
