/*--------------------------------*- C++ -*----------------------------------*\
  =========                 |
  \\      /  F ield         | OpenFOAM: The Open Source CFD Toolbox
   \\    /   O peration     | Website:  https://openfoam.org
    \\  /    A nd           | Version:  12
     \\/     M anipulation  |
\*---------------------------------------------------------------------------*/
FoamFile
{
    format      ascii;
    class       volScalarField;
    location    "100";
    object      strainRateViscosityModel:nu;
}
// * * * * * * * * * * * * * * * * * * * * * * * * * * * * * * * * * * * * * //

dimensions      [0 2 -1 0 0 0 0];

internalField   nonuniform List<scalar> 
80
(
9.99999
9.99999
9.99998
9.99994
9.9991
9.98607
9.99979
9.99995
9.99997
9.99998
9.99997
9.99996
9.99993
9.99983
9.99941
9.99645
9.92889
6.80299
9.94272
9.98114
9.98711
9.9865
9.98093
9.96569
9.92677
9.83568
9.66218
9.38188
8.91084
8.57634
9.26041
9.76508
9.89442
9.92408
9.92399
9.90464
9.85626
9.73707
9.42952
5.617
5.617
9.42952
9.73707
9.85626
9.90464
9.92399
9.92408
9.89442
9.76508
9.26041
8.57634
8.91084
9.38188
9.66218
9.83568
9.92677
9.96569
9.98093
9.9865
9.98711
9.98114
9.94272
6.80299
9.92889
9.99645
9.99941
9.99983
9.99993
9.99996
9.99997
9.99998
9.99997
9.99995
9.99979
9.98607
9.9991
9.99994
9.99998
9.99999
9.99999
)
;

boundaryField
{
    lowerWall
    {
        type            calculated;
        value           uniform 10;
    }
    upperWall
    {
        type            calculated;
        value           uniform 10;
    }
    front
    {
        type            cyclic;
    }
    back
    {
        type            cyclic;
    }
    defaultFaces
    {
        type            empty;
    }
}


// ************************************************************************* //
