/*--------------------------------*- C++ -*----------------------------------*\
  =========                 |
  \\      /  F ield         | OpenFOAM: The Open Source CFD Toolbox
   \\    /   O peration     | Website:  https://openfoam.org
    \\  /    A nd           | Version:  12
     \\/     M anipulation  |
\*---------------------------------------------------------------------------*/
FoamFile
{
    format      ascii;
    class       volVectorField;
    location    "100";
    object      U;
}
// * * * * * * * * * * * * * * * * * * * * * * * * * * * * * * * * * * * * * //

dimensions      [0 1 -1 0 0 0 0];

internalField   nonuniform List<vector> 
80
(
(0.194246 0 0)
(0.548269 0 0)
(0.845078 0 0)
(1.06059 0 0)
(1.1803 0 0)
(1.20074 0 0)
(1.12913 0 0)
(0.981812 0 0)
(0.781166 0 0)
(0.552324 0 0)
(0.319663 0 0)
(0.103893 0 0)
(-0.0799172 0 0)
(-0.223238 0 0)
(-0.323965 0 0)
(-0.385473 0 0)
(-0.414632 0 0)
(-0.420561 0 0)
(-0.409348 0 0)
(-0.388339 0 0)
(-0.361191 0 0)
(-0.332572 0 0)
(-0.30576 0 0)
(-0.282797 0 0)
(-0.26447 0 0)
(-0.250412 0 0)
(-0.239576 0 0)
(-0.230898 0 0)
(-0.223761 0 0)
(-0.217751 0 0)
(-0.211538 0 0)
(-0.20268 0 0)
(-0.190121 0 0)
(-0.175 0 0)
(-0.159087 0 0)
(-0.143786 0 0)
(-0.130029 0 0)
(-0.118409 0 0)
(-0.109327 0 0)
(-0.10257 0 0)
(-0.10257 0 0)
(-0.109327 0 0)
(-0.118409 0 0)
(-0.130029 0 0)
(-0.143786 0 0)
(-0.159087 0 0)
(-0.175 0 0)
(-0.190121 0 0)
(-0.20268 0 0)
(-0.211538 0 0)
(-0.217751 0 0)
(-0.223761 0 0)
(-0.230898 0 0)
(-0.239576 0 0)
(-0.250412 0 0)
(-0.26447 0 0)
(-0.282797 0 0)
(-0.30576 0 0)
(-0.332572 0 0)
(-0.361191 0 0)
(-0.388339 0 0)
(-0.409348 0 0)
(-0.420561 0 0)
(-0.414632 0 0)
(-0.385473 0 0)
(-0.323965 0 0)
(-0.223238 0 0)
(-0.0799172 0 0)
(0.103893 0 0)
(0.319663 0 0)
(0.552324 0 0)
(0.781166 0 0)
(0.981812 0 0)
(1.12913 0 0)
(1.20074 0 0)
(1.1803 0 0)
(1.06059 0 0)
(0.845078 0 0)
(0.548269 0 0)
(0.194246 0 0)
)
;

boundaryField
{
    lowerWall
    {
        type            noSlip;
    }
    upperWall
    {
        type            noSlip;
    }
    front
    {
        type            cyclic;
    }
    back
    {
        type            cyclic;
    }
    defaultFaces
    {
        type            empty;
    }
}


// ************************************************************************* //
