/*--------------------------------*- C++ -*----------------------------------*\
  =========                 |
  \\      /  F ield         | OpenFOAM: The Open Source CFD Toolbox
   \\    /   O peration     | Website:  https://openfoam.org
    \\  /    A nd           | Version:  12
     \\/     M anipulation  |
\*---------------------------------------------------------------------------*/
FoamFile
{
    format      ascii;
    class       surfaceScalarField;
    location    "18.3";
    object      phi;
}
// * * * * * * * * * * * * * * * * * * * * * * * * * * * * * * * * * * * * * //

dimensions      [1 0 -1 0 0 0 0];

internalField   nonuniform List<scalar> 
7429
(
-0.000135038
0.000135037
-0.000268312
0.000133274
-0.000405663
0.000137351
-0.000548811
0.000143147
-0.00069917
0.000150359
-0.000858209
0.000159039
-0.00102733
0.000169121
-0.00120782
0.000180492
-0.00140086
0.00019304
-0.00160743
0.000206564
-0.00182824
0.000220812
-0.00206379
0.000235548
-0.00231432
0.000250525
-0.00257963
0.000265311
-0.00285926
0.000279637
-0.00315242
0.000293155
-0.00345791
0.000305492
-0.00377427
0.000316353
-0.00409965
0.000325387
-0.00443195
0.000332292
-0.00476872
0.00033677
-0.00510731
0.000338594
-0.00544485
0.000337538
-0.00577829
0.000333442
-0.00610454
0.000326242
-0.00642032
0.000315788
-0.00672251
0.000302187
-0.00700794
0.000285428
-0.00727358
0.000265643
-0.00751652
0.000242934
-0.00773408
0.000217566
-0.00792375
0.000189671
-0.0080833
0.000159545
-0.00821074
0.000127441
-0.00830451
9.37723e-05
-0.00836339
5.88778e-05
-0.00838684
2.34454e-05
-0.00837037
-1.64664e-05
-0.00831248
-5.78935e-05
-0.00821441
-9.80663e-05
-0.00807736
-0.000137047
-0.00790282
-0.000174547
-0.00769259
-0.000210226
-0.00744832
-0.000244269
-0.00717182
-0.000276506
-0.00686488
-0.000306935
-0.0065296
-0.000335279
-0.00616827
-0.000361337
-0.00578362
-0.000384648
-0.00537874
-0.000404876
-0.00495682
-0.000421918
-0.00452158
-0.000435245
-0.00407658
-0.000445
-0.00362578
-0.000450797
-0.00317307
-0.000452715
-0.00272279
-0.000450281
-0.00227919
-0.000443591
-0.0018465
-0.000432694
-0.00142909
-0.000417412
-0.00103113
-0.000397958
-0.000656563
-0.000374568
-0.00030943
-0.000347133
6.50419e-06
-0.000315934
0.000287533
-0.000281028
0.000530432
-0.000242899
0.000732359
-0.000201928
0.000890921
-0.000158562
0.00100375
-0.000112828
0.00107023
-6.64804e-05
0.00108944
-1.92059e-05
0.00105595
3.34833e-05
0.000974159
8.1793e-05
0.000845847
0.000128312
0.000673465
0.000172383
0.000459228
0.000214237
0.000206574
0.000252654
-8.03651e-05
0.00028694
-0.000397006
0.000316641
-0.000737559
0.000340552
-0.00109548
0.000357917
-0.00146409
0.000368617
-0.00183599
0.000371894
-0.00220333
0.000367347
-0.00255818
0.000354849
-0.00289256
0.000334377
-0.00319814
0.000305576
-0.00346739
0.000269251
-0.00369285
0.000225462
-0.00386791
0.000175058
-0.00398677
0.000118865
-0.00404512
5.83495e-05
-0.00403369
-1.14361e-05
-0.00394891
-8.47796e-05
-0.003793
-0.000155908
-0.00356864
-0.000224359
-0.00327929
-0.000289352
-0.00292949
-0.000349803
-0.00252524
-0.000404246
-0.00207403
-0.000451214
-0.00158557
-0.000488456
-0.00107114
-0.000514433
-0.000543106
-0.00052803
-1.52709e-05
-0.000527835
0.000498107
-0.000513378
0.000982404
-0.000484297
0.00142309
-0.000440683
0.00180645
-0.000383362
0.00212007
-0.00031362
0.00235304
-0.000232967
0.00249665
-0.000143612
0.00254556
-4.89077e-05
0.00248738
5.81721e-05
0.0023275
0.000159884
0.00207312
0.000254378
0.00173376
0.00033936
0.00131941
0.000414353
0.000845798
0.00047361
0.000330537
0.000515261
-0.00020544
0.000535977
-0.000739397
0.000533957
-0.00124717
0.000507773
-0.00170524
0.000458065
-0.00209099
0.000385752
-0.00238429
0.000293307
-0.00256909
0.000184798
-0.00263401
6.49173e-05
-0.0025598
-7.42131e-05
-0.00235207
-0.00020773
-0.00202208
-0.000329981
-0.00158318
-0.000438904
-0.00105567
-0.000527507
-0.000464475
-0.000591198
0.00016025
-0.000624725
0.000783037
-0.000622787
0.00136815
-0.000585111
0.0018801
-0.000511949
0.00228621
-0.000406117
0.00255958
-0.000273363
0.00268069
-0.000121112
0.00262825
5.24425e-05
0.00240384
0.000224402
0.00202527
0.000378578
0.00151591
0.000509359
0.000906615
0.000609292
0.000240093
0.000666522
-0.000438184
0.000678276
-0.00107482
0.000636638
-0.00162012
0.000545303
-0.00203036
0.000410239
-0.00227135
0.000240981
-0.00232267
5.13275e-05
-0.00216071
-0.000161964
-0.00181136
-0.000349354
-0.00130501
-0.000506346
-0.00068576
-0.000619248
-9.78423e-06
-0.000675976
0.00065605
-0.000665834
0.00124683
-0.000590782
0.00170217
-0.000455337
0.00197542
-0.000273251
0.00203949
-6.40744e-05
0.00187104
0.000168458
0.00150318
0.000367852
0.000979148
0.000524035
0.000359782
0.000619367
-0.00027956
0.000639341
-0.000856143
0.000576583
-0.00129677
0.000440632
-0.00154551
0.000248738
-0.00157302
2.7504e-05
-0.00136235
-0.000210662
-0.000961394
-0.000400961
-0.000430996
-0.000530398
0.000146146
-0.000577142
0.000672676
-0.000526531
0.00106129
-0.000388614
0.00124501
-0.000183716
0.00117973
6.52794e-05
0.000873922
0.000305805
0.000380543
0.000493379
-0.000219342
0.000599885
-0.000815677
0.000596335
-0.00129692
0.000481238
-0.00157091
0.000273996
-0.00158419
1.32757e-05
-0.00131349
-0.0002707
-0.000820469
-0.000493018
-0.000197672
-0.000622797
0.000431166
-0.000628839
0.000932758
-0.000501592
0.00120501
-0.000272253
0.00119482
1.01922e-05
0.000913031
0.000281788
0.000442508
0.000470523
-9.07569e-05
0.000533265
-0.000538503
0.000447746
-0.000778381
0.000239878
-0.00074424
-3.41412e-05
-0.00045232
-0.00029192
-0.00045232
4.69246e-05
8.8112e-05
0.000107614
7.25839e-05
0.000164285
8.06788e-05
0.000213856
9.35758e-05
0.000253288
0.000110925
0.00027969
0.000132636
0.000289923
0.000158888
0.000281081
0.000189333
0.000250116
0.000224004
0.000194266
0.000262414
0.000111046
0.000304031
-1.31721e-06
0.000347911
-0.000144009
0.000393216
-0.000317538
0.000438839
-0.000521794
0.000483893
-0.000755898
0.000527258
-0.0010183
0.000567892
-0.00130681
0.000604861
-0.00161866
0.000637238
-0.00195054
0.000664168
-0.00229871
0.000684946
-0.00265904
0.000698919
-0.00302727
0.000705768
-0.00339887
0.00070504
-0.00376946
0.000696836
-0.00413412
0.000680442
-0.00448881
0.000656878
-0.00482873
0.000625353
-0.00514985
0.000586757
-0.00544801
0.000541101
-0.0057197
0.000489248
-0.0059614
0.000431377
-0.00617019
0.000368328
-0.00634345
0.000300702
-0.0064789
0.000229221
-0.00657473
0.000154706
-0.00662941
7.81262e-05
-0.00664702
1.14273e-06
-0.00663123
-7.36825e-05
-0.00657821
-0.000151088
-0.00648677
-0.000228482
-0.00635663
-0.000304689
-0.00618801
-0.000378843
-0.00598211
-0.00045017
-0.00574058
-0.000518035
-0.00546577
-0.000581752
-0.00516018
-0.000640867
-0.00482683
-0.000694684
-0.00446873
-0.000742752
-0.00408904
-0.000784568
-0.00369136
-0.000819597
-0.00327925
-0.000847355
-0.0028566
-0.000867648
-0.00242759
-0.000879807
-0.00199651
-0.000883795
-0.00156735
-0.000879437
-0.00114497
-0.00086597
-0.000733579
-0.00084409
-0.000337724
-0.000813267
3.83511e-05
-0.000774032
0.000389957
-0.000726173
0.000712974
-0.00067015
0.00100333
-0.00060629
0.00125695
-0.000534649
0.00147109
-0.000457038
0.00164231
-0.000373148
0.00176814
-0.00028439
0.00184667
-0.00019136
0.00187625
-9.60644e-05
0.00185056
6.48536e-06
0.00177351
0.00011054
0.00164666
0.000208642
0.00147146
0.000303513
0.00124982
0.000394024
0.000984208
0.000479844
0.000678756
0.000558106
0.000337424
0.000628272
-3.38835e-05
0.000687949
-0.000429665
0.000736334
-0.000842764
0.000771016
-0.00126613
0.000791988
-0.00169105
0.000796808
-0.0021096
0.000785895
-0.00251281
0.000758065
-0.00289191
0.000713472
-0.00323842
0.000652089
-0.00354376
0.000574596
-0.0038
0.000481699
-0.00399934
0.000374401
-0.00413638
0.000255901
-0.00420551
0.000127484
-0.00419838
-1.85681e-05
-0.00411265
-0.000170514
-0.00395013
-0.000318423
-0.00371288
-0.00046161
-0.00340391
-0.000598328
-0.00302805
-0.000725657
-0.00259189
-0.00084041
-0.00210432
-0.000938781
-0.00157595
-0.00101683
-0.00101947
-0.00107091
-0.00044839
-0.00109911
0.000122001
-0.00109823
0.000676289
-0.00106767
0.00119837
-0.00100637
0.00167213
-0.000914443
0.00208284
-0.000794076
0.00241638
-0.000647159
0.00266154
-0.000478126
0.00280886
-0.000290938
0.0028524
-9.24445e-05
0.00277917
0.000131401
0.00259694
0.000342119
0.00231291
0.000538408
0.00193396
0.000718309
0.00147494
0.000873368
0.000949572
0.000998981
0.000380706
0.00108413
-0.0002112
0.00112788
-0.000799203
0.00112196
-0.00135849
0.00106706
-0.00186181
0.000961388
-0.00228596
0.0008099
-0.00260744
0.00061479
-0.00280947
0.000386823
-0.00287869
0.000134141
-0.00279802
-0.000154883
-0.00257449
-0.000431258
-0.00221677
-0.000687705
-0.00173984
-0.000915835
-0.00116477
-0.00110258
-0.000520268
-0.0012357
0.000160323
-0.00130532
0.000838449
-0.00130091
0.00147518
-0.00122184
0.00203151
-0.00106828
0.00247187
-0.000846471
0.00276637
-0.00056786
0.00289388
-0.000248627
0.00283264
0.000113682
0.00258868
0.000468358
0.00217644
0.000790821
0.00162019
0.00106561
0.000956776
0.00127271
0.000229194
0.0013941
-0.000506737
0.00141421
-0.00119587
0.00132577
-0.00178528
0.00113472
-0.00222604
0.000850993
-0.0024813
0.000496238
-0.00252548
9.55119e-05
-0.00234439
-0.000343058
-0.00196006
-0.000733683
-0.0014048
-0.0010616
-0.000726305
-0.00129774
1.25357e-05
-0.00141482
0.00073842
-0.00139172
0.00137876
-0.00123112
0.00186891
-0.000945486
0.00215736
-0.000561695
0.0022137
-0.000120419
0.00202191
0.000360247
0.0016127
0.00077706
0.00103295
0.00110379
0.000351229
0.00130108
-0.000349585
0.00134015
-0.000978035
0.00120503
-0.00145348
0.000916078
-0.00171534
0.000510592
-0.00173094
4.31112e-05
-0.00148974
-0.000451865
-0.00103951
-0.000851193
-0.000447679
-0.00112223
0.000193943
-0.00121876
0.000777702
-0.00111029
0.00120717
-0.000818079
0.00140868
-0.000385226
0.00133685
0.000137109
0.00100366
0.000638991
0.000462716
0.00103433
-0.000195317
0.00125792
-0.000848757
0.00124978
-0.00137614
0.00100862
-0.00167534
0.000573191
-0.00168558
2.35184e-05
-0.00139253
-0.000563748
-0.000856527
-0.00102902
-0.000180392
-0.00129893
0.000499084
-0.00130831
0.00103666
-0.00103917
0.00132071
-0.000556305
0.00129278
3.81257e-05
0.000971464
0.000603103
0.000444959
0.000997028
-0.000145933
0.00112416
-0.000638176
0.000939989
-0.00089633
0.000498033
-0.000848443
-8.20281e-05
-0.000513434
-0.00062693
-0.000965753
0.000112182
-2.40709e-05
0.000225134
-4.03683e-05
0.000321285
-1.54736e-05
0.000396281
1.85789e-05
0.000446979
6.02266e-05
0.000465237
0.000114377
0.000442447
0.000181677
0.000372783
0.000258997
0.00024945
0.000347337
6.99805e-05
0.000441882
-0.000167887
0.000541898
-0.000463838
0.000643861
-0.000817284
0.000746661
-0.00122572
0.000847274
-0.00168598
0.000944153
-0.00219334
0.00103462
-0.00274254
0.00111709
-0.00332665
0.00118897
-0.00393912
0.0012497
-0.00457143
0.00129649
-0.00521517
0.00132868
-0.005861
0.00134475
-0.00649998
0.00134475
-0.00712243
0.0013275
-0.00771983
0.00129423
-0.00828355
0.00124416
-0.00880648
0.00117981
-0.00928171
0.00110058
-0.00970509
0.00101013
-0.0100723
0.000908289
-0.0103809
0.000797877
-0.0106289
0.000679407
-0.0108156
0.000555017
-0.0109406
0.000425687
-0.0110046
0.00029325
-0.0110093
0.000159353
-0.0109593
2.81612e-05
-0.0108323
-0.000125866
-0.0106374
-0.00026862
-0.0103834
-0.00040505
-0.0100768
-0.000535073
-0.00972223
-0.000659284
-0.0093239
-0.000777168
-0.00888471
-0.000889363
-0.00840876
-0.00099398
-0.00789842
-0.00109209
-0.00735846
-0.00118083
-0.00679274
-0.00126041
-0.0062055
-0.00132999
-0.00560076
-0.00138931
-0.00498293
-0.00143743
-0.00435764
-0.00147264
-0.00372996
-0.00149533
-0.00310386
-0.00150591
-0.00248528
-0.00150238
-0.00187908
-0.00148564
-0.00129071
-0.00145434
-0.00072387
-0.00141093
-0.000184927
-0.00135221
0.000322336
-0.0012813
0.000791712
-0.00119555
0.00121825
-0.00109668
0.00159841
-0.000986449
0.00192781
-0.000864051
0.00220294
-0.000732173
0.00242062
-0.000590824
0.00257873
-0.0004425
0.00267493
-0.000287558
0.00270894
-0.000130073
0.00267563
3.97864e-05
0.00258163
0.000204544
0.00242494
0.000365331
0.0022073
0.000521157
0.00193089
0.000670432
0.00160055
0.000810181
0.00122107
0.000937586
0.000798306
0.00105104
0.00033868
0.00114757
-0.000149789
0.0012248
-0.000659126
0.00128035
-0.00117974
0.0013126
-0.00170195
0.00131901
-0.00221558
0.00129953
-0.00271017
0.00125266
-0.00317483
0.00117813
-0.00359933
0.00107659
-0.00397334
0.00094861
-0.00428661
0.000794972
-0.00453199
0.000619772
-0.00470099
0.000424904
-0.00478577
0.000212263
-0.00478081
-2.35273e-05
-0.00468267
-0.000268649
-0.00449321
-0.000507886
-0.00421396
-0.000740856
-0.00384848
-0.000963816
-0.00340218
-0.00117195
-0.00288408
-0.00135851
-0.00230403
-0.00151883
-0.00167598
-0.00164489
-0.00101449
-0.0017324
-0.000336129
-0.00177747
0.000340587
-0.00177494
0.000996614
-0.00172369
0.00161318
-0.00162294
0.00217056
-0.00147182
0.00265178
-0.0012753
0.00303964
-0.00103501
0.00331925
-0.000757733
0.00348
-0.000451693
0.00351336
-0.0001258
0.00341331
0.000231451
0.00318499
0.00057044
0.00283376
0.000889633
0.00236876
0.00118331
0.00180627
0.00143585
0.00116623
0.00163903
0.000473392
0.00177696
-0.000244242
0.00184552
-0.000956744
0.00183446
-0.00163237
0.00174268
-0.00224025
0.00156927
-0.00275089
0.00132054
-0.00313741
0.00100131
-0.0033789
0.000628316
-0.00345942
0.000214661
-0.00336245
-0.000251853
-0.00309626
-0.000697452
-0.00266849
-0.00111547
-0.00209709
-0.00148723
-0.00140827
-0.0017914
-0.000635804
-0.00200816
0.000178126
-0.00211925
0.000989151
-0.00211194
0.00174876
-0.00198145
0.00241149
-0.00173101
0.00293293
-0.00136792
0.00327901
-0.000913936
0.00342427
-0.000393891
0.00334594
0.00019202
0.00305276
0.000761532
0.0025587
0.00128488
0.00189219
0.00173212
0.00109668
0.00206822
0.000230422
0.00226036
-0.000649339
0.00229397
-0.00147001
0.00214644
-0.00216764
0.00183235
-0.00268415
0.00136751
-0.00297537
0.000787457
-0.00301817
0.000138311
-0.00279096
-0.000570267
-0.00232194
-0.0012027
-0.00164911
-0.00173444
-0.000830825
-0.00211602
5.50297e-05
-0.00230067
0.000921816
-0.0022585
0.00168263
-0.00199194
0.00225938
-0.00152223
0.0025905
-0.000892814
0.00264106
-0.000170988
0.00239566
0.00060565
0.00189036
0.00128236
0.00118252
0.00181163
0.000355619
0.00212799
-0.000488075
0.00218385
-0.00123896
0.00195592
-0.00180113
0.00147824
-0.00210082
0.000810281
-0.00209418
3.64708e-05
-0.0017881
-0.000757942
-0.0012286
-0.00141069
-0.000499848
-0.00185098
0.000285432
-0.00200404
0.000996783
-0.00182164
0.00151821
-0.00133951
0.00176014
-0.000627151
0.00167231
0.000224934
0.00127003
0.00104127
0.000616705
0.00168765
-0.000177672
0.00205229
-0.000965805
0.00203791
-0.00159936
0.00164217
-0.00195719
0.000931024
-0.00196341
2.97361e-05
-0.0016127
-0.000914456
-0.000970809
-0.00167091
-0.000164146
-0.0021056
0.000641895
-0.00211436
0.00127175
-0.00166902
0.00159265
-0.000877203
0.00153639
9.43822e-05
0.00112881
0.00101068
0.000477754
0.00164809
-0.000244746
0.00184666
-0.000840292
0.00153553
-0.00114441
0.000802152
-0.00107147
-0.000154966
-0.000645437
-0.00105297
-0.00161119
0.000571467
-0.000595538
0.00115867
-0.000627576
0.00174309
-0.000599887
0.00231344
-0.000551776
0.00285464
-0.00048097
0.00336096
-0.000391945
0.0038202
-0.000277567
0.00422665
-0.00014745
0.00457231
1.67496e-06
0.00480657
0.000207615
0.00491908
0.000429393
0.004905
0.000657942
0.00476046
0.000891193
0.00448837
0.00111937
0.00409367
0.00133885
0.00358552
0.00154277
0.00297527
0.00172734
0.00227616
0.00188807
0.00150242
0.00202345
0.000672549
0.00212635
-0.000196534
0.00219776
-0.00108747
0.00223568
-0.00198487
0.00224215
-0.00287043
0.00221305
-0.00373151
0.00215531
-0.00455046
0.00206311
-0.00531991
0.00194926
-0.00602386
0.00180453
-0.006662
0.00164827
-0.00722236
0.00146865
-0.0077046
0.00128012
-0.00810366
0.00107847
-0.0084198
0.000871158
-0.00865225
0.000658128
-0.00880246
0.000443463
-0.00887201
0.000228903
-0.00885956
1.57126e-05
-0.00880351
-0.000181923
-0.00868773
-0.000384394
-0.00851041
-0.000582371
-0.00827199
-0.000773496
-0.00797489
-0.000956379
-0.00762252
-0.00112955
-0.00721967
-0.00129221
-0.00677031
-0.00144334
-0.00628048
-0.00158192
-0.00575387
-0.00170744
-0.0051955
-0.00181878
-0.00461037
-0.00191512
-0.00400405
-0.00199563
-0.00338204
-0.00205944
-0.00274892
-0.00210576
-0.00210973
-0.00213452
-0.00147119
-0.00214445
-0.000838606
-0.00213496
-0.000216927
-0.00210732
0.000386737
-0.00205801
0.000965721
-0.00198991
0.00151463
-0.00190112
0.00202785
-0.00179451
0.00250017
-0.00166787
0.00292572
-0.00152223
0.00329946
-0.00136019
0.00361654
-0.00118114
0.00387205
-0.00098768
0.00406258
-0.00078135
0.00418233
-0.000562256
0.00423333
-0.000338551
0.00421154
-0.000108286
0.00410811
0.000143218
0.00393229
0.000380363
0.00368454
0.000613079
0.00336729
0.000838412
0.00298252
0.0010552
0.00253492
0.00125778
0.00203029
0.00144221
0.00147561
0.00160572
0.00087933
0.00174386
0.000251057
0.00185308
-0.000398978
0.00193039
-0.00106064
0.00197426
-0.00172188
0.00198026
-0.00236959
0.00194724
-0.00299187
0.00187493
-0.00357491
0.00176117
-0.0041072
0.00160888
-0.0045756
0.00141701
-0.00496764
0.00118701
-0.00527523
0.000927355
-0.0054874
0.000637083
-0.00559436
0.000319213
-0.00559222
-2.56661e-05
-0.00547786
-0.000383005
-0.00525204
-0.000733705
-0.00491585
-0.00107705
-0.00447363
-0.00140604
-0.00393217
-0.00171341
-0.0033027
-0.00198798
-0.00259831
-0.00222322
-0.00183566
-0.00240754
-0.00103323
-0.00253483
-0.000210982
-0.00259971
0.000607609
-0.00259353
0.00140057
-0.00251666
0.00214359
-0.00236596
0.00281436
-0.00214259
0.00338811
-0.00184905
0.00384845
-0.00149535
0.00417713
-0.00108641
0.00436036
-0.000634923
0.00438951
-0.000154956
0.00425188
0.000369085
0.00395795
0.000864367
0.00351384
0.00133374
0.00293249
0.00176467
0.00223301
0.00213533
0.00144024
0.0024318
0.000584503
0.0026327
-0.000299691
0.00272971
-0.00117665
0.00271142
-0.00200637
0.00257241
-0.00275227
0.00231517
-0.00337677
0.00194504
-0.00384811
0.00147265
-0.00414129
0.000921494
-0.00423565
0.000309019
-0.0041165
-0.000371006
-0.00379021
-0.00102374
-0.00326679
-0.00163889
-0.00256792
-0.0021861
-0.00172611
-0.00263321
-0.000783479
-0.00295079
0.000210409
-0.00311313
0.00119787
-0.0030994
0.00212217
-0.00290575
0.00292593
-0.00253477
0.00355782
-0.00199981
0.00397332
-0.00132943
0.00413933
-0.000559906
0.0040384
0.000292953
0.00367557
0.00112436
0.00306852
0.00189193
0.00225272
0.00254792
0.00128186
0.00303908
0.000222584
0.00331964
-0.000842881
0.00335943
-0.00183618
0.00313974
-0.00267772
0.00267388
-0.00329857
0.00198836
-0.00363985
0.00112874
-0.00367228
0.000170743
-0.00338513
-0.00085742
-0.00280285
-0.00178498
-0.00197164
-0.00256565
-0.000968005
-0.00311966
0.000115953
-0.00338463
0.00117211
-0.00331466
0.00209387
-0.0029137
0.00278498
-0.00221334
0.00317289
-0.00128073
0.00321073
-0.000208831
0.00289574
0.000920641
0.00226226
0.00191584
0.00138209
0.0026918
0.000361817
0.00314826
-0.00067254
0.00321821
-0.00158757
0.00287095
-0.00226425
0.00215492
-0.00261498
0.00116101
-0.00258202
3.51875e-06
-0.00218729
-0.00115268
-0.0014814
-0.00211658
-0.000570366
-0.00276202
0.000406575
-0.00298098
0.00128715
-0.00270221
0.00192944
-0.0019818
0.00222353
-0.000921237
0.00211296
0.000335495
0.00161523
0.00153901
0.000809158
0.00249372
-0.000167414
0.00302887
-0.00113317
0.00300366
-0.00190872
0.00241772
-0.00234394
0.00136625
-0.00234564
3.14314e-05
-0.00191416
-0.00134593
-0.00112763
-0.00245744
-0.000143567
-0.00308966
0.000831854
-0.00308978
0.00158636
-0.00242353
0.00195751
-0.00124836
0.00186512
0.000186781
0.00134236
0.00153344
0.000524652
0.00246579
-0.000373717
0.00274503
-0.00110739
0.00226921
-0.00147358
0.00116834
-0.00136746
-0.000261091
-0.000820321
-0.0016001
-0.00243151
0.00131756
-0.0019131
0.00265548
-0.0019655
0.00396115
-0.00190556
0.00520475
-0.00179538
0.00634492
-0.00162114
0.00734556
-0.00139258
0.00813173
-0.00106374
0.0086616
-0.000677313
0.00882068
-0.000157412
0.00869527
0.000333024
0.00829626
0.00082841
0.007659
0.0012952
0.00680281
0.00174738
0.00575181
0.00217037
0.00452916
0.0025615
0.00316071
0.00291122
0.00167431
0.00321374
9.73231e-05
0.00346506
-0.00153999
0.00366076
-0.00320895
0.00379531
-0.00488124
0.00387005
-0.00651876
0.0038732
-0.00809116
0.00381455
-0.00956161
0.00368351
-0.0109077
0.00350142
-0.0120933
0.00324874
-0.013113
0.00296892
-0.0139408
0.00263227
-0.0146019
0.00230941
-0.0150988
0.00196552
-0.0154484
0.00162978
-0.0156602
0.00129029
-0.0157455
0.000956415
-0.0157149
0.000627534
-0.0155815
0.000310077
-0.0153511
-1.53372e-06
-0.0150046
-0.000330811
-0.01456
-0.000626489
-0.0140413
-0.000903129
-0.013459
-0.00116461
-0.0128196
-0.00141291
-0.0121296
-0.00164633
-0.0113943
-0.00186487
-0.010619
-0.00206756
-0.00980781
-0.0022545
-0.00896672
-0.00242301
-0.00810291
-0.00257125
-0.00722163
-0.00270006
-0.00632692
-0.00280982
-0.00542388
-0.00289868
-0.00451876
-0.00296456
-0.00361731
-0.00300721
-0.00272382
-0.00302801
-0.00184684
-0.00302142
-0.000990761
-0.00299105
-0.000161256
-0.00293682
0.000635767
-0.00285503
0.00139358
-0.00274773
0.00210452
-0.00261206
0.00276294
-0.00245293
0.00336393
-0.00226885
0.00390012
-0.00205842
0.00436587
-0.00182593
0.00475658
-0.00157185
0.00506754
-0.00129864
0.00529582
-0.00100963
0.00543686
-0.000703298
0.00548699
-0.000388679
0.00544563
-6.6929e-05
0.00531704
0.000271812
0.0050978
0.000599603
0.00478889
0.000921992
0.00439274
0.00123456
0.00391516
0.00153279
0.00336157
0.00181136
0.00273963
0.00206416
0.00205745
0.00228789
0.00132556
0.00247574
0.000554889
0.00262375
-0.00024139
0.00272667
-0.00104956
0.00278243
-0.0018559
0.0027866
-0.00264491
0.00273625
-0.00340149
0.00263151
-0.00411013
0.00246981
-0.0047556
0.00225435
-0.00532311
0.00198453
-0.00579787
0.00166177
-0.00616896
0.00129844
-0.00642255
0.000890678
-0.00655154
0.000448207
-0.0065481
-2.91051e-05
-0.00641084
-0.000520273
-0.00613815
-0.00100639
-0.00573292
-0.00148227
-0.00519944
-0.00193952
-0.00454732
-0.00236553
-0.00378953
-0.00274577
-0.00294231
-0.00307045
-0.00202565
-0.00332419
-0.00106171
-0.00349877
-7.58691e-05
-0.00358556
0.000904648
-0.00357405
0.00185312
-0.00346512
0.00273899
-0.00325183
0.00353686
-0.00294047
0.0042188
-0.00253099
0.00475933
-0.00203587
0.00513917
-0.00146626
0.00534443
-0.00084018
0.00535681
-0.000167336
0.00518169
0.000544204
0.00481666
0.00122939
0.00426973
0.00188067
0.00355746
0.00247693
0.0027035
0.0029893
0.00173844
0.00339686
0.000698322
0.00367281
-0.000373872
0.00380191
-0.0014358
0.00377335
-0.00243883
0.00357543
-0.00333934
0.00321569
-0.00409163
0.00269733
-0.00465716
0.00203818
-0.00500676
0.0012711
-0.0051133
0.000415553
-0.0049677
-0.000516606
-0.00457185
-0.00141959
-0.00393853
-0.00227221
-0.00309392
-0.00303071
-0.00207801
-0.00364912
-0.000942215
-0.00408659
0.000253999
-0.00430935
0.0014405
-0.0042859
0.00254956
-0.00401481
0.00351071
-0.00349592
0.00426472
-0.00275382
0.00475716
-0.00182187
0.00494875
-0.000751496
0.00482281
0.000418894
0.00438006
0.00156711
0.0036424
0.00262959
0.00265622
0.00353411
0.00148802
0.00420728
0.000215292
0.00459236
-0.00106498
0.00463971
-0.00225422
0.00432898
-0.00325682
0.00367648
-0.00399001
0.00272155
-0.00439212
0.00153086
-0.00441182
0.000190441
-0.00405529
-0.00121396
-0.00334148
-0.00249879
-0.00233285
-0.00357428
-0.00111606
-0.00433645
0.000191967
-0.00469265
0.0014612
-0.00458389
0.0025627
-0.00401521
0.00338356
-0.0030342
0.00383287
-0.00173004
0.00386199
-0.000237947
0.00346028
0.00132235
0.00267727
0.00269885
0.0016022
0.00376687
0.000362288
0.00438818
-0.000888997
0.00446949
-0.00198747
0.00396943
-0.00279124
0.00295869
-0.00319456
0.00156433
-0.00313624
-5.4796e-05
-0.00263724
-0.00165168
-0.00176327
-0.00299054
-0.000644748
-0.00388054
0.000547028
-0.00417276
0.00161817
-0.00377335
0.00239575
-0.00275938
0.00274755
-0.00127304
0.00260922
0.000473823
0.00200108
0.00214714
0.00102092
0.00347388
-0.0001634
0.00421319
-0.00133232
0.00417258
-0.00226637
0.00335178
-0.00278667
0.00188654
-0.0027833
2.80639e-05
-0.00225709
-0.00187214
-0.00130456
-0.00340997
-0.000117431
-0.00427679
0.00104976
-0.00425697
0.00194492
-0.00331868
0.00237226
-0.0016757
0.00223844
0.000320596
0.00158329
0.00218859
0.000575457
0.00347363
-0.000523036
0.00384352
-0.00141332
0.0031595
-0.00184949
0.00160451
-0.00170557
-0.000405011
-0.00102053
-0.00228514
-0.00345204
0.00184858
-0.00376168
0.00371429
-0.0038312
0.00559952
-0.00379079
0.00751511
-0.00371098
0.00946579
-0.00357182
0.0114666
-0.00339338
0.0133838
-0.00298099
0.0151236
-0.00241706
0.0164165
-0.00145038
0.0173065
-0.000556962
0.0176901
0.00044484
0.0175505
0.00143485
0.0169153
0.00238252
0.01584
0.00324573
0.0143847
0.00401671
0.0126126
0.00468342
0.0105856
0.00524066
0.00836789
0.0056828
0.00601715
0.00601151
0.00359912
0.00621334
0.00117233
0.00629684
-0.00120195
0.00624748
-0.00347907
0.00609167
-0.00559376
0.0057982
-0.0075231
0.00543076
-0.00918903
0.00491467
-0.0106136
0.00439345
-0.0116835
0.00370224
-0.0125849
0.00321082
-0.0132424
0.00262293
-0.0137265
0.00211388
-0.0140237
0.00158751
-0.0141606
0.0010933
-0.0141473
0.000614301
-0.0140059
0.00016863
-0.0137673
-0.000240134
-0.01346
-0.000638084
-0.0130698
-0.00101667
-0.0125989
-0.00137404
-0.0120545
-0.00170906
-0.0114452
-0.00202213
-0.0107783
-0.00231325
-0.0100612
-0.00258205
-0.00929988
-0.00282884
-0.00850086
-0.00305352
-0.00766919
-0.00325468
-0.00680861
-0.00343183
-0.0059235
-0.00358517
-0.0050214
-0.00371192
-0.00410696
-0.00381312
-0.0031854
-0.00388612
-0.00226256
-0.00393005
-0.00134532
-0.00394524
-0.000438215
-0.00392853
0.000449806
-0.00387907
0.00131219
-0.00379921
0.00214058
-0.00368342
0.00292809
-0.00353524
0.00366878
-0.00335274
0.00435636
-0.00314052
0.00497838
-0.00289087
0.0055314
-0.00261144
0.0060078
-0.00230233
0.00640085
-0.0019649
0.00670556
-0.00160335
0.00691783
-0.00122191
0.00703181
-0.000817269
0.00704249
-0.000399364
0.00694186
3.37055e-05
0.00674548
0.000468186
0.00644519
0.000899891
0.0060435
0.00132369
0.00554328
0.00173478
0.00494915
0.00212692
0.0042688
0.00249171
0.00351087
0.00282209
0.00268582
0.00311294
0.00180431
0.00335725
0.000880649
0.00354741
-7.12049e-05
0.00367852
-0.00103632
0.00374755
-0.00199582
0.00374609
-0.00293425
0.00367468
-0.00383118
0.00352845
-0.00467084
0.00330947
-0.00543366
0.00301717
-0.00610334
0.00265421
-0.00666298
0.00222141
-0.00709935
0.00173481
-0.00739609
0.00118742
-0.00754594
0.000598054
-0.00754054
-3.45032e-05
-0.00737836
-0.000682455
-0.0070568
-0.00132794
-0.00657796
-0.00196112
-0.0059487
-0.00256878
-0.00518144
-0.00313279
-0.00429026
-0.00363695
-0.00329557
-0.00406514
-0.00222111
-0.00439864
-0.00109093
-0.00462895
6.31701e-05
-0.00473966
0.00121012
-0.004721
0.00231775
-0.00457276
0.0033515
-0.00428558
0.00427689
-0.00386586
0.00506846
-0.00332256
0.00569427
-0.00266168
0.00612809
-0.00190008
0.00635155
-0.00106364
0.00635676
-0.000172546
0.00613704
0.000763932
0.00569412
0.00167231
0.00503856
0.00253624
0.00419064
0.00332486
0.00317593
0.004004
0.00203253
0.00454026
0.000801743
0.0049036
-0.000462963
0.00506661
-0.00171422
0.0050246
-0.0028943
0.00475551
-0.00395206
0.00427344
-0.0048339
0.00357917
-0.00549501
0.00269929
-0.0059012
0.00167728
-0.00601801
0.000532364
-0.00584346
-0.000691153
-0.00537374
-0.00188931
-0.00462582
-0.00302013
-0.00363026
-0.00402628
-0.00243447
-0.00484491
-0.00109836
-0.0054227
0.00030615
-0.00571386
0.00169821
-0.00567796
0.00299521
-0.00531181
0.00411921
-0.00461992
0.00499616
-0.00363077
0.00556585
-0.00239156
0.00578388
-0.000969529
0.00562561
0.000577163
0.00509969
0.00209303
0.00422936
0.00349992
0.0030664
0.00469707
0.00168977
0.00558391
0.000201318
0.00608081
-0.00130123
0.00614225
-0.00269126
0.00571901
-0.00385865
0.00484388
-0.00470654
0.00356944
-0.0051575
0.00198181
-0.00517396
0.000206902
-0.00473893
-0.00164899
-0.00388884
-0.00334888
-0.0026917
-0.00477141
-0.00125829
-0.00576987
0.000280012
-0.00623095
0.00176671
-0.00607058
0.00305552
-0.00530402
0.00400648
-0.00398517
0.00451751
-0.00224106
0.00452591
-0.000246347
0.0040392
0.00180905
0.00310017
0.00363789
0.00182049
0.00504655
0.000354897
0.00585377
-0.00111904
0.00594343
-0.00240695
0.00525734
-0.00334249
0.00389423
-0.00379735
0.00201919
-0.00371042
-0.000141726
-0.00309992
-0.00226218
-0.00205018
-0.00404028
-0.000716451
-0.00521427
0.000699196
-0.00558841
0.00196575
-0.00503991
0.00288104
-0.00367466
0.00328907
-0.00168107
0.00311928
0.000643616
0.00239384
0.00287258
0.00123126
0.00463646
-0.000166807
0.00561126
-0.00154228
0.00554805
-0.00263932
0.00444881
-0.00324645
0.00249368
-0.00323609
1.7708e-05
-0.00261028
-0.00249795
-0.00148433
-0.00453592
-8.61881e-05
-0.00567493
0.00127869
-0.00562185
0.00231865
-0.00435864
0.00280269
-0.00215974
0.00262346
0.000499825
0.00182967
0.00298239
0.000623845
0.00467945
-0.000682193
0.00514956
-0.00173495
0.00421225
-0.00224323
0.00211279
-0.00205835
-0.000589895
-0.0012286
-0.00311489
-0.00468064
0.00364418
-0.00740586
0.00735449
-0.00754152
0.0112323
-0.00766857
0.0154219
-0.00790056
0.0200722
-0.00822217
0.025206
-0.00852713
0.0302947
-0.0080697
0.0343583
-0.00648074
0.0355306
-0.00262264
0.0346927
0.000280958
0.0325407
0.00259678
0.0296722
0.00430334
0.026348
0.00570679
0.0226866
0.00690714
0.0187643
0.00793897
0.0146513
0.00879637
0.0104156
0.00947642
0.00611825
0.00998012
0.00182103
0.0103087
-0.00242664
0.010461
-0.00657192
0.0104421
-0.0105007
0.0101762
-0.0141452
0.00973621
-0.0173765
0.0090295
-0.020105
0.00815922
-0.022155
0.0069647
-0.0234693
0.00570775
-0.0238686
0.00410148
-0.0239274
0.00326967
-0.0237253
0.00242085
-0.0233582
0.00174677
-0.0228543
0.00108363
-0.0222454
0.000484401
-0.0215301
-0.000101068
-0.0207108
-0.000650586
-0.0198182
-0.0011328
-0.0188772
-0.00157909
-0.0178999
-0.00199391
-0.0168901
-0.00238383
-0.0158521
-0.00274711
-0.014789
-0.00308517
-0.0137059
-0.00339642
-0.012604
-0.00368388
-0.0114869
-0.003946
-0.0103583
-0.00418206
-0.00922154
-0.00439148
-0.00807749
-0.00457588
-0.0069315
-0.00473115
-0.00578534
-0.00485808
-0.00464474
-0.00495372
-0.00351175
-0.00501911
-0.00239179
-0.00505001
-0.00129124
-0.00504579
-0.000215815
-0.00500395
0.000830985