/*--------------------------------*- C++ -*----------------------------------*\
  =========                 |
  \\      /  F ield         | OpenFOAM: The Open Source CFD Toolbox
   \\    /   O peration     | Website:  https://openfoam.org
    \\  /    A nd           | Version:  12
     \\/     M anipulation  |
\*---------------------------------------------------------------------------*/
FoamFile
{
    format      ascii;
    class       volScalarField;
    location    "7";
    object      p;
}
// * * * * * * * * * * * * * * * * * * * * * * * * * * * * * * * * * * * * * //

dimensions      [0 2 -2 0 0 0 0];

internalField   nonuniform List<scalar> 
400
(
4.41122e-08
-0.00010314
-0.00023823
-0.000107252
-0.000781929
-0.0023953
-0.00430699
-0.00601791
-0.00736864
-0.00830353
-0.00882156
-0.00889783
-0.0084791
-0.00736511
-0.00528711
-0.00213818
0.00196902
0.00648627
0.0097998
0.0112264
5.55529e-06
-7.19927e-05
-0.000207465
-0.000737189
-0.00188003
-0.00355973
-0.00527253
-0.00687676
-0.00810851
-0.00895333
-0.00941812
-0.00953042
-0.00923598
-0.00840108
-0.00677135
-0.00416446
-0.000561793
0.00373391
0.0074829
0.00962661
0.000293522
-0.000110096
-0.00081258
-0.00200159
-0.00362441
-0.00535117
-0.00702728
-0.0085004
-0.00953968
-0.0101906
-0.0104998
-0.0105205
-0.0102325
-0.00956994
-0.00839324
-0.00654445
-0.00381046
-0.000188663
0.00348579
0.00596431
0.000191707
-0.00055058
-0.00187183
-0.00365463
-0.00554821
-0.00729111
-0.00874931
-0.009811
-0.0105312
-0.0109568
-0.0111125
-0.0110516
-0.0107921
-0.0103027
-0.0094815
-0.00822807
-0.00637503
-0.00365094
-0.000551412
0.00176341
-0.000606219
-0.00159509
-0.00335091
-0.0053803
-0.00722444
-0.00873396
-0.00989096
-0.0107265
-0.0112864
-0.0115979
-0.0116807
-0.0115804
-0.0113332
-0.0109405
-0.0103245
-0.00940143
-0.00819437
-0.00631024
-0.00407231
-0.00202
-0.00207951
-0.00313598
-0.00496453
-0.00690527
-0.00853841
-0.00980103
-0.0107938
-0.0115275
-0.0120039
-0.0122384
-0.0122662
-0.0121379
-0.0118968
-0.0115612
-0.0110876
-0.0103809
-0.00956243
-0.00825431
-0.00675376
-0.00508899
-0.00378539
-0.00477971
-0.00645001
-0.00818758
-0.0096047
-0.0107059
-0.0116104
-0.0122926
-0.0127194
-0.0129011
-0.0128824
-0.0127176
-0.0124731
-0.0121664
-0.0117917
-0.0112192
-0.0106403
-0.00970345
-0.0087271
-0.00740879
-0.00532902
-0.00620972
-0.00767996
-0.0092286
-0.0104754
-0.0114821
-0.0123506
-0.0129967
-0.0133825
-0.0135184
-0.0134544
-0.013252
-0.0129997
-0.0127075
-0.0124029
-0.0119159
-0.0114862
-0.0107667
-0.0101067
-0.00910084
-0.00647309
-0.00725999
-0.00858724
-0.0100216
-0.0111603
-0.0121184
-0.0129665
-0.013585
-0.0139401
-0.0140371
-0.0139359
-0.0136989
-0.0134339
-0.0131438
-0.012889
-0.0124441
-0.0121238
-0.0114787
-0.0110838
-0.0102824
-0.00715721
-0.0078662
-0.00912219
-0.010518
-0.0116087
-0.0125473
-0.0133888
-0.0139971
-0.0143395
-0.0144061
-0.0142809
-0.0140238
-0.0137516
-0.0134566
-0.013244
-0.0127812
-0.0125902
-0.0118324
-0.0117288
-0.0110183
-0.00734863
-0.00802057
-0.0092559
-0.0106669
-0.0117787
-0.0127305
-0.013576
-0.0141878
-0.0145424
-0.0145905
-0.0144663
-0.0142026
-0.0139327
-0.0136288
-0.0134409
-0.012915
-0.0128403
-0.0118484
-0.0121216
-0.011262
-0.00704582
-0.00773532
-0.00897872
-0.0104454
-0.0116299
-0.0126312
-0.0134888
-0.0141239
-0.0145008
-0.0145941
-0.0144837
-0.0142309
-0.0139619
-0.0136588
-0.0134319
-0.0128882
-0.0127676
-0.011576
-0.0121141
-0.0109465
-0.00632362
-0.00706372
-0.00833467
-0.00986119
-0.011142
-0.0122151
-0.0131225
-0.0138167
-0.0142555
-0.0144089
-0.0143379
-0.0141093
-0.0138398
-0.0135244
-0.0132109
-0.0126492
-0.0122839
-0.0109958
-0.0115906
-0.0100161
-0.00541902
-0.00618304
-0.00742914
-0.00891741
-0.0103097
-0.0114858
-0.0124886
-0.0132767
-0.0138035
-0.0140366
-0.014027
-0.013837
-0.013561
-0.0132035
-0.0127666
-0.0121157
-0.0114022
-0.0100411
-0.010541
-0.00850893
-0.00455419
-0.00526664
-0.00637811
-0.00770135
-0.00914021
-0.010454
-0.0116052
-0.0125245
-0.0131724
-0.0135124
-0.0135833
-0.0134281
-0.0131225
-0.012674
-0.0120658
-0.011215
-0.0101474
-0.00868975
-0.00900833
-0.00647062
-0.00418643
-0.00454106
-0.00523081
-0.00625943
-0.00763566
-0.00909419
-0.0104493
-0.0115604
-0.0123802
-0.012861
-0.0130154
-0.0128815
-0.0125197
-0.0119293
-0.0110968
-0.00996928
-0.00859117
-0.00702344
-0.00704745
-0.00393585
-0.00428572
-0.00413918
-0.00405597
-0.00463289
-0.00586597
-0.00741254
-0.00898594
-0.0103252
-0.0113512
-0.0120117
-0.0122935
-0.0122047
-0.0117755
-0.0110206
-0.00993987
-0.00851722
-0.00684396
-0.00512226
-0.00469851
-0.000760914
-0.00417208
-0.00356776
-0.00278095
-0.00290436
-0.00398385
-0.00557628
-0.00731013
-0.00884707
-0.0100725
-0.0109077
-0.0113192
-0.0112902
-0.0108472
-0.00999115
-0.00873043
-0.00706265
-0.00511421
-0.00305286
-0.00158257
0.00447596
-0.00361099
-0.00271154
-0.00157778
-0.00149264
-0.00245965
-0.00407751
-0.00591699
-0.00764551
-0.00904945
-0.0100516
-0.0105889
-0.0106521
-0.0102256
-0.00931549
-0.00794128
-0.00609074
-0.00375835
-0.000648088
0.00457786
0.0174043
-0.00490459
-0.00179613
-0.000467567
-0.000518832
-0.0014342
-0.00306838
-0.00496497
-0.00685744
-0.00841752
-0.00955365
-0.0101928
-0.0103358
-0.00996244
-0.00909291
-0.00767303
-0.00562244
-0.00212302
0.00483825
0.0189384
0.0418461
)
;

boundaryField
{
    movingWall
    {
        type            zeroGradient;
    }
    fixedWalls
    {
        type            zeroGradient;
    }
    frontAndBack
    {
        type            empty;
    }
}


// ************************************************************************* //
