/*--------------------------------*- C++ -*----------------------------------*\
  =========                 |
  \\      /  F ield         | OpenFOAM: The Open Source CFD Toolbox
   \\    /   O peration     | Website:  https://openfoam.org
    \\  /    A nd           | Version:  12
     \\/     M anipulation  |
\*---------------------------------------------------------------------------*/
FoamFile
{
    format      ascii;
    class       surfaceScalarField;
    location    "7";
    object      phi;
}
// * * * * * * * * * * * * * * * * * * * * * * * * * * * * * * * * * * * * * //

dimensions      [0 3 -1 0 0 0 0];

internalField   nonuniform List<scalar> 
760
(
3.00675e-07
-3.00679e-07
1.69564e-07
1.3111e-07
-5.51496e-07
7.2106e-07
-2.07217e-06
1.52067e-06
-3.78482e-06
1.71265e-06
-5.19676e-06
1.41195e-06
-6.39719e-06
1.20043e-06
-7.2539e-06
8.56706e-07
-7.93959e-06
6.85688e-07
-8.3797e-06
4.40115e-07
-8.69983e-06
3.20128e-07
-8.82408e-06
1.24251e-07
-8.81451e-06
-9.567e-09
-8.60021e-06
-2.14302e-07
-8.18706e-06
-4.13154e-07
-7.37192e-06
-8.15135e-07
-6.08175e-06
-1.29017e-06
-4.13239e-06
-1.94936e-06
-1.77323e-06
-2.35916e-06
-1.77323e-06
-2.75918e-07
-2.47614e-08
-1.24448e-06
1.09968e-06
-2.88776e-06
2.36433e-06
-4.43892e-06
3.07184e-06
-5.50695e-06
2.78068e-06
-6.50343e-06
2.40842e-06
-7.21536e-06
1.91236e-06
-7.84805e-06
1.48939e-06
-8.25801e-06
1.09565e-06
-8.54503e-06
7.27128e-07
-8.64438e-06
4.19488e-07
-8.62418e-06
1.0405e-07
-8.48387e-06
-1.49876e-07
-8.24943e-06
-4.48746e-07
-7.82254e-06
-8.40039e-07
-7.20312e-06
-1.43456e-06
-6.16952e-06
-2.32377e-06
-4.59575e-06
-3.52313e-06
-2.38597e-06
-4.56894e-06
-4.15919e-06
-1.00826e-06
9.83499e-07
-2.52442e-06
2.61584e-06
-3.91451e-06
3.75442e-06
-4.87074e-06
4.02807e-06
-5.60004e-06
3.50997e-06
-6.14512e-06
2.95351e-06
-6.44347e-06
2.2107e-06
-6.56862e-06
1.61454e-06
-6.50524e-06
1.03228e-06
-6.42872e-06
6.50607e-07
-6.30599e-06
2.96764e-07
-6.24462e-06
4.26752e-08
-6.11111e-06
-2.83387e-07
-5.95222e-06
-6.07631e-07
-5.67748e-06
-1.11478e-06
-5.29686e-06
-1.81518e-06
-4.75753e-06
-2.8631e-06
-3.81925e-06
-4.46141e-06
-2.24308e-06
-6.14512e-06
-6.40227e-06
-1.33732e-06
2.32082e-06
-2.7756e-06
4.05411e-06
-3.81004e-06
4.78886e-06
-4.41912e-06
4.63715e-06
-4.72974e-06
3.82059e-06
-4.75022e-06
2.97399e-06
-4.65415e-06
2.11464e-06
-4.56728e-06
1.52767e-06
-4.49801e-06
9.63009e-07
-4.4232e-06
5.75796e-07
-4.31705e-06
1.90611e-07
-4.19804e-06
-7.63316e-08
-4.08027e-06
-4.01159e-07
-3.96631e-06
-7.21591e-07
-3.81194e-06
-1.26915e-06
-3.58539e-06
-2.04173e-06
-3.27092e-06
-3.17758e-06
-2.72708e-06
-5.00526e-06
-1.72096e-06
-7.15124e-06
-8.12323e-06
-1.31265e-06
3.63347e-06
-2.43178e-06
5.17324e-06
-3.13918e-06
5.49626e-06
-3.47872e-06
4.97668e-06
-3.54951e-06
3.89139e-06
-3.547e-06
2.97147e-06
-3.57286e-06
2.1405e-06
-3.60749e-06
1.5623e-06
-3.60436e-06
9.59875e-07
-3.53617e-06
5.07611e-07
-3.39946e-06
5.38985e-08
-3.22808e-06
-2.47715e-07
-3.04504e-06
-5.84195e-07
-2.86006e-06
-9.0657e-07
-2.69643e-06
-1.43279e-06
-2.48053e-06
-2.25762e-06
-2.24589e-06
-3.41221e-06
-2.00749e-06
-5.24366e-06
-1.31135e-06
-7.84738e-06
-9.43458e-06
-1.04494e-06
4.67842e-06
-1.85268e-06
5.98098e-06
-2.37405e-06
6.01764e-06
-2.60205e-06
5.20468e-06
-2.7017e-06
3.99104e-06
-2.80874e-06
3.07851e-06
-2.96438e-06
2.29614e-06
-3.06298e-06
1.6609e-06
-3.08511e-06
9.82004e-07
-3.01376e-06
4.36259e-07
-2.87314e-06
-8.67185e-08
-2.68473e-06
-4.36125e-07
-2.48596e-06
-7.82964e-07
-2.26034e-06
-1.13219e-06
-2.05127e-06
-1.64186e-06
-1.79222e-06
-2.51667e-06
-1.50622e-06
-3.69822e-06
-1.25915e-06
-5.49072e-06
-9.84616e-07
-8.12192e-06
-1.04192e-05
-7.4806e-07
5.42648e-06
-1.32471e-06
6.55763e-06
-1.71042e-06
6.40335e-06
-1.89436e-06
5.38863e-06
-2.05195e-06
4.14863e-06
-2.24095e-06
3.26751e-06
-2.42497e-06
2.48016e-06
-2.52416e-06
1.76009e-06
-2.54715e-06
1.005e-06
-2.47847e-06
3.67578e-07
-2.35365e-06
-2.11538e-07
-2.17699e-06
-6.12783e-07
-2.00305e-06
-9.56902e-07
-1.81361e-06
-1.32163e-06
-1.61932e-06
-1.83615e-06
-1.37366e-06
-2.76233e-06
-1.11763e-06
-3.95424e-06
-9.10537e-07
-5.69782e-06
-7.1911e-07
-8.31334e-06
-1.11383e-05
-4.46013e-07
5.87249e-06
-8.37971e-07
6.94958e-06
-1.1198e-06
6.68518e-06
-1.30667e-06
5.57549e-06
-1.48724e-06
4.3292e-06
-1.68207e-06
3.46235e-06
-1.85225e-06
2.65033e-06
-1.94484e-06
1.85269e-06
-1.96975e-06
1.02991e-06
-1.91372e-06
3.11548e-07
-1.81699e-06
-3.08269e-07
-1.67437e-06
-7.55402e-07
-1.52522e-06
-1.10605e-06
-1.37069e-06
-1.47617e-06
-1.21091e-06
-1.99593e-06
-1.01424e-06
-2.959e-06
-7.47948e-07
-4.22053e-06
-5.79914e-07
-5.86585e-06
-5.39697e-07
-8.35356e-06
-1.1678e-05
-2.09468e-07
6.08196e-06
-4.3561e-07
7.17573e-06
-6.11603e-07
6.86117e-06
-7.65456e-07
5.72935e-06
-9.28028e-07
4.49178e-06
-1.09266e-06
3.62698e-06
-1.23381e-06
2.79148e-06
-1.32012e-06
1.939e-06
-1.35634e-06
1.06612e-06
-1.32575e-06
2.80958e-07
-1.26665e-06
-3.67363e-07
-1.18382e-06
-8.38238e-07
-1.09224e-06
-1.19763e-06
-9.89053e-07
-1.57935e-06
-8.62662e-07
-2.12233e-06
-7.26161e-07
-3.0955e-06
-5.52621e-07
-4.39407e-06
-4.32054e-07
-5.98642e-06
-3.81213e-07
-8.4044e-06
-1.20592e-05
4.24076e-08
6.03955e-06
-3.79649e-08
7.2561e-06
-1.19219e-07
6.94243e-06
-2.11242e-07
5.82137e-06
-3.50519e-07
4.63105e-06
-4.84748e-07
3.76121e-06
-5.88429e-07
2.89516e-06
-6.54561e-07
2.00514e-06
-6.96956e-07
1.10852e-06
-7.0537e-07
2.89372e-07
-6.9268e-07
-3.80052e-07
-6.65374e-07
-8.65543e-07
-6.34246e-07
-1.22876e-06
-5.95783e-07
-1.61781e-06
-5.09767e-07
-2.20834e-06
-4.20804e-07
-3.18446e-06
-2.97314e-07
-4.51756e-06
-2.27068e-07
-6.05666e-06
-3.10419e-07
-8.32105e-06
-1.23696e-05
2.83727e-07
5.75582e-06
3.7343e-07
7.16639e-06
3.93225e-07
6.92263e-06
3.16386e-07
5.89821e-06
2.3284e-07
4.7146e-06
1.58461e-07
3.83559e-06
1.02542e-07
2.95107e-06
5.15507e-08
2.05613e-06
6.99227e-09
1.15307e-06
-5.31565e-08
3.4952e-07
-1.03973e-07
-3.29236e-07
-1.58667e-07
-8.10849e-07
-1.82347e-07
-1.20508e-06
-2.19187e-07
-1.58097e-06
-1.62273e-07
-2.26526e-06
-1.57658e-07
-3.18907e-06
-8.1075e-08
-4.59414e-06
-1.26575e-07
-6.01116e-06
-2.26576e-07
-8.22105e-06
-1.25962e-05
5.08541e-07
5.24728e-06
8.0626e-07
6.86868e-06
9.455e-07
6.78339e-06
8.85996e-07
5.95771e-06
8.38043e-07
4.76255e-06
8.19061e-07
3.85457e-06
7.91095e-07
2.97904e-06
7.47594e-07
2.09963e-06
6.81903e-07
1.21877e-06
6.01778e-07
4.29645e-07
4.97998e-07
-2.25456e-07
3.96762e-07
-7.09612e-07
3.04276e-07
-1.11259e-06
2.37205e-07
-1.5139e-06
2.26342e-07
-2.25439e-06
1.70015e-07
-3.13275e-06
1.69922e-07
-4.59405e-06
-1.94916e-08
-5.82175e-06
-1.86792e-07
-8.05375e-06
-1.2783e-05
7.76649e-07
4.47063e-06
1.19397e-06
6.45136e-06
1.45841e-06
6.51894e-06
1.49007e-06
5.92605e-06
1.46762e-06
4.78501e-06
1.48928e-06
3.83291e-06
1.50369e-06
2.96463e-06
1.48171e-06
2.12161e-06
1.40715e-06
1.29333e-06
1.29245e-06
5.44341e-07
1.13575e-06
-6.87582e-08
9.80955e-07
-5.54814e-07
8.33987e-07
-9.65625e-07
7.52223e-07
-1.43214e-06
6.41999e-07
-2.14417e-06
5.69912e-07
-3.06066e-06
4.10845e-07
-4.43499e-06
1.34781e-07
-5.54569e-06
-3.46771e-08
-7.88429e-06
-1.28177e-05
1.00783e-06
3.46281e-06
1.6353e-06
5.82388e-06
1.99704e-06
6.15721e-06
2.14175e-06
5.78134e-06
2.13705e-06
4.78971e-06
2.18023e-06
3.78973e-06
2.22803e-06
2.91684e-06
2.23264e-06
2.117e-06
2.15978e-06
1.36618e-06
2.0259e-06
6.78221e-07
1.84642e-06
1.10721e-07
1.65749e-06
-3.65882e-07
1.47938e-06
-7.87512e-07
1.35735e-06
-1.31011e-06
1.19725e-06
-1.98407e-06
1.06397e-06
-2.92738e-06
7.65373e-07
-4.13639e-06
3.97833e-07
-5.17815e-06
8.86819e-08
-7.57514e-06
-1.2729e-05
1.22301e-06
2.23979e-06
1.9341e-06
5.11279e-06
2.42238e-06
5.66893e-06
2.7576e-06
5.44611e-06
2.89575e-06
4.65157e-06
2.97779e-06
3.70769e-06
3.02585e-06
2.86878e-06
3.04548e-06
2.09737e-06
2.99111e-06
1.42055e-06
2.86671e-06
8.02618e-07
2.68373e-06
2.93706e-07
2.4932e-06
-1.75353e-07
2.29428e-06
-5.88596e-07
2.12491e-06
-1.14074e-06
1.91651e-06
-1.77567e-06
1.68186e-06
-2.69272e-06
1.21127e-06
-3.66581e-06
6.51733e-07
-4.61861e-06
2.4857e-07
-7.17198e-06
-1.24804e-05
1.27992e-06
9.59875e-07
2.12179e-06
4.27092e-06
2.73676e-06
5.05396e-06
3.29185e-06
4.89102e-06
3.62895e-06
4.31447e-06
3.82562e-06
3.51102e-06
3.94727e-06
2.74713e-06
4.00353e-06
2.04111e-06
3.98231e-06
1.44177e-06
3.89007e-06
8.94854e-07
3.73325e-06
4.50529e-07
3.56642e-06
-8.52555e-09
3.3549e-06
-3.77075e-07
3.1327e-06
-9.18541e-07
2.83057e-06
-1.47354e-06
2.40926e-06
-2.2714e-06
1.76007e-06
-3.01662e-06
1.01262e-06
-3.87116e-06
4.8058e-07
-6.63993e-06
-1.19998e-05
7.32339e-07
2.27535e-07
1.81371e-06
3.18955e-06
2.79845e-06
4.06923e-06
3.634e-06
4.05547e-06
4.26623e-06
3.68223e-06
4.70088e-06
3.07638e-06
4.97968e-06
2.46833e-06
5.15099e-06
1.8698e-06
5.20461e-06
1.38815e-06
5.19888e-06
9.00589e-07
5.09935e-06
5.50054e-07
4.92774e-06
1.63081e-07
4.68783e-06
-1.37159e-07
4.37329e-06
-6.04004e-07
3.89771e-06
-9.97965e-07
3.24586e-06
-1.61955e-06
2.34917e-06
-2.11994e-06
1.40683e-06
-2.92881e-06
8.19458e-07
-6.05256e-06
-1.11804e-05
-2.11337e-07
4.38873e-07
1.10837e-06
1.86984e-06
2.3384e-06
2.8392e-06
3.50286e-06
2.89101e-06
4.463e-06
2.72209e-06
5.22575e-06
2.31362e-06
5.7596e-06
1.93448e-06
6.14973e-06
1.47967e-06
6.35476e-06
1.18312e-06
6.44327e-06
8.12077e-07
6.38753e-06
6.05793e-07
6.25564e-06
2.94972e-07
5.97838e-06
1.40097e-07
5.55943e-06
-1.85052e-07
4.93744e-06
-3.75969e-07
4.09938e-06
-7.81495e-07
2.9865e-06
-1.00705e-06
2.0607e-06
-2.00301e-06
1.36996e-06
-5.36183e-06
-9.81043e-06
-1.19115e-06
1.63002e-06
-2.23241e-07
9.01934e-07
1.30758e-06
1.30838e-06
2.79561e-06
1.40297e-06
4.07245e-06
1.44525e-06
5.11838e-06
1.26769e-06
5.90645e-06
1.14642e-06
6.48313e-06
9.02994e-07
6.87084e-06
7.95399e-07
7.07699e-06
6.05933e-07
7.14256e-06
5.4022e-07
7.04961e-06
3.87925e-07
6.82933e-06
3.60376e-07
6.4329e-06
2.1138e-07
5.89243e-06
1.64498e-07
5.17252e-06
-6.15807e-08
4.4359e-06
-2.70432e-07
3.80117e-06
-1.36828e-06
2.60392e-06
-4.16458e-06
-7.20652e-06
1.63002e-06
2.53195e-06
3.84033e-06
5.2433e-06
6.68855e-06
7.95625e-06
9.10266e-06
1.00057e-05
1.08011e-05
1.1407e-05
1.19472e-05
1.23351e-05
1.26955e-05
1.29069e-05
1.30714e-05
1.30098e-05
1.27394e-05
1.13711e-05
7.20652e-06
)
;

boundaryField
{
    movingWall
    {
        type            calculated;
        value           uniform 0;
    }
    fixedWalls
    {
        type            calculated;
        value           uniform 0;
    }
    frontAndBack
    {
        type            empty;
    }
}


// ************************************************************************* //
