/*--------------------------------*- C++ -*----------------------------------*\
  =========                 |
  \\      /  F ield         | OpenFOAM: The Open Source CFD Toolbox
   \\    /   O peration     | Website:  https://openfoam.org
    \\  /    A nd           | Version:  12
     \\/     M anipulation  |
\*---------------------------------------------------------------------------*/
FoamFile
{
    format      ascii;
    class       volVectorField;
    location    "7";
    object      U;
}
// * * * * * * * * * * * * * * * * * * * * * * * * * * * * * * * * * * * * * //

dimensions      [0 1 -1 0 0 0 0];

internalField   nonuniform List<vector> 
400
(
(0.00298872 -0.00463862 0)
(0.00847249 -0.00188939 0)
(-0.00265165 0.00281448 0)
(-0.0161198 0.0124942 0)
(-0.0647402 0.0208824 0)
(-0.0928802 0.0138978 0)
(-0.121224 0.0144203 0)
(-0.138214 0.0102544 0)
(-0.154063 0.00967994 0)
(-0.163341 0.0066095 0)
(-0.172035 0.00605645 0)
(-0.176171 0.00361365 0)
(-0.178425 0.0028947 0)
(-0.177919 -0.000695225 0)
(-0.169645 -0.00280488 0)
(-0.155872 -0.00878761 0)
(-0.13174 -0.0138567 0)
(-0.0990041 -0.020601 0)
(-0.0594357 -0.0202223 0)
(-0.015246 -0.00653276 0)
(-0.00132087 -0.00859977 0)
(-0.010036 0.00760418 0)
(-0.0371285 0.0289223 0)
(-0.0753402 0.0487122 0)
(-0.103873 0.0440025 0)
(-0.123011 0.0389451 0)
(-0.139785 0.031852 0)
(-0.15245 0.0228891 0)
(-0.162191 0.0169864 0)
(-0.168163 0.0103116 0)
(-0.172429 0.00598988 0)
(-0.173949 0.000642826 0)
(-0.173729 -0.00357817 0)
(-0.170682 -0.00979692 0)
(-0.163978 -0.0169707 0)
(-0.151207 -0.0288802 0)
(-0.131942 -0.0442825 0)
(-0.103788 -0.064783 0)
(-0.0708787 -0.079274 0)
(-0.0199171 -0.0607314 0)
(-0.00938756 0.00819061 0)
(-0.0322482 0.0388958 0)
(-0.0660678 0.0632005 0)
(-0.0916885 0.0707444 0)
(-0.107914 0.0625971 0)
(-0.119082 0.0531154 0)
(-0.129046 0.0400755 0)
(-0.13155 0.0316925 0)
(-0.130687 0.0222883 0)
(-0.12898 0.015086 0)
(-0.126649 0.00807504 0)
(-0.125073 0.00224039 0)
(-0.124434 -0.00381132 0)
(-0.122624 -0.0103154 0)
(-0.119055 -0.0198161 0)
(-0.112542 -0.0337264 0)
(-0.100718 -0.0562712 0)
(-0.0815098 -0.0861895 0)
(-0.0620466 -0.115039 0)
(-0.0204698 -0.11612 0)
(-0.0125969 0.0334337 0)
(-0.0427503 0.0684973 0)
(-0.0702255 0.0862292 0)
(-0.0864967 0.086048 0)
(-0.0942612 0.0730867 0)
(-0.0973626 0.0598932 0)
(-0.0946757 0.0445398 0)
(-0.0911112 0.0322747 0)
(-0.091139 0.0208301 0)
(-0.0884041 0.0129127 0)
(-0.087007 0.00530882 0)
(-0.0844206 7.3329e-05 0)
(-0.08276 -0.00602219 0)
(-0.0814137 -0.01205 0)
(-0.0790606 -0.022389 0)
(-0.0766622 -0.0364633 0)
(-0.0708163 -0.0594062 0)
(-0.0550834 -0.0969388 0)
(-0.0470655 -0.136987 0)
(-0.0153926 -0.148919 0)
(-0.0129115 0.0587521 0)
(-0.0416824 0.0917814 0)
(-0.0597113 0.101479 0)
(-0.0704799 0.0953168 0)
(-0.0713425 0.0776085 0)
(-0.0707939 0.0610158 0)
(-0.0702311 0.0432662 0)
(-0.0723726 0.0313959 0)
(-0.0721873 0.019346 0)
(-0.0714032 0.0110668 0)
(-0.068775 0.0027137 0)
(-0.0658853 -0.00302393 0)
(-0.0620305 -0.00969976 0)
(-0.0598754 -0.015915 0)
(-0.0557502 -0.0265813 0)
(-0.0522245 -0.0419709 0)
(-0.0511004 -0.063824 0)
(-0.0355082 -0.100957 0)
(-0.0407682 -0.152992 0)
(-0.00526694 -0.179908 0)
(-0.0107585 0.0817872 0)
(-0.0331571 0.110445 0)
(-0.0453033 0.114479 0)
(-0.0536164 0.102038 0)
(-0.0518958 0.0799786 0)
(-0.054255 0.0606986 0)
(-0.0577953 0.0443025 0)
(-0.0615301 0.0319306 0)
(-0.0613963 0.0189892 0)
(-0.0612274 0.00909434 0)
(-0.0580624 -0.000540512 0)
(-0.055453 -0.00724862 0)
(-0.0507643 -0.0142625 0)
(-0.0481219 -0.0209032 0)
(-0.0435915 -0.030991 0)
(-0.0366299 -0.0476047 0)
(-0.0385169 -0.0699333 0)
(-0.0190823 -0.104828 0)
(-0.0313526 -0.158522 0)
(-0.00243274 -0.198134 0)
(-0.00822644 0.100504 0)
(-0.0236605 0.124228 0)
(-0.0330769 0.123219 0)
(-0.0387282 0.105069 0)
(-0.0372788 0.0803328 0)
(-0.0429218 0.0628226 0)
(-0.0474725 0.0470792 0)
(-0.0507136 0.0335591 0)
(-0.0506517 0.0193141 0)
(-0.0504409 0.0076324 0)
(-0.0474078 -0.00333289 0)
(-0.0451506 -0.0109962 0)
(-0.0410032 -0.0180633 0)
(-0.0382396 -0.0254436 0)
(-0.0359578 -0.0356885 0)
(-0.0265911 -0.0535651 0)
(-0.0313038 -0.0765405 0)
(-0.010941 -0.111989 0)
(-0.0275488 -0.164591 0)
(0.0033641 -0.21616 0)
(-0.00481712 0.112783 0)
(-0.0145111 0.134678 0)
(-0.021775 0.13052 0)
(-0.0257788 0.109341 0)
(-0.025492 0.0851214 0)
(-0.0324944 0.0670806 0)
(-0.0362393 0.0508526 0)
(-0.0389387 0.0356527 0)
(-0.0390374 0.0199834 0)
(-0.0389105 0.00651544 0)
(-0.0364437 -0.00560702 0)
(-0.0345864 -0.0142013 0)
(-0.0317247 -0.0210023 0)
(-0.0282897 -0.0283492 0)
(-0.0283835 -0.038694 0)
(-0.0178317 -0.0577764 0)
(-0.0252825 -0.0811901 0)
(-0.00248696 -0.114368 0)
(-0.0226296 -0.165493 0)
(0.00460074 -0.226529 0)
(-0.00202579 0.120448 0)
(-0.00732182 0.141292 0)
(-0.0119734 0.135013 0)
(-0.0146255 0.112157 0)
(-0.0148089 0.0867398 0)
(-0.0213088 0.0699825 0)
(-0.0238472 0.0538092 0)
(-0.0263241 0.0373843 0)
(-0.0265369 0.0204464 0)
(-0.0267514 0.00549074 0)
(-0.0252619 -0.00719136 0)
(-0.0238969 -0.0165303 0)
(-0.0230504 -0.0235896 0)
(-0.0195808 -0.0310001 0)
(-0.021876 -0.0413303 0)
(-0.0104477 -0.0611298 0)
(-0.0210484 -0.0866128 0)
(0.00133717 -0.119834 0)
(-0.0207357 -0.167739 0)
(0.00829173 -0.238222 0)
(0.0013162 0.122134 0)
(3.63148e-05 0.145351 0)
(-0.00210652 0.138589 0)
(-0.00367625 0.115773 0)
(-0.00400997 0.0922565 0)
(-0.00945575 0.0747235 0)
(-0.0109874 0.0574443 0)
(-0.0130842 0.0397698 0)
(-0.0132251 0.0218169 0)
(-0.0137626 0.00552008 0)
(-0.0136907 -0.00753678 0)
(-0.0128624 -0.0169459 0)
(-0.0137974 -0.0241003 0)
(-0.0105162 -0.0319036 0)
(-0.015188 -0.0434291 0)
(-0.00297957 -0.062726 0)
(-0.0164509 -0.0893748 0)
(0.00720705 -0.1196 0)
(-0.0185873 -0.167492 0)
(0.00885713 -0.244541 0)
(0.00454413 0.119527 0)
(0.00619903 0.145702 0)
(0.00712339 0.139362 0)
(0.00675282 0.117205 0)
(0.00678277 0.0926052 0)
(0.00300185 0.0754328 0)
(0.00270335 0.0583866 0)
(0.00114351 0.0406276 0)
(0.000702756 0.0225868 0)
(-0.000237953 0.00616931 0)
(-0.00174432 -0.00742043 0)
(-0.00196553 -0.017103 0)
(-0.00463216 -0.024659 0)
(-0.00195317 -0.0321431 0)
(-0.00820035 -0.0452819 0)
(0.00330763 -0.0635785 0)
(-0.0116859 -0.0930136 0)
(0.0103283 -0.121302 0)
(-0.0178332 -0.167349 0)
(0.0117048 -0.251538 0)
(0.00611105 0.111778 0)
(0.0132333 0.142636 0)
(0.0169874 0.138935 0)
(0.0180389 0.119492 0)
(0.0184941 0.0964538 0)
(0.0157405 0.0783049 0)
(0.0160569 0.0605305 0)
(0.0150887 0.0425716 0)
(0.0145236 0.0243942 0)
(0.0137139 0.00810328 0)
(0.0111566 -0.00540956 0)
(0.00983679 -0.0150547 0)
(0.0057058 -0.0230524 0)
(0.0072649 -0.0309538 0)
(0.00091421 -0.0454135 0)
(0.00990748 -0.0635646 0)
(-0.00530008 -0.0931612 0)
(0.0151357 -0.11804 0)
(-0.0176176 -0.164776 0)
(0.0133879 -0.254656 0)
(0.00989721 0.101767 0)
(0.0194914 0.135683 0)
(0.026001 0.134353 0)
(0.0290085 0.119259 0)
(0.0306499 0.0940311 0)
(0.0289827 0.0762522 0)
(0.0298621 0.0591874 0)
(0.0299028 0.0420038 0)
(0.0291461 0.0247625 0)
(0.028278 0.00929029 0)
(0.0245053 -0.00343022 0)
(0.0223354 -0.0130113 0)
(0.0168789 -0.0212642 0)
(0.0173684 -0.0300597 0)
(0.0108798 -0.0445658 0)
(0.0170955 -0.0635451 0)
(0.0022335 -0.0912654 0)
(0.0189145 -0.115858 0)
(-0.0167891 -0.159601 0)
(0.0172558 -0.256449 0)
(0.0118449 0.0807008 0)
(0.0262483 0.126173 0)
(0.0367594 0.128504 0)
(0.0403066 0.119482 0)
(0.0435528 0.0967719 0)
(0.0428348 0.0763742 0)
(0.0438742 0.0592428 0)
(0.0449971 0.0432437 0)
(0.0441905 0.0275585 0)
(0.0434335 0.0129856 0)
(0.0388102 0.000902127 0)
(0.036494 -0.00891045 0)
(0.0298734 -0.0176447 0)
(0.0298018 -0.0279414 0)
(0.0227768 -0.0421207 0)
(0.0269185 -0.0608522 0)
(0.0122633 -0.0859248 0)
(0.0243854 -0.1078 0)
(-0.0142869 -0.154717 0)
(0.0206558 -0.254972 0)
(0.0158974 0.0627168 0)
(0.0304768 0.111115 0)
(0.0444681 0.118871 0)
(0.050922 0.112285 0)
(0.0562769 0.0945262 0)
(0.0581455 0.0737743 0)
(0.0594999 0.056097 0)
(0.0613852 0.0405695 0)
(0.0604962 0.0266956 0)
(0.0604098 0.0140137 0)
(0.0552853 0.00346378 0)
(0.0535426 -0.0060212 0)
(0.046033 -0.0143706 0)
(0.0456494 -0.0251642 0)
(0.0379042 -0.0381362 0)
(0.0397575 -0.0566103 0)
(0.0252653 -0.0779321 0)
(0.0301737 -0.0984989 0)
(-0.0117051 -0.147087 0)
(0.0267622 -0.253298 0)
(0.0164075 0.025741 0)
(0.034853 0.0959681 0)
(0.0501607 0.109579 0)
(0.0598595 0.106535 0)
(0.0682142 0.0932812 0)
(0.0736327 0.0747625 0)
(0.0766355 0.0573459 0)
(0.0802263 0.0417816 0)
(0.0794183 0.0286671 0)
(0.0810507 0.0170397 0)
(0.0757277 0.00784318 0)
(0.0750485 -0.00112442 0)
(0.0673824 -0.00904486 0)
(0.0664781 -0.019746 0)
(0.0577563 -0.0316886 0)
(0.056724 -0.0488671 0)
(0.0404425 -0.0663322 0)
(0.037488 -0.0843611 0)
(-0.00647129 -0.138777 0)
(0.0333106 -0.249708 0)
(0.00273371 0.00926719 0)
(0.0281413 0.0691528 0)
(0.0486511 0.0905975 0)
(0.0636854 0.0910868 0)
(0.0773495 0.0823324 0)
(0.0888872 0.0686702 0)
(0.0948128 0.0545288 0)
(0.102292 0.0408371 0)
(0.102491 0.0289568 0)
(0.106432 0.0179107 0)
(0.10233 0.00932602 0)
(0.102653 0.000646787 0)
(0.0949279 -0.00654968 0)
(0.0927455 -0.0161977 0)
(0.0817726 -0.0254325 0)
(0.0764079 -0.0391949 0)
(0.0564915 -0.051236 0)
(0.04488 -0.0690744 0)
(0.000194775 -0.131982 0)
(0.0433972 -0.246084 0)
(-0.0197916 -0.00111724 0)
(0.0126182 0.0566258 0)
(0.0363887 0.0751263 0)
(0.0583114 0.0761343 0)
(0.077179 0.070094 0)
(0.096758 0.0592269 0)
(0.107629 0.0486777 0)
(0.120191 0.0380866 0)
(0.12375 0.0301193 0)
(0.129808 0.0209838 0)
(0.128092 0.0149239 0)
(0.128616 0.00714138 0)
(0.12176 0.00220128 0)
(0.117747 -0.00566502 0)
(0.104875 -0.0115775 0)
(0.0953487 -0.0219006 0)
(0.0716643 -0.0300362 0)
(0.0535297 -0.0504696 0)
(0.0149343 -0.124893 0)
(0.0565818 -0.234176 0)
(-0.0271048 0.0229584 0)
(-0.0171548 0.0205503 0)
(0.0105304 0.0389258 0)
(0.0419252 0.0411856 0)
(0.0664857 0.0405079 0)
(0.0923868 0.0350839 0)
(0.108521 0.0305006 0)
(0.124546 0.0227388 0)
(0.133009 0.0187161 0)
(0.140395 0.0126589 0)
(0.142806 0.0102135 0)
(0.142979 0.00502582 0)
(0.139174 0.00370789 0)
(0.134377 -0.00118594 0)
(0.122643 -0.00271303 0)
(0.112979 -0.00944247 0)
(0.0896336 -0.0136422 0)
(0.0783854 -0.0394209 0)
(0.0546375 -0.111301 0)
(0.0814349 -0.183705 0)
(0.0356698 0.0332527 0)
(0.0408157 0.0191712 0)
(0.0576419 0.0179028 0)
(0.0914308 0.0181569 0)
(0.116135 0.0205108 0)
(0.146127 0.0186855 0)
(0.1681 0.0183241 0)
(0.190885 0.0156873 0)
(0.207297 0.0148277 0)
(0.222913 0.0127202 0)
(0.233897 0.0120776 0)
(0.243753 0.01046 0)
(0.250569 0.0100295 0)
(0.255415 0.00871216 0)
(0.259455 0.00844629 0)
(0.259648 0.0067225 0)
(0.255103 0.00550727 0)
(0.241616 -0.00151133 0)
(0.202011 -0.0144073 0)
(0.150342 -0.0341454 0)
)
;

boundaryField
{
    movingWall
    {
        type            fixedValue;
        value           uniform (1 0 0);
    }
    fixedWalls
    {
        type            noSlip;
    }
    frontAndBack
    {
        type            empty;
    }
}


// ************************************************************************* //
