/*--------------------------------*- C++ -*----------------------------------*\
  =========                 |
  \\      /  F ield         | OpenFOAM: The Open Source CFD Toolbox
   \\    /   O peration     | Website:  https://openfoam.org
    \\  /    A nd           | Version:  12
     \\/     M anipulation  |
\*---------------------------------------------------------------------------*/
FoamFile
{
    format      ascii;
    class       volVectorField;
    location    "10.62";
    object      zeta;
}
// * * * * * * * * * * * * * * * * * * * * * * * * * * * * * * * * * * * * * //

dimensions      [0 1 0 0 0 0 0];

internalField   uniform (0 0 0);

boundaryField
{
    freeSurface
    {
        type            calculated;
        value           nonuniform List<vector> 
181
(
(0 -0.00453131 0)
(0 -0.00453071 0)
(0 -0.00452998 0)
(0 -0.00452969 0)
(0 -0.00452856 0)
(0 -0.00452852 0)
(0 -0.00452754 0)
(0 -0.00452769 0)
(0 0.000228681 0)
(0 0.000217079 0)
(0 0.000196908 0)
(0 0.000173044 0)
(0 0.000136264 0)
(0 9.27761e-05 0)
(0 4.06679e-05 0)
(0 -1.7927e-05 0)
(0 -8.25735e-05 0)
(0 -0.000152471 0)
(0 -0.000226806 0)
(0 -0.000305038 0)
(0 -0.000385997 0)
(0 -0.000468861 0)
(0 -0.000552382 0)
(0 -0.000635608 0)
(0 -0.000717433 0)
(0 -0.000796961 0)
(0 -0.000873299 0)
(0 -0.000945593 0)
(0 -0.00101288 0)
(0 -0.0010742 0)
(0 -0.00112861 0)
(0 -0.00117534 0)
(0 -0.00121381 0)
(0 -0.0012432 0)
(0 -0.00126296 0)
(0 -0.00127245 0)
(0 -0.00127131 0)
(0 -0.00125902 0)
(0 -0.0012354 0)
(0 -0.00120036 0)
(0 -0.00115385 0)
(0 -0.00109605 0)
(0 -0.00102733 0)
(0 -0.00094808 0)
(0 -0.00085887 0)
(0 -0.000760539 0)
(0 -0.000654073 0)
(0 -0.00054042 0)
(0 -0.000420909 0)
(0 -0.000296805 0)
(0 -0.000169683 0)
(0 -4.105e-05 0)
(0 8.73678e-05 0)
(0 0.000213836 0)
(0 0.000336572 0)
(0 0.000453746 0)
(0 0.000563496 0)
(0 0.000664 0)
(0 0.000753524 0)
(0 0.0008304 0)
(0 0.000893098 0)
(0 0.000940335 0)
(0 0.000971185 0)
(0 0.000984561 0)
(0 0.000980055 0)
(0 0.000957435 0)
(0 0.0009168 0)
(0 0.000858579 0)
(0 0.00078368 0)
(0 0.000693301 0)
(0 0.00058898 0)
(0 0.000472646 0)
(0 0.000346729 0)
(0 0.000213802 0)
(0 7.67487e-05 0)
(0 -6.13207e-05 0)
(0 -0.000197128 0)
(0 -0.000327326 0)
(0 -0.000448699 0)
(0 -0.000558092 0)
(0 -0.000652322 0)
(0 -0.000728925 0)
(0 -0.000785312 0)
(0 -0.000819794 0)
(0 -0.000831071 0)
(0 -0.000818414 0)
(0 -0.00078192 0)
(0 -0.000722447 0)
(0 -0.000641531 0)
(0 -0.00054148 0)
(0 -0.000425272 0)
(0 -0.000296635 0)
(0 -0.000159837 0)
(0 -1.94939e-05 0)
(0 0.00011932 0)
(0 0.000251859 0)
(0 0.000372982 0)
(0 0.000477971 0)
(0 0.000562716 0)
(0 0.000623511 0)
(0 0.000657809 0)
(0 0.000664185 0)
(0 0.00064184 0)
(0 0.000591818 0)
(0 0.000516117 0)
(0 0.000418218 0)
(0 0.000302546 0)
(0 0.000174514 0)
(0 4.04761e-05 0)
(0 -9.28378e-05 0)
(0 -0.000218907 0)
(0 -0.000331046 0)
(0 -0.000423262 0)
(0 -0.00049063 0)
(0 -0.000529428 0)
(0 -0.000537469 0)
(0 -0.000514537 0)
(0 -0.000462138 0)
(0 -0.00038374 0)
(0 -0.000284478 0)
(0 -0.000170921 0)
(0 -5.07649e-05 0)
(0 6.76679e-05 0)
(0 0.000176705 0)
(0 0.000268552 0)
(0 0.000336832 0)
(0 0.000376861 0)
(0 0.000385994 0)
(0 0.000364128 0)
(0 0.000313684 0)
(0 0.000239335 0)
(0 0.000147988 0)
(0 4.77054e-05 0)
(0 -5.22673e-05 0)
(0 -0.000143578 0)
(0 -0.000218163 0)
(0 -0.000269623 0)
(0 -0.000293808 0)
(0 -0.000289364 0)
(0 -0.000257815 0)
(0 -0.000203616 0)
(0 -0.000133655 0)
(0 -5.66228e-05 0)
(0 1.82814e-05 0)
(0 8.28539e-05 0)
(0 0.000129842 0)
(0 0.000154792 0)
(0 0.000156277 0)
(0 0.000136109 0)
(0 9.89144e-05 0)
(0 5.14439e-05 0)
(0 1.5651e-06 0)
(0 -4.32639e-05 0)
(0 -7.70178e-05 0)
(0 -9.55893e-05 0)
(0 -9.7645e-05 0)
(0 -8.44526e-05 0)
(0 -5.94693e-05 0)
(0 -2.75768e-05 0)
(0 5.73832e-06 0)
(0 3.52383e-05 0)
(0 5.69439e-05 0)
(0 6.80323e-05 0)
(0 6.74819e-05 0)
(0 5.60888e-05 0)
(0 3.61744e-05 0)
(0 1.09898e-05 0)
(0 -1.58264e-05 0)
(0 -4.07253e-05 0)
(0 -6.07305e-05 0)
(0 -7.36844e-05 0)
(0 -7.84448e-05 0)
(0 -7.47308e-05 0)
(0 -6.34275e-05 0)
(0 -4.62205e-05 0)
(0 -2.51756e-05 0)
(0 -2.62417e-06 0)
(0 1.90794e-05 0)
(0 3.77041e-05 0)
(0 5.13643e-05 0)
(0 5.86349e-05 0)
)
;
    }
    walls
    {
        type            calculated;
        value           uniform (0 0 0);
    }
    floatingObject
    {
        type            calculated;
        value           uniform (0 0 0);
    }
    frontAndBack
    {
        type            empty;
    }
}


// ************************************************************************* //
