/*--------------------------------*- C++ -*----------------------------------*\
  =========                 |
  \\      /  F ield         | OpenFOAM: The Open Source CFD Toolbox
   \\    /   O peration     | Website:  https://openfoam.org
    \\  /    A nd           | Version:  12
     \\/     M anipulation  |
\*---------------------------------------------------------------------------*/
FoamFile
{
    format      ascii;
    class       volScalarField;
    location    "2.66";
    object      p;
}
// * * * * * * * * * * * * * * * * * * * * * * * * * * * * * * * * * * * * * //

dimensions      [1 -1 -2 0 0 0 0];

internalField   nonuniform List<scalar> 
3829
(
-612.609
-612.61
-612.611
-612.613
-612.616
-612.62
-612.625
-612.63
-612.637
-612.644
-612.652
-612.662
-612.672
-612.683
-612.696
-612.71
-612.725
-612.741
-612.758
-612.777
-612.797
-612.818
-612.84
-612.863
-612.887
-612.913
-612.94
-612.968
-612.997
-613.027
-613.058
-613.09
-613.123
-613.157
-613.191
-613.226
-613.262
-613.298
-613.335
-613.372
-613.409
-613.447
-613.484
-613.521
-613.558
-613.594
-613.63
-613.666
-613.7
-613.734
-613.767
-613.799
-613.83
-613.86
-613.888
-613.915
-613.941
-613.965
-613.988
-614.009
-614.028
-614.045
-614.06
-614.074
-614.087
-614.098
-614.107
-614.115
-614.121
-614.126
-614.13
-614.133
-614.135
-614.136
-614.136
-614.135
-614.135
-614.133
-614.132
-614.131
-614.13
-614.129
-614.128
-614.128
-614.129
-614.13
-614.132
-614.135
-614.139
-614.144
-614.15
-614.156
-614.164
-614.173
-614.182
-614.193
-614.204
-614.216
-614.228
-614.24
-614.253
-614.266
-614.279
-614.292
-614.305
-614.318
-614.33
-614.341
-614.352
-614.362
-614.372
-614.38
-614.388
-614.394
-614.4
-614.404
-614.408
-614.41
-614.411
-614.412
-614.411
-614.41
-614.407
-614.404
-614.4
-614.396
-614.391
-614.385
-614.379
-614.373
-614.366
-614.359
-614.352
-614.345
-614.338
-614.332
-614.325
-614.319
-614.313
-614.307
-614.302
-614.297
-614.293
-614.289
-614.285
-614.283
-614.28
-614.279
-614.277
-614.277
-614.277
-614.277
-614.278
-614.279
-614.28
-614.282
-614.285
-614.287
-614.29
-614.293
-614.297
-614.3
-614.304
-614.308
-614.312
-614.315
-614.319
-614.323
-614.327
-614.33
-614.334
-614.337
-614.34
-614.343
-614.346
-614.349
-614.351
-614.354
-614.356
-614.358
-614.359
-614.361
-614.362
-614.364
-614.365
-614.365
-614.366
-614.367
-614.367
-614.368
-614.368
-614.368
-614.368
-614.368
-614.368
-614.368
-614.368
-614.368
-614.368
-614.368
-1770.91
-1770.91
-1770.92
-1770.92
-1770.92
-1770.92
-1770.93
-1770.94
-1770.94
-1770.95
-1770.96
-1770.97
-1770.98
-1770.99
-1771
-1771.02
-1771.04
-1771.05
-1771.07
-1771.09
-1771.11
-1771.14
-1771.16
-1771.19
-1771.21
-1771.24
-1771.27
-1771.3
-1771.33
-1771.37
-1771.4
-1771.44
-1771.47
-1771.51
-1771.55
-1771.59
-1771.63
-1771.67
-1771.71
-1771.75
-1771.79
-1771.83
-1771.87
-1771.91
-1771.95
-1771.99
-1772.03
-1772.07
-1772.11
-1772.14
-1772.18
-1772.21
-1772.24
-1772.27
-1772.3
-1772.33
-1772.35
-1772.38
-1772.4
-1772.42
-1772.44
-1772.45
-1772.47
-1772.48
-1772.49
-1772.5
-1772.51
-1772.51
-1772.52
-1772.52
-1772.52
-1772.52
-1772.52
-1772.52
-1772.52
-1772.51
-1772.51
-1772.51
-1772.5
-1772.5
-1772.5
-1772.49
-1772.49
-1772.49
-1772.49
-1772.49
-1772.49
-1772.49
-1772.5
-1772.5
-1772.51
-1772.52
-1772.53
-1772.53
-1772.55
-1772.56
-1772.57
-1772.58
-1772.59
-1772.61
-1772.62
-1772.64
-1772.65
-1772.66
-1772.68
-1772.69
-1772.7
-1772.72
-1772.73
-1772.74
-1772.75
-1772.76
-1772.76
-1772.77
-1772.78
-1772.78
-1772.78
-1772.79
-1772.79
-1772.79
-1772.79
-1772.78
-1772.78
-1772.78
-1772.77
-1772.77
-1772.76
-1772.76
-1772.75
-1772.74
-1772.74
-1772.73
-1772.72
-1772.71
-1772.71
-1772.7
-1772.69
-1772.69
-1772.68
-1772.68
-1772.67
-1772.66
-1772.66
-1772.66
-1772.65
-1772.65
-1772.65
-1772.65
-1772.65
-1772.64
-1772.64
-1772.65
-1772.65
-1772.65
-1772.65
-1772.65
-1772.65
-1772.66
-1772.66
-1772.66
-1772.67
-1772.67
-1772.67
-1772.68
-1772.68
-1772.69
-1772.69
-1772.69
-1772.7
-1772.7
-1772.7
-1772.71
-1772.71
-1772.71
-1772.72
-1772.72
-1772.72
-1772.72
-1772.73
-1772.73
-1772.73
-1772.73
-1772.73
-1772.73
-1772.73
-1772.74
-1772.74
-1772.74
-1772.74
-1772.74
-1772.74
-1772.74
-1772.74
-1772.74
-1772.74
-1772.74
-1772.74
-1772.74
-1772.74
-1772.74
-2796.96
-2796.96
-2796.97
-2796.97
-2796.97
-2796.97
-2796.98
-2796.98
-2796.99
-2797
-2797.01
-2797.02
-2797.03
-2797.04
-2797.06
-2797.07
-2797.09
-2797.11
-2797.13
-2797.15
-2797.17
-2797.2
-2797.23
-2797.26
-2797.29
-2797.32
-2797.36
-2797.4
-2797.43
-2797.47
-2797.51
-2797.56
-2797.6
-2797.65
-2797.69
-2797.74
-2797.78
-2797.83
-2797.88
-2797.93
-2797.97
-2798.02
-2798.07
-2798.11
-2798.16
-2798.2
-2798.25
-2798.29
-2798.33
-2798.37
-2798.41
-2798.44
-2798.48
-2798.51
-2798.54
-2798.57
-2798.59
-2798.62
-2798.64
-2798.66
-2798.67
-2798.69
-2798.7
-2798.71
-2798.71
-2798.72
-2798.72
-2798.72
-2798.72
-2798.72
-2798.72
-2798.71
-2798.71
-2798.7
-2798.69
-2798.68
-2798.68
-2798.67
-2798.66
-2798.65
-2798.65
-2798.64
-2798.64
-2798.63
-2798.63
-2798.63
-2798.63
-2798.64
-2798.64
-2798.64
-2798.65
-2798.66
-2798.67
-2798.68
-2798.69
-2798.71
-2798.72
-2798.74
-2798.75
-2798.77
-2798.78
-2798.8
-2798.81
-2798.83
-2798.85
-2798.86
-2798.87
-2798.89
-2798.9
-2798.91
-2798.92
-2798.93
-2798.94
-2798.94
-2798.95
-2798.95
-2798.96
-2798.96
-2798.96
-2798.96
-2798.96
-2798.95
-2798.95
-2798.94
-2798.94
-2798.93
-2798.93
-2798.92
-2798.91
-2798.9
-2798.9
-2798.89
-2798.88
-2798.87
-2798.87
-2798.86
-2798.85
-2798.84
-2798.84
-2798.83
-2798.83
-2798.82
-2798.82
-2798.81
-2798.81
-2798.81
-2798.81
-2798.8
-2798.8
-2798.8
-2798.8
-2798.8
-2798.8
-2798.81
-2798.81
-2798.81
-2798.81
-2798.82
-2798.82
-2798.82
-2798.83
-2798.83
-2798.83
-2798.84
-2798.84
-2798.85
-2798.85
-2798.85
-2798.86
-2798.86
-2798.86
-2798.87
-2798.87
-2798.87
-2798.88
-2798.88
-2798.88
-2798.88
-2798.89
-2798.89
-2798.89
-2798.89
-2798.89
-2798.89
-2798.9
-2798.9
-2798.9
-2798.9
-2798.9
-2798.9
-2798.9
-2798.9
-2798.9
-2798.9
-2798.9
-2798.9
-2798.9
-2798.9
-2798.9
-2798.9
-3705.86
-3705.86
-3705.86
-3705.87
-3705.87
-3705.87
-3705.87
-3705.88
-3705.88
-3705.89
-3705.9
-3705.91
-3705.92
-3705.93
-3705.94
-3705.96
-3705.98
-3706
-3706.02
-3706.05
-3706.07
-3706.1
-3706.14
-3706.17
-3706.21
-3706.25
-3706.3
-3706.34
-3706.39
-3706.44
-3706.49
-3706.54
-3706.6
-3706.65
-3706.71
-3706.76
-3706.82
-3706.88
-3706.94
-3706.99
-3707.05
-3707.11
-3707.16
-3707.22
-3707.27
-3707.32
-3707.37
-3707.42
-3707.46
-3707.51
-3707.55
-3707.59
-3707.62
-3707.66
-3707.69
-3707.72
-3707.74
-3707.76
-3707.78
-3707.8
-3707.81
-3707.82
-3707.83
-3707.83
-3707.84
-3707.84
-3707.83
-3707.83
-3707.82
-3707.81
-3707.8
-3707.79
-3707.78
-3707.76
-3707.75
-3707.73
-3707.72
-3707.71
-3707.69
-3707.68
-3707.67
-3707.66
-3707.65
-3707.65
-3707.65
-3707.64
-3707.64
-3707.65
-3707.65
-3707.66
-3707.66
-3707.67
-3707.69
-3707.7
-3707.71
-3707.73
-3707.75
-3707.77
-3707.78
-3707.8
-3707.82
-3707.84
-3707.86
-3707.88
-3707.89
-3707.91
-3707.93
-3707.94
-3707.95
-3707.97
-3707.98
-3707.99
-3707.99
-3708
-3708
-3708.01
-3708.01
-3708.01
-3708.01
-3708.01
-3708
-3708
-3708
-3707.99
-3707.98
-3707.98
-3707.97
-3707.96
-3707.95
-3707.95
-3707.94
-3707.93
-3707.92
-3707.91
-3707.9
-3707.89
-3707.89
-3707.88
-3707.87
-3707.87
-3707.86
-3707.86
-3707.85
-3707.85
-3707.85
-3707.84
-3707.84
-3707.84
-3707.84
-3707.84
-3707.84
-3707.84
-3707.84
-3707.84
-3707.84
-3707.85
-3707.85
-3707.85
-3707.86
-3707.86
-3707.86
-3707.87
-3707.87
-3707.88
-3707.88
-3707.88
-3707.89
-3707.89
-3707.9
-3707.9
-3707.9
-3707.91
-3707.91
-3707.91
-3707.92
-3707.92
-3707.92
-3707.92
-3707.93
-3707.93
-3707.93
-3707.93
-3707.93
-3707.93
-3707.93
-3707.94
-3707.94
-3707.94
-3707.94
-3707.94
-3707.94
-3707.94
-3707.94
-3707.94
-3707.94
-3707.94
-3707.94
-3707.94
-3707.94
-3707.94
-4511
-4511
-4511
-4511
-4510.99
-4510.99
-4510.99
-4510.99
-4511
-4511
-4511
-4511
-4511.01
-4511.02
-4511.04
-4511.05
-4511.07
-4511.09
-4511.11
-4511.14
-4511.17
-4511.21
-4511.25
-4511.3
-4511.34
-4511.4
-4511.45
-4511.51
-4511.57
-4511.63
-4511.7
-4511.77
-4511.84
-4511.9
-4511.98
-4512.05
-4512.12
-4512.19
-4512.26
-4512.33
-4512.39
-4512.46
-4512.53
-4512.59
-4512.65
-4512.71
-4512.77
-4512.82
-4512.87
-4512.92
-4512.97
-4513.01
-4513.05
-4513.08
-4513.11
-4513.14
-4513.17
-4513.19
-4513.2
-4513.21
-4513.22
-4513.23
-4513.23
-4513.23
-4513.22
-4513.22
-4513.2
-4513.19
-4513.18
-4513.16
-4513.14
-4513.12
-4513.1
-4513.07
-4513.05
-4513.03
-4513.01
-4512.99
-4512.97
-4512.95
-4512.94
-4512.92
-4512.91
-4512.9
-4512.9
-4512.89
-4512.89
-4512.9
-4512.9
-4512.91
-4512.92
-4512.93
-4512.95
-4512.96
-4512.98
-4513
-4513.02
-4513.05
-4513.07
-4513.09
-4513.11
-4513.13
-4513.16
-4513.18
-4513.2
-4513.21
-4513.23
-4513.25
-4513.26
-4513.27
-4513.28
-4513.29
-4513.3
-4513.31
-4513.31
-4513.31
-4513.31
-4513.31
-4513.31
-4513.31
-4513.31
-4513.3
-4513.29
-4513.29
-4513.28
-4513.27
-4513.26
-4513.25
-4513.24
-4513.23
-4513.23
-4513.22
-4513.21
-4513.2
-4513.19
-4513.18
-4513.17
-4513.16
-4513.16
-4513.15
-4513.15
-4513.14
-4513.14
-4513.13
-4513.13
-4513.13
-4513.12
-4513.12
-4513.12
-4513.12
-4513.12
-4513.12
-4513.13
-4513.13
-4513.13
-4513.13
-4513.14
-4513.14
-4513.14
-4513.15
-4513.15
-4513.16
-4513.16
-4513.16
-4513.17
-4513.17
-4513.18
-4513.18
-4513.19
-4513.19
-4513.19
-4513.2
-4513.2
-4513.2
-4513.21
-4513.21
-4513.21
-4513.21
-4513.21
-4513.22
-4513.22
-4513.22
-4513.22
-4513.22
-4513.22
-4513.22
-4513.22
-4513.22
-4513.23
-4513.23
-4513.23
-4513.23
-4513.23
-4513.23
-4513.23
-4513.23
-4513.23
-4513.23
-4513.23
-4513.23
-5224.25
-5224.25
-5224.24
-5224.24
-5224.23
-5224.23
-5224.22
-5224.21
-5224.2
-5224.2
-5224.19
-5224.19
-5224.18
-5224.18
-5224.19
-5224.2
-5224.21
-5224.23
-5224.26
-5224.29
-5224.32
-5224.37
-5224.42
-5224.47
-5224.53
-5224.6
-5224.67
-5224.74
-5224.82
-5224.91
-5224.99
-5225.08
-5225.17
-5225.25
-5225.34
-5225.43
-5225.52
-5225.6
-5225.69
-5225.77
-5225.85
-5225.93
-5226.01
-5226.08
-5226.15
-5226.22
-5226.28
-5226.34
-5226.4
-5226.45
-5226.5
-5226.55
-5226.59
-5226.62
-5226.65
-5226.68
-5226.7
-5226.72
-5226.73
-5226.74
-5226.74
-5226.74
-5226.74
-5226.73
-5226.71
-5226.7
-5226.68
-5226.65
-5226.63
-5226.6
-5226.57
-5226.54
-5226.5
-5226.47
-5226.44
-5226.41
-5226.38
-5226.35
-5226.32
-5226.3
-5226.28
-5226.26
-5226.25
-5226.24
-5226.23
-5226.23
-5226.23
-5226.23
-5226.24
-5226.25
-5226.26
-5226.28
-5226.3
-5226.32
-5226.34
-5226.36
-5226.39
-5226.41
-5226.44
-5226.47
-5226.49
-5226.52
-5226.54
-5226.57
-5226.59
-5226.61
-5226.63
-5226.65
-5226.66
-5226.67
-5226.68
-5226.69
-5226.7
-5226.71
-5226.71
-5226.71
-5226.71
-5226.71
-5226.71
-5226.7
-5226.7
-5226.69
-5226.68
-5226.67
-5226.67
-5226.66
-5226.65
-5226.63
-5226.62
-5226.61
-5226.6
-5226.59
-5226.58
-5226.57
-5226.56
-5226.55
-5226.55
-5226.54
-5226.53
-5226.52
-5226.52
-5226.51
-5226.51
-5226.51
-5226.5
-5226.5
-5226.5
-5226.5
-5226.5
-5226.5
-5226.5
-5226.5
-5226.5
-5226.5
-5226.51
-5226.51
-5226.51
-5226.52
-5226.52
-5226.53
-5226.53
-5226.53
-5226.54
-5226.54
-5226.55
-5226.55
-5226.56
-5226.56
-5226.56
-5226.57
-5226.57
-5226.58
-5226.58
-5226.58
-5226.58
-5226.59
-5226.59
-5226.59
-5226.59
-5226.6
-5226.6
-5226.6
-5226.6
-5226.6
-5226.6
-5226.6
-5226.6
-5226.6
-5226.6
-5226.6
-5226.6
-5226.6
-5226.6
-5226.6
-5226.6
-5226.6
-5226.6
-5226.6
-5226.6
-5226.6
-5856.12
-5856.11
-5856.1
-5856.09
-5856.08
-5856.06
-5856.03
-5856.01
-5855.98
-5855.96
-5855.93
-5855.9
-5855.88
-5855.87
-5855.86
-5855.86
-5855.86
-5855.87
-5855.9
-5855.93
-5855.97
-5856.03
-5856.09
-5856.16
-5856.24
-5856.33
-5856.43
-5856.53
-5856.64
-5856.75
-5856.86
-5856.97
-5857.09
-5857.2
-5857.31
-5857.41
-5857.52
-5857.62
-5857.72
-5857.82
-5857.91
-5858
-5858.09
-5858.17
-5858.25
-5858.33
-5858.4
-5858.47
-5858.53
-5858.59
-5858.64
-5858.69
-5858.73
-5858.77
-5858.8
-5858.82
-5858.84
-5858.85
-5858.86
-5858.86
-5858.86
-5858.85
-5858.84
-5858.82
-5858.79
-5858.77
-5858.73
-5858.7
-5858.66
-5858.62
-5858.58
-5858.53
-5858.49
-5858.45
-5858.4
-5858.36
-5858.32
-5858.29
-5858.25
-5858.22
-5858.2
-5858.17
-5858.16
-5858.14
-5858.13
-5858.13
-5858.13
-5858.14
-5858.15
-5858.16
-5858.18
-5858.2
-5858.22
-5858.25
-5858.28
-5858.31
-5858.34
-5858.37
-5858.4
-5858.43
-5858.46
-5858.49
-5858.52
-5858.54
-5858.57
-5858.59
-5858.61
-5858.63
-5858.64
-5858.66
-5858.67
-5858.68
-5858.69
-5858.69
-5858.69
-5858.69
-5858.69
-5858.69
-5858.68
-5858.68
-5858.67
-5858.66
-5858.65
-5858.64
-5858.63
-5858.62
-5858.61
-5858.6
-5858.59
-5858.57
-5858.56
-5858.55
-5858.54
-5858.53
-5858.52
-5858.51
-5858.5
-5858.49
-5858.49
-5858.48
-5858.47
-5858.47
-5858.46
-5858.46
-5858.46
-5858.46
-5858.45
-5858.45
-5858.45
-5858.45
-5858.46
-5858.46
-5858.46
-5858.46
-5858.46
-5858.47
-5858.47
-5858.48
-5858.48
-5858.48
-5858.49
-5858.49
-5858.5
-5858.5
-5858.51
-5858.51
-5858.52
-5858.52
-5858.53
-5858.53
-5858.53
-5858.54
-5858.54
-5858.54
-5858.55
-5858.55
-5858.55
-5858.55
-5858.56
-5858.56
-5858.56
-5858.56
-5858.56
-5858.56
-5858.56
-5858.56
-5858.56
-5858.56
-5858.56
-5858.56
-5858.56
-5858.56
-5858.56
-5858.56
-5858.56
-5858.56
-5858.56
-5858.56
-5858.56
-5858.56
-6415.96
-6415.95
-6415.93
-6415.9
-6415.86
-6415.81
-6415.75
-6415.68
-6415.61
-6415.54
-6415.48
-6415.43
-6415.38
-6415.34
-6415.32
-6415.3
-6415.29
-6415.3
-6415.33
-6415.36
-6415.41
-6415.48
-6415.56
-6415.66
-6415.77
-6415.89
-6416.03
-6416.18
-6416.33
-6416.48
-6416.62
-6416.77
-6416.91
-6417.04
-6417.17
-6417.3
-6417.42
-6417.54
-6417.66
-6417.77
-6417.87
-6417.97
-6418.07
-6418.16
-6418.25
-6418.33
-6418.41
-6418.48
-6418.55
-6418.61
-6418.67
-6418.72
-6418.76
-6418.8
-6418.83
-6418.85
-6418.87
-6418.87
-6418.88
-6418.87
-6418.86
-6418.84
-6418.82
-6418.79
-6418.75
-6418.71
-6418.67
-6418.62
-6418.57
-6418.51
-6418.46
-6418.4
-6418.34
-6418.29
-6418.23
-6418.18
-6418.13
-6418.08
-6418.04
-6418
-6417.97
-6417.95
-6417.93
-6417.91
-6417.9
-6417.9
-6417.9
-6417.91
-6417.92
-6417.94
-6417.96
-6417.99
-6418.02
-6418.05
-6418.08
-6418.12
-6418.16
-6418.19
-6418.23
-6418.26
-6418.3
-6418.33
-6418.36
-6418.39
-6418.42
-6418.44
-6418.47
-6418.49
-6418.5
-6418.52
-6418.53
-6418.54
-6418.54
-6418.55
-6418.55
-6418.55
-6418.54
-6418.54
-6418.53
-6418.52
-6418.52
-6418.51
-6418.5
-6418.48
-6418.47
-6418.46
-6418.45
-6418.43
-6418.42
-6418.41
-6418.39
-6418.38
-6418.37
-6418.36
-6418.35
-6418.34
-6418.33
-6418.32
-6418.31
-6418.31
-6418.3
-6418.3
-6418.29
-6418.29
-6418.28
-6418.28
-6418.28
-6418.28
-6418.28
-6418.28
-6418.28
-6418.29
-6418.29
-6418.29
-6418.29
-6418.3
-6418.3
-6418.31
-6418.31
-6418.32
-6418.32
-6418.33
-6418.33
-6418.34
-6418.34
-6418.35
-6418.35
-6418.35
-6418.36
-6418.36
-6418.37
-6418.37
-6418.37
-6418.38
-6418.38
-6418.38
-6418.38
-6418.39
-6418.39
-6418.39
-6418.39
-6418.39
-6418.39
-6418.39
-6418.4
-6418.4
-6418.4
-6418.4
-6418.4
-6418.4
-6418.4
-6418.4
-6418.4
-6418.4
-6418.4
-6418.4
-6418.4
-6418.4
-6418.4
-6418.4
-6912.05
-6912.04
-6912.01
-6911.96
-6911.9
-6911.82
-6911.73
-6911.63
-6911.51
-6911.39
-6911.27
-6911.16
-6911.06
-6910.97
-6910.9
-6910.85
-6910.82
-6910.8
-6910.81
-6910.85
-6910.9
-6910.98
-6911.09
-6911.22
-6911.37
-6911.54
-6911.73
-6911.93
-6912.13
-6912.33
-6912.52
-6912.7
-6912.87
-6913.03
-6913.18
-6913.32
-6913.46
-6913.59
-6913.72
-6913.84
-6913.96
-6914.07
-6914.17
-6914.27
-6914.37
-6914.46
-6914.54
-6914.62
-6914.69
-6914.76
-6914.81
-6914.87
-6914.91
-6914.94
-6914.97
-6914.99
-6915
-6915.01
-6915
-6914.99
-6914.97
-6914.94
-6914.91
-6914.86
-6914.82
-6914.76
-6914.7
-6914.64
-6914.57
-6914.5
-6914.43
-6914.36
-6914.29
-6914.22
-6914.15
-6914.09
-6914.03
-6913.97
-6913.92
-6913.88
-6913.84
-6913.81
-6913.79
-6913.78
-6913.77
-6913.77
-6913.77
-6913.78
-6913.8
-6913.82
-6913.85
-6913.88
-6913.92
-6913.96
-6914
-6914.04
-6914.08
-6914.12
-6914.16
-6914.21
-6914.24
-6914.28
-6914.32
-6914.35
-6914.38
-6914.4
-6914.43
-6914.45
-6914.46
-6914.48
-6914.49
-6914.5
-6914.5
-6914.5
-6914.5
-6914.5
-6914.5
-6914.49
-6914.48
-6914.47
-6914.46
-6914.45
-6914.44
-6914.43
-6914.41
-6914.4
-6914.38
-6914.37
-6914.36
-6914.34
-6914.33
-6914.32
-6914.3
-6914.29
-6914.28
-6914.27
-6914.26
-6914.25
-6914.24
-6914.24
-6914.23
-6914.22
-6914.22
-6914.22
-6914.21
-6914.21
-6914.21
-6914.21
-6914.21
-6914.21
-6914.22
-6914.22
-6914.22
-6914.22
-6914.23
-6914.23
-6914.24
-6914.24
-6914.25
-6914.25
-6914.26
-6914.26
-6914.27
-6914.27
-6914.28
-6914.28
-6914.29
-6914.29
-6914.29
-6914.3
-6914.3
-6914.31
-6914.31
-6914.31
-6914.31
-6914.32
-6914.32
-6914.32
-6914.32
-6914.33
-6914.33
-6914.33
-6914.33
-6914.33
-6914.33
-6914.33
-6914.33
-6914.33
-6914.33
-6914.33
-6914.33
-6914.33
-6914.33
-6914.33
-6914.33
-6914.33
-6914.33
-6914.33
-6914.33
-6914.33
-7351.73
-7351.7
-7351.65
-7351.57
-7351.46
-7351.31
-7351.12
-7350.87
-7350.48
-7350.22
-7350
-7349.81
-7349.66
-7349.54
-7349.45
-7349.39
-7349.36
-7349.35
-7349.37
-7349.41
-7349.48
-7349.59
-7349.72
-7349.89
-7350.1
-7350.36
-7350.66
-7351.1
-7351.41
-7351.68
-7351.91
-7352.12
-7352.3
-7352.48
-7352.64
-7352.79
-7352.94
-7353.08
-7353.21
-7353.34
-7353.46
-7353.58
-7353.69
-7353.8
-7353.9
-7353.99
-7354.08
-7354.16
-7354.24
-7354.31
-7354.37
-7354.42
-7354.47
-7354.5
-7354.53
-7354.54
-7354.55
-7354.55
-7354.54
-7354.51
-7354.48
-7354.44
-7354.4
-7354.34
-7354.28
-7354.21
-7354.14
-7354.06
-7353.98
-7353.89
-7353.81
-7353.72
-7353.63
-7353.55
-7353.47
-7353.39
-7353.32
-7353.26
-7353.2
-7353.15
-7353.11
-7353.07
-7353.05
-7353.03
-7353.03
-7353.03
-7353.04
-7353.05
-7353.08
-7353.1
-7353.14
-7353.18
-7353.22
-7353.26
-7353.31
-7353.36
-7353.41
-7353.46
-7353.5
-7353.55
-7353.59
-7353.63
-7353.67
-7353.71
-7353.74
-7353.76
-7353.79
-7353.81
-7353.83
-7353.84
-7353.85
-7353.86
-7353.86
-7353.86
-7353.86
-7353.86
-7353.85
-7353.84
-7353.83
-7353.82
-7353.81
-7353.8
-7353.78
-7353.77
-7353.75
-7353.74
-7353.72
-7353.71
-7353.69
-7353.68
-7353.66
-7353.65
-7353.64
-7353.62
-7353.61
-7353.6
-7353.59
-7353.58
-7353.57
-7353.57
-7353.56
-7353.56
-7353.55
-7353.55
-7353.55
-7353.54
-7353.54
-7353.54
-7353.54
-7353.55
-7353.55
-7353.55
-7353.55
-7353.56
-7353.56
-7353.57
-7353.57
-7353.58
-7353.58
-7353.59
-7353.59
-7353.6
-7353.6
-7353.61
-7353.61
-7353.62
-7353.62
-7353.63
-7353.63
-7353.63
-7353.64
-7353.64
-7353.65
-7353.65
-7353.65
-7353.65
-7353.66
-7353.66
-7353.66
-7353.66
-7353.66
-7353.66
-7353.67
-7353.67
-7353.67
-7353.67
-7353.67
-7353.67
-7353.67
-7353.67
-7353.67
-7353.67
-7353.67
-7353.67
-7353.67
-7353.67
-7353.67
-7353.67
-7353.67
-7353.67
-7741.48
-7741.45
-7741.38
-7741.28
-7741.13
-7740.94
-7740.69
-7740.41
-7739.89
-7739.54
-7739.22
-7738.95
-7738.72
-7738.53
-7738.38
-7738.26
-7738.18
-7738.14
-7738.14
-7738.18
-7738.26
-7738.38
-7738.54
-7738.76
-7739.03
-7739.35
-7739.72
-7740.29
-7740.63
-7740.94
-7741.2
-7741.43
-7741.64
-7741.82
-7741.98
-7742.14
-7742.29
-7742.43
-7742.56
-7742.69
-7742.82
-7742.94
-7743.06
-7743.17
-7743.28
-7743.38
-7743.48
-7743.56
-7743.64
-7743.72
-7743.78
-7743.83
-7743.88
-7743.91
-7743.93
-7743.95
-7743.95
-7743.94
-7743.92
-7743.89
-7743.85
-7743.8
-7743.74
-7743.67
-7743.59
-7743.51
-7743.42
-7743.33
-7743.23
-7743.13
-7743.02
-7742.92
-7742.82
-7742.72
-7742.63
-7742.54
-7742.46
-7742.39
-7742.32
-7742.26
-7742.22
-7742.18
-7742.16
-7742.14
-7742.13
-7742.14
-7742.15
-7742.17
-7742.2
-7742.24
-7742.28
-7742.32
-7742.37
-7742.43
-7742.48
-7742.53
-7742.59
-7742.64
-7742.7
-7742.75
-7742.79
-7742.84
-7742.88
-7742.91
-7742.95
-7742.98
-7743
-7743.02
-7743.04
-7743.05
-7743.06
-7743.07
-7743.07
-7743.07
-7743.07
-7743.06
-7743.06
-7743.05
-7743.04
-7743.02
-7743.01
-7742.99
-7742.98
-7742.96
-7742.95
-7742.93
-7742.91
-7742.9
-7742.88
-7742.86
-7742.85
-7742.83
-7742.82
-7742.81
-7742.8
-7742.78
-7742.77
-7742.76
-7742.76
-7742.75
-7742.74
-7742.74
-7742.73
-7742.73
-7742.73
-7742.73
-7742.73
-7742.73
-7742.73
-7742.73
-7742.73
-7742.74
-7742.74
-7742.74
-7742.75
-7742.75
-7742.76
-7742.76
-7742.77
-7742.77
-7742.78
-7742.78
-7742.79
-7742.79
-7742.8
-7742.8
-7742.81
-7742.81
-7742.82
-7742.82
-7742.83
-7742.83
-7742.83
-7742.84
-7742.84
-7742.84
-7742.84
-7742.85
-7742.85
-7742.85
-7742.85
-7742.85
-7742.85
-7742.85
-7742.85
-7742.86
-7742.86
-7742.86
-7742.86
-7742.86
-7742.86
-7742.85
-7742.85
-7742.85
-7742.85
-7742.85
-7742.85
-7742.85
-7742.85
-7742.85
-8087.1
-8087.09
-8087.08
-8087.07
-8087.06
-8087.05
-8087.08
-8087.11
-8086.21
-8086.29
-8086.35
-8086.44
-8086.56
-8086.68
-8086.82
-8086.95
-8087.09
-8087.23
-8087.36
-8087.5
-8087.63
-8087.76
-8087.89
-8088.01
-8088.13
-8088.24
-8088.35
-8088.45
-8088.54
-8088.63
-8088.7
-8088.77
-8088.82
-8088.87
-8088.9
-8088.92
-8088.93
-8088.93
-8088.91
-8088.89
-8088.85
-8088.8
-8088.73
-8088.66
-8088.58
-8088.49
-8088.39
-8088.28
-8088.17
-8088.05
-8087.94
-8087.82
-8087.7
-8087.58
-8087.47
-8087.36
-8087.26
-8087.17
-8087.09
-8087.02
-8086.95
-8086.9
-8086.86
-8086.84
-8086.82
-8086.82
-8086.83
-8086.84
-8086.87
-8086.91
-8086.95
-8087
-8087.05
-8087.11
-8087.17
-8087.23
-8087.29
-8087.35
-8087.41
-8087.47
-8087.52
-8087.58
-8087.62
-8087.67
-8087.71
-8087.74
-8087.77
-8087.8
-8087.82
-8087.83
-8087.85
-8087.86
-8087.86
-8087.86
-8087.86
-8087.86
-8087.85
-8087.84
-8087.83
-8087.82
-8087.8
-8087.79
-8087.77
-8087.75
-8087.74
-8087.72
-8087.7
-8087.68
-8087.66
-8087.65
-8087.63
-8087.61
-8087.6
-8087.58
-8087.57
-8087.56
-8087.55
-8087.54
-8087.53
-8087.52
-8087.51
-8087.51
-8087.5
-8087.5
-8087.49
-8087.49
-8087.49
-8087.49
-8087.49
-8087.49
-8087.49
-8087.5
-8087.5
-8087.5
-8087.51
-8087.51
-8087.52
-8087.52
-8087.53
-8087.53
-8087.54
-8087.55
-8087.55
-8087.56
-8087.56
-8087.57
-8087.57
-8087.58
-8087.58
-8087.59
-8087.59
-8087.59
-8087.6
-8087.6
-8087.6
-8087.61
-8087.61
-8087.61
-8087.61
-8087.62
-8087.62
-8087.62
-8087.62
-8087.62
-8087.62
-8087.62
-8087.62
-8087.62
-8087.62
-8087.62
-8087.62
-8087.62
-8087.62
-8087.62
-8087.62
-8087.62
-8087.62
-8087.62
-8087.62
-8087.62
-8087.62
-8393.26
-8393.25
-8393.24
-8393.23
-8393.21
-8393.19
-8393.18
-8393.14
-8391.83
-8391.93
-8391.99
-8392.08
-8392.19
-8392.3
-8392.42
-8392.55
-8392.68
-8392.81
-8392.95
-8393.08
-8393.22
-8393.35
-8393.48
-8393.61
-8393.74
-8393.86
-8393.97
-8394.08
-8394.17
-8394.26
-8394.34
-8394.41
-8394.47
-8394.51
-8394.55
-8394.57
-8394.57
-8394.56
-8394.54
-8394.51
-8394.46
-8394.39
-8394.32
-8394.23
-8394.14
-8394.03
-8393.91
-8393.79
-8393.66
-8393.53
-8393.4
-8393.26
-8393.13
-8393
-8392.87
-8392.75
-8392.64
-8392.53
-8392.44
-8392.36
-8392.3
-8392.24
-8392.2
-8392.18
-8392.16
-8392.16
-8392.17
-8392.2
-8392.23
-8392.27
-8392.32
-8392.38
-8392.44
-8392.5
-8392.57
-8392.64
-8392.71
-8392.77
-8392.84
-8392.9
-8392.96
-8393.02
-8393.07
-8393.11
-8393.15
-8393.19
-8393.22
-8393.25
-8393.27
-8393.29
-8393.3
-8393.31
-8393.31
-8393.31
-8393.31
-8393.3
-8393.29
-8393.28
-8393.27
-8393.25
-8393.24
-8393.22
-8393.2
-8393.18
-8393.17
-8393.15
-8393.13
-8393.11
-8393.09
-8393.07
-8393.05
-8393.04
-8393.02
-8393.01
-8392.99
-8392.98
-8392.97
-8392.96
-8392.95
-8392.94
-8392.93
-8392.93
-8392.92
-8392.92
-8392.91
-8392.91
-8392.91
-8392.91
-8392.91
-8392.91
-8392.92
-8392.92
-8392.92
-8392.93
-8392.93
-8392.94
-8392.94
-8392.95
-8392.95
-8392.96
-8392.96
-8392.97
-8392.98
-8392.98
-8392.99
-8392.99
-8393
-8393
-8393.01
-8393.01
-8393.02
-8393.02
-8393.02
-8393.03
-8393.03
-8393.03
-8393.04
-8393.04
-8393.04
-8393.04
-8393.04
-8393.04
-8393.05
-8393.05
-8393.05
-8393.05
-8393.05
-8393.05
-8393.05
-8393.05
-8393.05
-8393.05
-8393.05
-8393.05
-8393.05
-8393.05
-8393.05
-8393.05
-8393.05
-8393.05
-8393.05
-8664.5
-8664.49
-8664.49
-8664.48
-8664.47
-8664.46
-8664.46
-8664.44
-8662.67
-8662.73
-8662.77
-8662.84
-8662.93
-8663.03
-8663.14
-8663.26
-8663.38
-8663.52
-8663.65
-8663.79
-8663.93
-8664.07
-8664.21
-8664.34
-8664.48
-8664.6
-8664.72
-8664.83
-8664.94
-8665.03
-8665.12
-8665.19
-8665.25
-8665.29
-8665.33
-8665.34
-8665.34
-8665.33
-8665.3
-8665.26
-8665.2
-8665.13
-8665.04
-8664.94
-8664.83
-8664.71
-8664.58
-8664.44
-8664.29
-8664.14
-8663.99
-8663.84
-8663.69
-8663.54
-8663.4
-8663.27
-8663.15
-8663.04
-8662.94
-8662.85
-8662.78
-8662.72
-8662.68
-8662.65
-8662.64
-8662.65
-8662.66
-8662.69
-8662.73
-8662.78
-8662.84
-8662.9
-8662.97
-8663.04
-8663.12
-8663.19
-8663.27
-8663.34
-8663.41
-8663.48
-8663.54
-8663.6
-8663.65
-8663.7
-8663.74
-8663.78
-8663.81
-8663.84
-8663.86
-8663.87
-8663.89
-8663.89
-8663.9
-8663.9
-8663.89
-8663.88
-8663.87
-8663.86
-8663.85
-8663.83
-8663.81
-8663.79
-8663.78
-8663.76
-8663.73
-8663.71
-8663.69
-8663.67
-8663.65
-8663.64
-8663.62
-8663.6
-8663.58
-8663.57
-8663.55
-8663.54
-8663.53
-8663.52
-8663.51
-8663.5
-8663.49
-8663.49
-8663.48
-8663.48
-8663.48
-8663.47
-8663.47
-8663.47
-8663.47
-8663.48
-8663.48
-8663.48
-8663.48
-8663.49
-8663.49
-8663.5
-8663.5
-8663.51
-8663.52
-8663.52
-8663.53
-8663.53
-8663.54
-8663.55
-8663.55
-8663.56
-8663.56
-8663.57
-8663.57
-8663.58
-8663.58
-8663.59
-8663.59
-8663.59
-8663.6
-8663.6
-8663.6
-8663.6
-8663.6
-8663.61
-8663.61
-8663.61
-8663.61
-8663.61
-8663.61
-8663.61
-8663.61
-8663.61
-8663.61
-8663.61
-8663.61
-8663.61
-8663.61
-8663.61
-8663.61
-8663.61
-8663.61
-8663.61
-8663.61
-8663.61
-8663.61
-8904.78
-8904.78
-8904.78
-8904.78
-8904.77
-8904.77
-8904.77
-8904.76
-8902.52
-8902.56
-8902.6
-8902.66
-8902.74
-8902.83
-8902.94
-8903.06
-8903.18
-8903.32
-8903.46
-8903.6
-8903.75
-8903.89
-8904.04
-8904.18
-8904.32
-8904.46
-8904.58
-8904.7
-8904.81
-8904.91
-8905
-8905.08
-8905.14
-8905.18
-8905.21
-8905.23
-8905.23
-8905.21
-8905.18
-8905.12
-8905.06
-8904.97
-8904.87
-8904.76
-8904.64
-8904.5
-8904.35
-8904.2
-8904.04
-8903.87
-8903.7
-8903.53
-8903.37
-8903.21
-8903.05
-8902.91
-8902.77
-8902.65
-8902.54
-8902.45
-8902.38
-8902.32
-8902.28
-8902.25
-8902.24
-8902.25
-8902.27
-8902.3
-8902.35
-8902.41
-8902.47
-8902.54
-8902.62
-8902.7
-8902.78
-8902.86
-8902.94
-8903.02
-8903.1
-8903.17
-8903.24
-8903.3
-8903.35
-8903.4
-8903.45
-8903.49
-8903.52
-8903.54
-8903.57
-8903.58
-8903.59
-8903.6
-8903.6
-8903.6
-8903.59
-8903.58
-8903.57
-8903.56
-8903.54
-8903.52
-8903.51
-8903.49
-8903.46
-8903.44
-8903.42
-8903.4
-8903.38
-8903.36
-8903.34
-8903.32
-8903.3
-8903.28
-8903.26
-8903.25
-8903.23
-8903.22
-8903.21
-8903.2
-8903.19
-8903.18
-8903.17
-8903.17
-8903.16
-8903.16
-8903.15
-8903.15
-8903.15
-8903.15
-8903.15
-8903.16
-8903.16
-8903.16
-8903.17
-8903.17
-8903.18
-8903.18
-8903.19
-8903.19
-8903.2
-8903.2
-8903.21
-8903.22
-8903.22
-8903.23
-8903.23
-8903.24
-8903.25
-8903.25
-8903.26
-8903.26
-8903.27
-8903.27
-8903.27
-8903.28
-8903.28
-8903.28
-8903.28
-8903.29
-8903.29
-8903.29
-8903.29
-8903.29
-8903.29
-8903.29
-8903.3
-8903.3
-8903.3
-8903.3
-8903.3
-8903.3
-8903.3
-8903.3
-8903.29
-8903.29
-8903.29
-8903.29
-8903.29
-8903.29
-8903.29
-8903.29
-8903.29
-9117.65
-9117.65
-9117.65
-9117.65
-9117.64
-9117.64
-9117.64
-9117.64
-9114.95
-9114.99
-9115.03
-9115.09
-9115.16
-9115.26
-9115.36
-9115.48
-9115.61
-9115.75
-9115.89
-9116.04
-9116.2
-9116.35
-9116.5
-9116.65
-9116.8
-9116.94
-9117.08
-9117.21
-9117.32
-9117.43
-9117.52
-9117.6
-9117.66
-9117.71
-9117.74
-9117.75
-9117.75
-9117.73
-9117.68
-9117.63
-9117.55
-9117.45
-9117.34
-9117.22
-9117.08
-9116.93
-9116.77
-9116.6
-9116.42
-9116.24
-9116.05
-9115.87
-9115.69
-9115.51
-9115.35
-9115.19
-9115.04
-9114.91
-9114.8
-9114.7
-9114.62
-9114.56
-9114.52
-9114.5
-9114.49
-9114.5
-9114.53
-9114.57
-9114.62
-9114.68
-9114.76
-9114.83
-9114.92
-9115
-9115.09
-9115.18
-9115.27
-9115.35
-9115.43
-9115.51
-9115.58
-9115.64
-9115.7
-9115.75
-9115.8
-9115.84
-9115.87
-9115.89
-9115.92
-9115.93
-9115.94
-9115.95
-9115.95
-9115.94
-9115.94
-9115.93
-9115.91
-9115.9
-9115.88
-9115.86
-9115.84
-9115.82
-9115.8
-9115.78
-9115.75
-9115.73
-9115.71
-9115.69
-9115.67
-9115.64
-9115.63
-9115.61
-9115.59
-9115.57
-9115.56
-9115.54
-9115.53
-9115.52
-9115.51
-9115.5
-9115.5
-9115.49
-9115.48
-9115.48
-9115.48
-9115.48
-9115.48
-9115.48
-9115.48
-9115.48
-9115.48
-9115.49
-9115.49
-9115.5
-9115.5
-9115.51
-9115.51
-9115.52
-9115.53
-9115.53
-9115.54
-9115.54
-9115.55
-9115.56
-9115.56
-9115.57
-9115.57
-9115.58
-9115.58
-9115.59
-9115.59
-9115.6
-9115.6
-9115.6
-9115.61
-9115.61
-9115.61
-9115.61
-9115.62
-9115.62
-9115.62
-9115.62
-9115.62
-9115.62
-9115.62
-9115.62
-9115.62
-9115.62
-9115.62
-9115.62
-9115.62
-9115.62
-9115.62
-9115.62
-9115.62
-9115.62
-9115.62
-9115.62
-9115.62
-9115.62
-9115.62
-9306.22
-9306.22
-9306.22
-9306.22
-9306.22
-9306.22
-9306.22
-9306.22
-9303.12
-9303.15
-9303.19
-9303.24
-9303.32
-9303.41
-9303.52
-9303.65
-9303.78
-9303.93
-9304.08
-9304.23
-9304.39
-9304.56
-9304.72
-9304.88
-9305.04
-9305.19
-9305.33
-9305.46
-9305.59
-9305.7
-9305.79
-9305.88
-9305.94
-9305.99
-9306.02
-9306.03
-9306.02
-9306
-9305.95
-9305.88
-9305.8
-9305.69
-9305.57
-9305.43
-9305.28
-9305.11
-9304.94
-9304.75
-9304.56
-9304.36
-9304.16
-9303.96
-9303.77
-9303.58
-9303.4
-9303.23
-9303.08
-9302.94
-9302.82
-9302.72
-9302.63
-9302.57
-9302.53
-9302.51
-9302.5
-9302.52
-9302.55
-9302.6
-9302.66
-9302.73
-9302.81
-9302.89
-9302.98
-9303.08
-9303.17
-9303.27
-9303.36
-9303.45
-9303.53
-9303.61
-9303.68
-9303.75
-9303.81
-9303.86
-9303.91
-9303.95
-9303.98
-9304.01
-9304.03
-9304.04
-9304.05
-9304.06
-9304.06
-9304.05
-9304.04
-9304.03
-9304.02
-9304
-9303.98
-9303.96
-9303.94
-9303.92
-9303.89
-9303.87
-9303.85
-9303.82
-9303.8
-9303.78
-9303.76
-9303.74
-9303.72
-9303.7
-9303.68
-9303.66
-9303.65
-9303.63
-9303.62
-9303.61
-9303.6
-9303.59
-9303.58
-9303.58
-9303.57
-9303.57
-9303.57
-9303.57
-9303.57
-9303.57
-9303.57
-9303.57
-9303.57
-9303.58
-9303.58
-9303.59
-9303.59
-9303.6
-9303.6
-9303.61
-9303.62
-9303.62
-9303.63
-9303.64
-9303.64
-9303.65
-9303.65
-9303.66
-9303.67
-9303.67
-9303.68
-9303.68
-9303.69
-9303.69
-9303.69
-9303.7
-9303.7
-9303.7
-9303.7
-9303.71
-9303.71
-9303.71
-9303.71
-9303.71
-9303.71
-9303.72
-9303.72
-9303.72
-9303.72
-9303.72
-9303.72
-9303.72
-9303.72
-9303.72
-9303.71
-9303.71
-9303.71
-9303.71
-9303.71
-9303.71
-9303.71
-9303.71
-9303.71
-9473.27
-9473.27
-9473.27
-9473.27
-9473.27
-9473.27
-9473.27
-9473.27
-9469.78
-9469.81
-9469.85
-9469.91
-9469.99
-9470.08
-9470.2
-9470.33
-9470.47
-9470.62
-9470.78
-9470.94
-9471.11
-9471.28
-9471.45