/*--------------------------------*- C++ -*----------------------------------*\
  =========                 |
  \\      /  F ield         | OpenFOAM: The Open Source CFD Toolbox
   \\    /   O peration     | Website:  https://openfoam.org
    \\  /    A nd           | Version:  12
     \\/     M anipulation  |
\*---------------------------------------------------------------------------*/
FoamFile
{
    format      ascii;
    class       volVectorField;
    location    "10.72";
    object      U;
}
// * * * * * * * * * * * * * * * * * * * * * * * * * * * * * * * * * * * * * //

dimensions      [0 1 -1 0 0 0 0];

internalField   nonuniform List<vector> 
3829
(
(6.11753e-06 -0.00025162 0)
(1.80056e-05 -0.000257391 0)
(3.04919e-05 -0.000257568 0)
(4.31219e-05 -0.000257692 0)
(5.61939e-05 -0.000257848 0)
(6.96872e-05 -0.000257995 0)
(8.36848e-05 -0.000258118 0)
(9.82481e-05 -0.000258185 0)
(0.00011344 -0.00025816 0)
(0.000129207 -0.000257998 0)
(0.000145755 -0.000257651 0)
(0.000163009 -0.000257067 0)
(0.000180889 -0.000256192 0)
(0.000199478 -0.000254967 0)
(0.000218687 -0.000253322 0)
(0.000238496 -0.000251207 0)
(0.000258807 -0.000248552 0)
(0.000279526 -0.000245306 0)
(0.000300541 -0.000241423 0)
(0.000321726 -0.000236853 0)
(0.000342928 -0.000231552 0)
(0.000363991 -0.000225488 0)
(0.00038473 -0.000218655 0)
(0.000404962 -0.000211044 0)
(0.000424466 -0.000202662 0)
(0.000443046 -0.000193536 0)
(0.000460514 -0.000183682 0)
(0.000476663 -0.000173164 0)
(0.000491257 -0.00016202 0)
(0.000504076 -0.000150356 0)
(0.000514914 -0.000138211 0)
(0.000523644 -0.000125682 0)
(0.000529995 -0.000112859 0)
(0.000533961 -9.98301e-05 0)
(0.000535311 -8.66844e-05 0)
(0.000534065 -7.34808e-05 0)
(0.000530442 -6.04655e-05 0)
(0.00052414 -4.77485e-05 0)
(0.000515243 -3.54547e-05 0)
(0.000503836 -2.36758e-05 0)
(0.000489858 -1.25216e-05 0)
(0.000473443 -2.04128e-06 0)
(0.000454775 7.73098e-06 0)
(0.000433985 1.67327e-05 0)
(0.000411261 2.48984e-05 0)
(0.000386793 3.21919e-05 0)
(0.000360828 3.85723e-05 0)
(0.0003336 4.40101e-05 0)
(0.000305377 4.84779e-05 0)
(0.000276477 5.19853e-05 0)
(0.000246952 5.44797e-05 0)
(0.000217468 5.60817e-05 0)
(0.000188377 5.66526e-05 0)
(0.000159499 5.63077e-05 0)
(0.000131265 5.50698e-05 0)
(0.000104409 5.30123e-05 0)
(7.90661e-05 5.0067e-05 0)
(5.51382e-05 4.64131e-05 0)
(3.32256e-05 4.21077e-05 0)
(1.36326e-05 3.72281e-05 0)
(-3.38373e-06 3.17759e-05 0)
(-1.78392e-05 2.59152e-05 0)
(-2.94381e-05 1.96457e-05 0)
(-3.81447e-05 1.31379e-05 0)
(-4.38582e-05 6.49992e-06 0)
(-4.62942e-05 -2.11615e-07 0)
(-4.54987e-05 -6.80288e-06 0)
(-4.13173e-05 -1.32704e-05 0)
(-3.40859e-05 -1.94892e-05 0)
(-2.37752e-05 -2.53477e-05 0)
(-1.05559e-05 -3.0766e-05 0)
(5.68163e-06 -3.56288e-05 0)
(2.45068e-05 -3.99521e-05 0)
(4.49049e-05 -4.35063e-05 0)
(6.72338e-05 -4.62543e-05 0)
(9.09401e-05 -4.81809e-05 0)
(0.000115405 -4.91553e-05 0)
(0.000140663 -4.92404e-05 0)
(0.000165914 -4.83962e-05 0)
(0.000190459 -4.6568e-05 0)
(0.000214297 -4.37989e-05 0)
(0.000236702 -4.01552e-05 0)
(0.000256768 -3.56685e-05 0)
(0.000274659 -3.03494e-05 0)
(0.000289687 -2.44312e-05 0)
(0.000301152 -1.78916e-05 0)
(0.000309024 -1.09065e-05 0)
(0.000312969 -3.57369e-06 0)
(0.000312443 3.89886e-06 0)
(0.000307155 1.13976e-05 0)
(0.000297249 1.87457e-05 0)
(0.000282902 2.58132e-05 0)
(0.000264282 3.24207e-05 0)
(0.00024174 3.84183e-05 0)
(0.000215625 4.3625e-05 0)
(0.000186323 4.79042e-05 0)
(0.000154445 5.1136e-05 0)
(0.000120597 5.32076e-05 0)
(8.55676e-05 5.4059e-05 0)
(5.01166e-05 5.36144e-05 0)
(1.51177e-05 5.18988e-05 0)
(-1.85822e-05 4.89055e-05 0)
(-5.00983e-05 4.47184e-05 0)
(-7.86597e-05 3.9402e-05 0)
(-0.000103393 3.31405e-05 0)
(-0.000123643 2.60385e-05 0)
(-0.000138857 1.8368e-05 0)
(-0.000148566 1.02515e-05 0)
(-0.000152551 2.10164e-06 0)
(-0.000150253 -5.93518e-06 0)
(-0.000141888 -1.35313e-05 0)
(-0.000127894 -2.0539e-05 0)
(-0.000108864 -2.66545e-05 0)
(-8.55174e-05 -3.16673e-05 0)
(-5.86173e-05 -3.53702e-05 0)
(-2.91602e-05 -3.76339e-05 0)
(1.82137e-06 -3.83437e-05 0)
(3.28382e-05 -3.74787e-05 0)
(6.26363e-05 -3.5047e-05 0)
(8.99883e-05 -3.11923e-05 0)
(0.000113678 -2.59573e-05 0)
(0.000132708 -1.96856e-05 0)
(0.000146133 -1.251e-05 0)
(0.000153323 -4.91852e-06 0)
(0.000153511 2.84804e-06 0)
(0.000146558 1.04259e-05 0)
(0.000132972 1.74548e-05 0)
(0.000113404 2.35824e-05 0)
(8.87764e-05 2.84676e-05 0)
(6.01124e-05 3.18609e-05 0)
(2.87662e-05 3.36007e-05 0)
(-3.57651e-06 3.36207e-05 0)
(-3.51628e-05 3.17865e-05 0)
(-6.4276e-05 2.82752e-05 0)
(-8.93088e-05 2.32658e-05 0)
(-0.000108941 1.70219e-05 0)
(-0.000122023 9.98781e-06 0)
(-0.000127858 2.44772e-06 0)
(-0.00012573 -4.96457e-06 0)
(-0.000115827 -1.19877e-05 0)
(-9.90505e-05 -1.80381e-05 0)
(-7.64671e-05 -2.28453e-05 0)
(-4.95664e-05 -2.60228e-05 0)
(-2.0057e-05 -2.74451e-05 0)
(1.02806e-05 -2.6924e-05 0)
(3.92221e-05 -2.46326e-05 0)
(6.45586e-05 -2.07414e-05 0)
(8.48108e-05 -1.55806e-05 0)
(9.86748e-05 -9.5395e-06 0)
(0.000105445 -3.12082e-06 0)
(0.000104547 3.11435e-06 0)
(9.63613e-05 8.77001e-06 0)
(8.20968e-05 1.33387e-05 0)
(6.30918e-05 1.65191e-05 0)
(4.11657e-05 1.8065e-05 0)
(1.83828e-05 1.7937e-05 0)
(-3.25245e-06 1.62009e-05 0)
(-2.18195e-05 1.31368e-05 0)
(-3.57838e-05 9.12664e-06 0)
(-4.42007e-05 4.6216e-06 0)
(-4.66234e-05 1.49056e-07 0)
(-4.32951e-05 -3.81588e-06 0)
(-3.51893e-05 -6.88217e-06 0)
(-2.37326e-05 -8.78169e-06 0)
(-1.0689e-05 -9.32615e-06 0)
(2.20187e-06 -8.54825e-06 0)
(1.3074e-05 -6.69608e-06 0)
(2.06023e-05 -4.04831e-06 0)
(2.40326e-05 -1.0778e-06 0)
(2.29405e-05 1.79459e-06 0)
(1.78885e-05 4.1719e-06 0)
(1.00183e-05 5.73902e-06 0)
(2.42714e-07 6.26989e-06 0)
(-9.53065e-06 5.70577e-06 0)
(-1.73035e-05 4.20323e-06 0)
(-2.21512e-05 2.01098e-06 0)
(-2.31165e-05 -5.27039e-07 0)
(-1.98744e-05 -3.02908e-06 0)
(-1.29216e-05 -5.15707e-06 0)
(-2.83344e-06 -6.59768e-06 0)
(9.20864e-06 -7.2498e-06 0)
(2.12737e-05 -6.90022e-06 0)
(3.19462e-05 -5.71759e-06 0)
(4.00558e-05 -3.87502e-06 0)
(4.46594e-05 -1.65457e-06 0)
(4.52503e-05 6.68771e-07 0)
(4.18371e-05 2.80439e-06 0)
(3.50027e-05 4.52594e-06 0)
(2.562e-05 5.64318e-06 0)
(1.47138e-05 6.1172e-06 0)
(3.60869e-06 5.92942e-06 0)
(-6.67927e-06 5.14568e-06 0)
(-1.51855e-05 3.98515e-06 0)
(-2.11657e-05 2.53451e-06 0)
(-2.43687e-05 1.01628e-06 0)
(-2.46952e-05 -4.67854e-07 0)
(-2.23645e-05 -1.75628e-06 0)
(-1.77565e-05 -2.7941e-06 0)
(-1.14097e-05 -3.50132e-06 0)
(-3.93214e-06 -3.8687e-06 0)
(5.35644e-06 8.27843e-06 0)
(1.66433e-05 1.1617e-05 0)
(2.83575e-05 9.34146e-06 0)
(4.05081e-05 5.85126e-06 0)
(5.33621e-05 1.24184e-06 0)
(6.71433e-05 -4.44425e-06 0)
(8.18326e-05 -1.10922e-05 0)
(9.76462e-05 -1.85957e-05 0)
(0.000114741 -2.68103e-05 0)
(0.000133158 -3.5557e-05 0)
(0.000153114 -4.4703e-05 0)
(0.000174562 -5.39703e-05 0)
(0.000197456 -6.31814e-05 0)
(0.000221967 -7.20611e-05 0)
(0.000247909 -8.04715e-05 0)
(0.000275235 -8.80718e-05 0)
(0.000303816 -9.47216e-05 0)
(0.00033335 -0.000100171 0)
(0.000363695 -0.000104194 0)
(0.00039469 -0.000106593 0)
(0.000426035 -0.000107223 0)
(0.000457274 -0.000105942 0)
(0.000488055 -0.000102627 0)
(0.000518109 -9.72512e-05 0)
(0.000546947 -8.97582e-05 0)
(0.000574341 -8.02174e-05 0)
(0.000599863 -6.86117e-05 0)
(0.000623169 -5.50963e-05 0)
(0.000643774 -3.97883e-05 0)
(0.000661477 -2.28838e-05 0)
(0.000676185 -4.58501e-06 0)
(0.000687455 1.48599e-05 0)
(0.000695131 3.51494e-05 0)
(0.000699241 5.59786e-05 0)
(0.000699762 7.70095e-05 0)
(0.000695805 9.80161e-05 0)
(0.000687324 0.000118788 0)
(0.000674833 0.000139142 0)
(0.000658585 0.000158817 0)
(0.000638797 0.000177567 0)
(0.000615694 0.000195144 0)
(0.000589872 0.000211314 0)
(0.00056145 0.000225841 0)
(0.000530401 0.000238567 0)
(0.000497075 0.000249318 0)
(0.000461815 0.000257975 0)
(0.000424913 0.000264416 0)
(0.000386685 0.000268587 0)
(0.000347609 0.000270411 0)
(0.000307878 0.00026988 0)
(0.000268111 0.000266955 0)
(0.000228534 0.000261733 0)
(0.000189451 0.000254168 0)
(0.000151505 0.000244428 0)
(0.000114886 0.00023249 0)
(7.98696e-05 0.000218632 0)
(4.70818e-05 0.000202821 0)
(1.70187e-05 0.000185335 0)
(-1.02469e-05 0.000166286 0)
(-3.46905e-05 0.000145984 0)
(-5.56827e-05 0.000124406 0)
(-7.3264e-05 0.000102076 0)
(-8.71493e-05 7.90067e-05 0)
(-9.68386e-05 5.56285e-05 0)
(-0.000102774 3.21065e-05 0)
(-0.000104329 8.83921e-06 0)
(-0.000101805 -1.39279e-05 0)
(-9.53889e-05 -3.5868e-05 0)
(-8.49772e-05 -5.67435e-05 0)
(-7.07497e-05 -7.62404e-05 0)
(-5.2883e-05 -9.4091e-05 0)
(-3.17071e-05 -0.000110042 0)
(-7.1972e-06 -0.000123887 0)
(1.9831e-05 -0.000135418 0)
(4.88458e-05 -0.000144337 0)
(7.96481e-05 -0.000150499 0)
(0.000111315 -0.000153737 0)
(0.000143522 -0.000153977 0)
(0.000175916 -0.000151279 0)
(0.000207484 -0.000145569 0)
(0.000237782 -0.00013684 0)
(0.00026614 -0.000125484 0)
(0.00029187 -0.000111286 0)
(0.000314431 -9.48115e-05 0)
(0.00033327 -7.60721e-05 0)
(0.000347924 -5.56612e-05 0)
(0.000357975 -3.37214e-05 0)
(0.00036301 -1.08459e-05 0)
(0.000362463 1.25213e-05 0)
(0.000356189 3.59227e-05 0)
(0.000344311 5.88689e-05 0)
(0.000327036 8.08483e-05 0)
(0.000304499 0.000101356 0)
(0.000277078 0.000119879 0)
(0.000245203 0.000135923 0)
(0.000209478 0.000149028 0)
(0.000170611 0.000158844 0)
(0.000129412 0.00016504 0)
(8.67933e-05 0.000167415 0)
(4.37756e-05 0.000165808 0)
(1.43749e-06 0.00016021 0)
(-3.92113e-05 0.000150684 0)
(-7.70927e-05 0.000137437 0)
(-0.000111172 0.000120742 0)
(-0.000140491 0.000101087 0)
(-0.000164187 7.89274e-05 0)
(-0.000181689 5.49512e-05 0)
(-0.000192196 2.98454e-05 0)
(-0.000195469 4.32146e-06 0)
(-0.000191228 -2.05498e-05 0)
(-0.000179728 -4.42476e-05 0)
(-0.000161511 -6.59297e-05 0)
(-0.000137047 -8.4792e-05 0)
(-0.000107344 -0.000100204 0)
(-7.33963e-05 -0.000111472 0)
(-3.64522e-05 -0.000118287 0)
(2.17432e-06 -0.000120195 0)
(4.0692e-05 -0.000117197 0)
(7.74619e-05 -0.00010931 0)
(0.000111186 -9.69224e-05 0)
(0.000140213 -8.04279e-05 0)
(0.000163367 -6.0584e-05 0)
(0.000179421 -3.82686e-05 0)
(0.000187545 -1.44355e-05 0)
(0.000187315 9.89122e-06 0)
(0.000178371 3.34237e-05 0)
(0.0001613 5.52236e-05 0)
(0.000136849 7.41323e-05 0)
(0.000106203 8.91612e-05 0)
(7.08004e-05 9.95468e-05 0)
(3.23995e-05 0.000104733 0)
(-7.24428e-06 0.000104424 0)
(-4.58821e-05 9.84506e-05 0)
(-8.11771e-05 8.72711e-05 0)
(-0.000111379 7.14699e-05 0)
(-0.00013469 5.19617e-05 0)
(-0.000149965 2.98821e-05 0)
(-0.000156201 6.56176e-06 0)
(-0.000152779 -1.65503e-05 0)
(-0.000140049 -3.81024e-05 0)
(-0.00011894 -5.68288e-05 0)
(-9.09324e-05 -7.14403e-05 0)
(-5.78108e-05 -8.10992e-05 0)
(-2.16686e-05 -8.51045e-05 0)
(1.51802e-05 -8.31739e-05 0)
(4.98895e-05 -7.57802e-05 0)
(8.00072e-05 -6.34354e-05 0)
(0.000103715 -4.7186e-05 0)
(0.000119465 -2.83299e-05 0)
(0.000126321 -8.38464e-06 0)
(0.000123943 1.09701e-05 0)
(0.000112851 2.83294e-05 0)
(9.44555e-05 4.22855e-05 0)
(7.05497e-05 5.18288e-05 0)
(4.33873e-05 5.62967e-05 0)
(1.55272e-05 5.55062e-05 0)
(-1.05438e-05 4.97535e-05 0)
(-3.24495e-05 3.99569e-05 0)
(-4.84371e-05 2.7278e-05 0)
(-5.73918e-05 1.3192e-05 0)
(-5.88817e-05 -7.20745e-07 0)
(-5.33961e-05 -1.29977e-05 0)
(-4.22444e-05 -2.23791e-05 0)
(-2.717e-05 -2.80042e-05 0)
(-1.03735e-05 -2.94596e-05 0)
(5.80098e-06 -2.67291e-05 0)
(1.91675e-05 -2.07028e-05 0)
(2.81274e-05 -1.22763e-05 0)
(3.17716e-05 -2.89607e-06 0)
(2.98166e-05 6.1189e-06 0)
(2.29988e-05 1.34939e-05 0)
(1.27099e-05 1.82733e-05 0)
(2.0933e-07 1.98085e-05 0)
(-1.21058e-05 1.79451e-05 0)
(-2.1862e-05 1.31656e-05 0)
(-2.79242e-05 6.28391e-06 0)
(-2.91996e-05 -1.62514e-06 0)
(-2.54003e-05 -9.38254e-06 0)
(-1.71341e-05 -1.58984e-05 0)
(-5.27765e-06 -2.02502e-05 0)
(8.8541e-06 -2.21849e-05 0)
(2.30143e-05 -2.10109e-05 0)
(3.53491e-05 -1.73105e-05 0)
(4.45764e-05 -1.16661e-05 0)
(4.96584e-05 -4.85836e-06 0)
(5.01012e-05 2.17419e-06 0)
(4.59866e-05 8.61388e-06 0)
(3.80233e-05 1.37281e-05 0)
(2.72956e-05 1.70317e-05 0)
(1.50152e-05 1.83374e-05 0)
(2.61542e-06 1.76927e-05 0)
(-8.64913e-06 1.52976e-05 0)
(-1.78019e-05 1.17292e-05 0)
(-2.41078e-05 7.38844e-06 0)
(-2.73101e-05 2.82937e-06 0)
(-2.73811e-05 -1.53516e-06 0)
(-2.45924e-05 -5.33837e-06 0)
(-1.94093e-05 -8.35019e-06 0)
(-1.24165e-05 -1.04068e-05 0)
(-4.27383e-06 -1.14734e-05 0)
(-3.42265e-06 -0.000400361 0)
(-1.00059e-05 -0.000411543 0)
(-1.60177e-05 -0.000417591 0)
(-2.08937e-05 -0.000426487 0)
(-2.41993e-05 -0.000438261 0)
(-2.54317e-05 -0.000452697 0)
(-2.40766e-05 -0.000469376 0)
(-1.98993e-05 -0.000487958 0)
(-1.23536e-05 -0.000507873 0)
(-1.65733e-06 -0.000528701 0)
(1.30197e-05 -0.000549758 0)
(3.18373e-05 -0.000570573 0)
(5.45754e-05 -0.000590472 0)
(8.09367e-05 -0.000608889 0)
(0.000111179 -0.000625337 0)
(0.000145199 -0.000639034 0)
(0.000182155 -0.000649429 0)
(0.000222428 -0.000655942 0)
(0.000265449 -0.00065811 0)
(0.00031047 -0.000655558 0)
(0.000356892 -0.000647906 0)
(0.000404321 -0.000634894 0)
(0.00045179 -0.000616357 0)
(0.000498659 -0.00059228 0)
(0.000544075 -0.000562683 0)
(0.000587607 -0.000527805 0)
(0.00062855 -0.000487891 0)
(0.000665909 -0.000443562 0)
(0.000699246 -0.000395156 0)
(0.000727917 -0.000343343 0)
(0.000751535 -0.000288888 0)
(0.000769456 -0.000232484 0)
(0.000781216 -0.000174706 0)
(0.00078675 -0.000116398 0)
(0.000786391 -5.80089e-05 0)
(0.000780873 -6.65954e-07 0)
(0.000770694 5.51566e-05 0)
(0.000755409 0.000108774 0)
(0.000734845 0.000159753 0)
(0.000709261 0.000207626 0)
(0.000678786 0.000251979 0)
(0.000643748 0.000292453 0)
(0.0006048 0.000328715 0)
(0.000562432 0.000360502 0)
(0.000517084 0.000387631 0)
(0.000469281 0.000409937 0)
(0.000419603 0.000427339 0)
(0.000368531 0.000439774 0)
(0.000316601 0.00044727 0)
(0.000264289 0.000449765 0)
(0.000212188 0.00044745 0)
(0.000160882 0.000440379 0)
(0.000111001 0.000428842 0)
(6.25484e-05 0.000412845 0)
(1.63667e-05 0.00039281 0)
(-2.6933e-05 0.00036885 0)
(-6.7233e-05 0.000341408 0)
(-0.000103958 0.000310665 0)
(-0.000136521 0.000277145 0)
(-0.000165238 0.000240971 0)
(-0.000189031 0.000202916 0)
(-0.000207818 0.000163062 0)
(-0.000221782 0.000122287 0)
(-0.000230275 8.07873e-05 0)
(-0.000233465 3.92514e-05 0)
(-0.000230782 -1.87499e-06 0)
(-0.000222668 -4.21036e-05 0)
(-0.000209126 -8.09036e-05 0)
(-0.000190574 -0.000117712 0)
(-0.000166946 -0.000151985 0)
(-0.000138677 -0.000183291 0)
(-0.00010603 -0.000211064 0)
(-6.95922e-05 -0.000234912 0)
(-3.0045e-05 -0.000254599 0)
(1.2567e-05 -0.000269562 0)
(5.72269e-05 -0.000279555 0)
(0.00010303 -0.000284381 0)
(0.000149172 -0.00028386 0)
(0.000194916 -0.000277998 0)
(0.000239756 -0.000266743 0)
(0.000282125 -0.000250307 0)
(0.000322008 -0.000228889 0)
(0.000358033 -0.000202699 0)
(0.000389585 -0.000172332 0)
(0.000415985 -0.000138198 0)
(0.00043622 -0.000100943 0)
(0.000450332 -6.12221e-05 0)
(0.000457129 -1.98728e-05 0)
(0.000456567 2.23309e-05 0)
(0.000448345 6.44687e-05 0)
(0.000432544 0.000105693 0)
(0.000409408 0.000145084 0)
(0.000379185 0.000181673 0)
(0.00034235 0.000214617 0)
(0.000299516 0.000242989 0)
(0.000251559 0.000266083 0)
(0.000199524 0.000283184 0)
(0.000144499 0.000293768 0)
(8.77687e-05 0.000297436 0)
(3.06505e-05 0.000293974 0)
(-2.53726e-05 0.000283333 0)
(-7.88987e-05 0.000265705 0)
(-0.000128524 0.000241416 0)
(-0.000172799 0.000211128 0)
(-0.000210462 0.000175518 0)
(-0.000240442 0.000135596 0)
(-0.000261719 9.25096e-05 0)
(-0.000273844 4.75651e-05 0)
(-0.000275827 2.02407e-06 0)
(-0.000267709 -4.24381e-05 0)
(-0.000250379 -8.47287e-05 0)
(-0.000223747 -0.000123001 0)
(-0.000188985 -0.000156377 0)
(-0.000147207 -0.000183154 0)
(-9.99918e-05 -0.00020266 0)
(-4.8957e-05 -0.000213877 0)
(4.12387e-06 -0.000216608 0)
(5.67021e-05 -0.000210373 0)
(0.000106679 -0.000195525 0)
(0.00015207 -0.000172629 0)
(0.000190931 -0.000142645 0)
(0.000221355 -0.000106609 0)
(0.000242078 -6.63369e-05 0)
(0.000252292 -2.33129e-05 0)
(0.000250769 2.01374e-05 0)
(0.000237652 6.22466e-05 0)
(0.000213855 0.000100924 0)
(0.000180085 0.000134408 0)
(0.00013816 0.00016079 0)
(9.00587e-05 0.000178827 0)
(3.81097e-05 0.000187403 0)
(-1.52522e-05 0.000186032 0)
(-6.6857e-05 0.000174725 0)
(-0.000113612 0.000154163 0)
(-0.000153174 0.00012552 0)
(-0.000183319 9.03037e-05 0)
(-0.000202321 5.07022e-05 0)
(-0.000209061 9.01309e-06 0)
(-0.000202962 -3.22009e-05 0)
(-0.000184702 -7.04029e-05 0)
(-0.000155428 -0.000103254 0)
(-0.000117073 -0.000128664 0)
(-7.22122e-05 -0.00014501 0)
(-2.35449e-05 -0.000151353 0)
(2.52277e-05 -0.000147092 0)
(7.06049e-05 -0.000133082 0)
(0.000109548 -0.000110409 0)
(0.000139448 -8.08973e-05 0)
(0.000158399 -4.69923e-05 0)
(0.000165262 -1.13855e-05 0)
(0.000159811 2.29781e-05 0)
(0.000142985 5.34301e-05 0)
(0.00011671 7.76473e-05 0)
(8.35311e-05 9.37948e-05 0)
(4.65308e-05 0.000100745 0)
(9.17329e-06 9.84132e-05 0)
(-2.50092e-05 8.7198e-05 0)
(-5.29515e-05 6.89416e-05 0)
(-7.24621e-05 4.5713e-05 0)
(-8.21524e-05 2.02544e-05 0)
(-8.17323e-05 -4.60853e-06 0)
(-7.20151e-05 -2.6318e-05 0)
(-5.48871e-05 -4.25779e-05 0)
(-3.29531e-05 -5.19233e-05 0)
(-9.11475e-06 -5.37511e-05 0)
(1.32248e-05 -4.81214e-05 0)
(3.11028e-05 -3.65916e-05 0)
(4.25854e-05 -2.10123e-05 0)
(4.64963e-05 -3.83107e-06 0)
(4.27405e-05 1.24195e-05 0)
(3.24198e-05 2.55347e-05 0)
(1.75012e-05 3.38147e-05 0)
(-1.06228e-07 3.62327e-05 0)
(-1.71591e-05 3.25548e-05 0)
(-3.05704e-05 2.37503e-05 0)
(-3.88023e-05 1.13116e-05 0)
(-4.05627e-05 -2.81916e-06 0)
(-3.55977e-05 -1.65369e-05 0)
(-2.47688e-05 -2.79387e-05 0)
(-9.61872e-06 -3.54467e-05 0)
(8.37369e-06 -3.84429e-05 0)
(2.6377e-05 -3.6205e-05 0)
(4.16455e-05 -2.9613e-05 0)
(5.28441e-05 -1.96866e-05 0)
(5.8719e-05 -7.90147e-06 0)
(5.87875e-05 4.1794e-06 0)
(5.3322e-05 1.50793e-05 0)
(4.32821e-05 2.36287e-05 0)
(3.01114e-05 2.89882e-05 0)
(1.53668e-05 3.08915e-05 0)
(7.40701e-07 2.95645e-05 0)
(-1.22577e-05 2.53542e-05 0)
(-2.25069e-05 1.91813e-05 0)
(-2.93164e-05 1.18412e-05 0)
(-3.24519e-05 4.23512e-06 0)
(-3.20132e-05 -2.942e-06 0)
(-2.84031e-05 -9.12756e-06 0)
(-2.21993e-05 -1.39973e-05 0)
(-1.41176e-05 -1.72959e-05 0)
(-4.84982e-06 -1.89998e-05 0)
(-1.70788e-05 5.73796e-05 0)
(-5.01226e-05 5.30597e-05 0)
(-8.2013e-05 3.83618e-05 0)
(-0.000111767 1.62864e-05 0)
(-0.000137743 -1.2735e-05 0)
(-0.00015751 -4.85721e-05 0)
(-0.00017033 -9.04984e-05 0)
(-0.000175145 -0.000138163 0)
(-0.000171385 -0.000190324 0)
(-0.000158531 -0.000246272 0)
(-0.000136185 -0.000304499 0)
(-0.000104694 -0.00036403 0)
(-6.37505e-05 -0.000423268 0)
(-1.46827e-05 -0.000480827 0)
(4.34629e-05 -0.000534913 0)
(0.000110738 -0.000584284 0)
(0.000185387 -0.000627267 0)
(0.000266479 -0.000662827 0)
(0.000352447 -0.000689623 0)
(0.000442415 -0.000706976 0)
(0.00053525 -0.000713854 0)
(0.000629147 -0.00070991 0)
(0.000722262 -0.000694848 0)
(0.000813229 -0.000668747 0)
(0.000900144 -0.000631559 0)
(0.000981587 -0.000584381 0)
(0.00105519 -0.000527747 0)
(0.00112019 -0.00046303 0)
(0.00117602 -0.000391075 0)
(0.00122046 -0.000313599 0)
(0.00125352 -0.000231977 0)
(0.00127591 -0.000147842 0)
(0.00128694 -6.26064e-05 0)
(0.0012875 2.23261e-05 0)
(0.00127639 0.000105724 0)
(0.00125313 0.000186865 0)
(0.00122015 0.000264657 0)
(0.00117824 0.000338297 0)
(0.00112886 0.00040709 0)
(0.00107243 0.000470327 0)
(0.00100978 0.000527569 0)
(0.000941926 0.000578408 0)
(0.000869568 0.000622573 0)
(0.000793459 0.000659809 0)
(0.000714445 0.000689965 0)
(0.00063337 0.000712945 0)
(0.000550999 0.000728744 0)
(0.000468135 0.000737363 0)
(0.000385256 0.000738851 0)
(0.000303238 0.000733389 0)
(0.000223156 0.000721087 0)
(0.0001456 0.000702174 0)
(7.06736e-05 0.000676916 0)
(-6.07534e-07 0.000645749 0)
(-6.75926e-05 0.000608867 0)
(-0.000130027 0.000566779 0)
(-0.00018715 0.000519811 0)
(-0.000238247 0.000468438 0)
(-0.00028347 0.000413189 0)
(-0.000322037 0.00035466 0)
(-0.000353534 0.000293617 0)
(-0.000377755 0.000230466 0)
(-0.000394153 0.000166148 0)
(-0.000403037 0.000101223 0)
(-0.000404018 3.6593e-05 0)
(-0.000397312 -2.70797e-05 0)
(-0.000383057 -8.89948e-05 0)
(-0.000361305 -0.000148435 0)
(-0.000332123 -0.000204573 0)
(-0.000296149 -0.000256594 0)
(-0.000253623 -0.000303813 0)
(-0.000205148 -0.000345503 0)
(-0.000151876 -0.000381041 0)
(-9.41115e-05 -0.000409776 0)
(-3.24048e-05 -0.000431237 0)
(3.17539e-05 -0.00044509 0)
(9.72312e-05 -0.00045095 0)
(0.000163015 -0.000448633 0)
(0.000228315 -0.000438031 0)
(0.000291597 -0.000419188 0)
(0.000351578 -0.000392471 0)
(0.000407738 -0.000357998 0)
(0.000458261 -0.00031662 0)
(0.000502106 -0.000268574 0)
(0.000538667 -0.000215037 0)
(0.000566866 -0.000156685 0)
(0.000585991 -9.48533e-05 0)
(0.000595335 -3.068e-05 0)
(0.000594313 3.47365e-05 0)
(0.000582738 9.9848e-05 0)
(0.000560895 0.000163403 0)
(0.000528857 0.000223883 0)
(0.000487104 0.000279919 0)
(0.000436276 0.000330086 0)
(0.000377325 0.000373088 0)
(0.000311514 0.000407816 0)
(0.00024013 0.000433246 0)
(0.000164859 0.000448585 0)
(8.74385e-05 0.000453266 0)
(9.7688e-06 0.000446992 0)
(-6.60894e-05 0.000429717 0)
(-0.000138258 0.000401718 0)
(-0.000204633 0.000363603 0)
(-0.000263435 0.000316256 0)
(-0.000313036 0.000260888 0)
(-0.000351685 0.000199144 0)
(-0.000378273 0.000132674 0)
(-0.000391984 6.33838e-05 0)
(-0.000391935 -6.36136e-06 0)
(-0.000378419 -7.46152e-05 0)
(-0.000351637 -0.000139027 0)
(-0.000312672 -0.000197344 0)
(-0.00026256 -0.000247629 0)
(-0.000202883 -0.000287783 0)
(-0.000136187 -0.000316686 0)
(-6.47631e-05 -0.000332743 0)
(8.91572e-06 -0.000335556 0)
(8.19226e-05 -0.000324726 0)
(0.000150631 -0.000300665 0)
(0.000212616 -0.000264309 0)
(0.000265452 -0.000216995 0)
(0.000306505 -0.000160854 0)
(0.000333901 -9.81852e-05 0)
(0.000346144 -3.19184e-05 0)
(0.000342468 3.49493e-05 0)
(0.000323214 9.96561e-05 0)
(0.000289232 0.000158775 0)
(0.000241803 0.000209498 0)
(0.000183233 0.000249177 0)
(0.000116495 0.000275807 0)
(4.47504e-05 0.000287836 0)
(-2.82917e-05 0.00028446 0)
(-9.84278e-05 0.00026606 0)
(-0.000161472 0.000233573 0)
(-0.000214435 0.000188805 0)
(-0.000254095 0.00013422 0)
(-0.000278252 7.30153e-05 0)
(-0.000285557 8.99079e-06 0)
(-0.0002753 -5.37637e-05 0)
(-0.000248463 -0.000111785 0)
(-0.000206877 -0.00016115 0)
(-0.000153297 -0.000198992 0)
(-9.13912e-05 -0.000222688 0)
(-2.48625e-05 -0.000231007 0)
(4.13038e-05 -0.000223115 0)
(0.000101914 -0.000200309 0)
(0.000153261 -0.00016446 0)
(0.000191773 -0.000118438 0)
(0.000214925 -6.60646e-05 0)
(0.000221352 -1.14895e-05 0)
(0.000211005 4.07712e-05 0)
(0.000185485 8.66382e-05 0)
(0.000147521 0.000122589 0)
(0.000100643 0.000145787 0)
(4.94515e-05 0.000154865 0)
(-1.49993e-06 0.000149573 0)
(-4.7332e-05 0.000130886 0)
(-8.37128e-05 0.000101539 0)
(-0.00010796 6.51026e-05 0)
(-0.000118249 2.55427e-05 0)
(-0.000114597 -1.26085e-05 0)
(-9.83384e-05 -4.55144e-05 0)
(-7.22507e-05 -6.95644e-05 0)
(-4.01804e-05 -8.28208e-05 0)
(-6.14035e-06 -8.41648e-05 0)
(2.50693e-05 -7.42967e-05 0)
(4.933e-05 -5.53823e-05 0)
(6.42035e-05 -3.05368e-05 0)
(6.81953e-05 -3.56663e-06 0)
(6.14712e-05 2.15288e-05 0)
(4.5824e-05 4.14997e-05 0)
(2.40268e-05 5.37455e-05 0)
(-1.04212e-06 5.6871e-05 0)
(-2.48947e-05 5.0636e-05 0)
(-4.34282e-05 3.66772e-05 0)
(-5.46164e-05 1.73272e-05 0)
(-5.68775e-05 -4.31501e-06 0)
(-5.0096e-05 -2.51186e-05 0)
(-3.55277e-05 -4.2116e-05 0)
(-1.54074e-05 -5.31356e-05 0)
(8.08576e-06 -5.70232e-05 0)
(3.12688e-05 -5.33411e-05 0)
(5.06475e-05 -4.32092e-05 0)
(6.44759e-05 -2.82755e-05 0)
(7.1298e-05 -1.07941e-05 0)
(7.07126e-05 6.89836e-06 0)
(6.32445e-05 2.26151e-05 0)
(5.02385e-05 3.4713e-05 0)
(3.36206e-05 4.20598e-05 0)
(1.55399e-05 4.43812e-05 0)
(-2.04574e-06 4.19802e-05 0)
(-1.73197e-05 3.55929e-05 0)
(-2.89699e-05 2.65062e-05 0)
(-3.63303e-05 1.59569e-05 0)
(-3.92689e-05 5.18375e-06 0)
(-3.80733e-05 -4.81743e-06 0)
(-3.33413e-05 -1.3325e-05 0)
(-2.58024e-05 -1.99371e-05 0)
(-1.62905e-05 -2.43901e-05 0)
(-5.58313e-06 -2.66429e-05 0)
(-5.21139e-05 0.000103397 0)
(-0.000154835 7.14896e-05 0)
(-0.000254584 3.2433e-05 0)
(-0.000348072 -2.58332e-05 0)
(-0.000434082 -0.00010185 0)
(-0.000510207 -0.000195598 0)
(-0.00057503 -0.000302489 0)
(-0.000625655 -0.000423184 0)
(-0.000659562 -0.000549457 0)
(-0.000675696 -0.000681913 0)
(-0.000672443 -0.000814794 0)
(-0.00064977 -0.000947253 0)
(-0.000606077 -0.00107488 0)
(-0.000541179 -0.00119589 0)
(-0.000456211 -0.00130658 0)
(-0.000352489 -0.00140505 0)
(-0.000232192 -0.00148862 0)
(-9.73957e-05 -0.00155493 0)
(4.87353e-05 -0.00160249 0)
(0.0002038 -0.00162948 0)
(0.000365062 -0.00163394 0)
(0.000528122 -0.00161572 0)
(0.000689697 -0.00157365 0)
(0.00084784 -0.00150945 0)
(0.000996707 -0.00142197 0)
(0.00113313 -0.00131549 0)
(0.00125523 -0.00118839 0)
(0.00136091 -0.00104847 0)
(0.00144847 -0.000892677 0)
(0.00151525 -0.0007316 0)
(0.00156169 -0.000563715 0)
(0.00158777 -0.000396005 0)
(0.00159442 -0.000229932 0)
(0.00158306 -6.88228e-05 0)
(0.00155698 8.59646e-05 0)
(0.00151765 0.000232051 0)
(0.00146562 0.00036879 0)
(0.0014024 0.000494601 0)
(0.00132865 0.000608853 0)
(0.00124591 0.000711048 0)
(0.00115581 0.000800941 0)
(0.00105955 0.000878364 0)
(0.000958484 0.000943536 0)
(0.000853645 0.000996143 0)
(0.000746187 0.00103691 0)
(0.000637246 0.0010659 0)
(0.000527762 0.00108367 0)
(0.000418456 0.00109014 0)
(0.000310488 0.00108599 0)
(0.000204558 0.0010717 0)
(0.000101397 0.00104762 0)
(2.13438e-06 0.00101428 0)
(-9.20475e-05 0.000972233 0)
(-0.000181372 0.000921944 0)
(-0.000264865 0.00086383 0)
(-0.000341601 0.000798592 0)
(-0.000411636 0.000727015 0)
(-0.000473788 0.00064972 0)
(-0.00052728 0.000567472 0)
(-0.000571658 0.000481237 0)
(-0.000606712 0.000391595 0)
(-0.000631972 0.000299866 0)
(-0.000647154 0.000206595 0)
(-0.000652049 0.000113115 0)
(-0.000646547 2.0308e-05 0)
(-0.000630653 -7.0717e-05 0)
(-0.00060476 -0.000158987 0)
(-0.000568988 -0.000243221 0)
(-0.000523603 -0.000322461 0)
(-0.00046914 -0.000395558 0)
(-0.000406372 -0.000461557 0)
(-0.000335974 -0.000519439 0)
(-0.000258915 -0.000568349 0)
(-0.000176311 -0.000607398 0)
(-8.92683e-05 -0.000636004 0)
(8.41466e-07 -0.000653659 0)
(9.26557e-05 -0.000659788 0)
(0.000184581 -0.000654291 0)
(0.000275274 -0.000636995 0)
(0.000362885 -0.000608158 0)
(0.00044574 -0.000567962 0)
(0.000522632 -0.00051698 0)
(0.000591925 -0.000456025 0)
(0.000652275 -0.000386018 0)
(0.00070203 -0.000308219 0)
(0.000739995 -0.000223846 0)
(0.000765229 -0.000134588 0)
(0.000777327 -4.23091e-05 0)
(0.000775404 5.14328e-05 0)
(0.000759044 0.000144586 0)
(0.000728652 0.000235247 0)
(0.000684419 0.000321293 0)
(0.000627025 0.000400683 0)
(0.000557316 0.00047154 0)
(0.000476855 0.000532064 0)
(0.000387299 0.000580505 0)
(0.000290531 0.000615553 0)
(0.000188779 0.000636065 0)
(8.44869e-05 0.000641326 0)
(-1.98432e-05 0.000630825 0)
(-0.0001215 0.000604591 0)
(-0.000217755 0.000563351 0)
(-0.000306008 0.000507608 0)
(-0.000383694 0.000439067 0)
(-0.000448215 0.000359298 0)
(-0.000497803 0.000270625 0)
(-0.000531127 0.000175447 0)
(-0.00054661 7.66789e-05 0)
(-0.000543489 -2.26401e-05 0)
(-0.000522127 -0.000119398 0)
(-0.00048306 -0.000210516 0)
(-0.000427354 -0.000292481 0)
(-0.000356673 -0.000362745 0)
(-0.000273847 -0.000418616 0)
(-0.000181612 -0.000457778 0)
(-8.30136e-05 -0.000478807 0)
(1.79579e-05 -0.000480843 0)
(0.000117351 -0.000463427 0)
(0.000210717 -0.000427404 0)
(0.000294602 -0.000373878 0)
(0.000365254 -0.000305213 0)
(0.000419363 -0.000224349 0)
(0.000454579 -0.000134244 0)
(0.000469223 -3.94346e-05 0)
(0.000462726 5.6195e-05 0)
(0.000434897 0.000147765 0)
(0.000386875 0.000231399 0)
(0.000320924 0.000302486 0)
(0.000240346 0.000357767 0)
(0.000149047 0.000394107 0)
(5.13338e-05 0.000409621 0)
(-4.73959e-05 0.000403195 0)
(-0.000141411 0.000375362 0)
(-0.000225611 0.000327795 0)
(-0.000295635 0.000262712 0)
(-0.000347496 0.000184166 0)
(-0.000377913 9.68415e-05 0)
(-0.000384866 5.97546e-06 0)
(-0.000368571 -8.28313e-05 0)
(-0.000330314 -0.000164382 0)
(-0.000272387 -0.000233274 0)
(-0.000198742 -0.000285239 0)
(-0.000114336 -0.000317065 0)
(-2.43468e-05 -0.000326684 0)
(6.4247e-05 -0.000313556 0)
(0.000144525 -0.000279252 0)
(0.000211661 -0.000226771 0)
(0.00026085 -0.000160347 0)
(0.000288902 -8.52552e-05 0)
(0.000294192 -7.85109e-06 0)
(0.00027693 6.5781e-05 0)
(0.000239575 0.000129784 0)
(0.00018582 0.000179093 0)
(0.000120908 0.000209931 0)
(5.10466e-05 0.000220568 0)
(-1.76218e-05 0.000210514 0)
(-7.82945e-05 0.000181864 0)
(-0.000125193 0.000138405 0)
(-0.000155032 8.52317e-05 0)
(-0.000165664 2.83717e-05 0)
(-0.000157266 -2.58235e-05 0)
(-0.000131921 -7.18508e-05 0)
(-9.37401e-05 -0.000104804 0)
(-4.80873e-05 -0.000121912 0)
(-6.21947e-07 -0.000121988 0)
(4.19531e-05 -0.000105981 0)
(7.437e-05 -7.744e-05 0)
(9.32898e-05 -4.08364e-05 0)
(9.69072e-05 -1.82179e-06 0)
(8.59088e-05 3.4204e-05 0)
(6.29648e-05 6.23011e-05 0)
(3.19579e-05 7.90164e-05 0)
(-2.89916e-06 8.25252e-05 0)
(-3.55466e-05 7.27568e-05 0)
(-6.06147e-05 5.21828e-05 0)
(-7.53934e-05 2.43299e-05 0)
(-7.80458e-05 -6.36799e-06 0)
(-6.86242e-05 -3.54948e-05 0)
(-4.89959e-05 -5.8945e-05 0)
(-2.2395e-05 -7.37866e-05 0)
(8.1405e-06 -7.84762e-05 0)
(3.78448e-05 -7.2765e-05 0)
(6.22729e-05 -5.82534e-05 0)
(7.92434e-05 -3.74324e-05 0)
(8.7058e-05 -1.34015e-05 0)
(8.54175e-05 1.05434e-05 0)
(7.52587e-05 3.15078e-05 0)
(5.84618e-05 4.72618e-05 0)
(3.75934e-05 5.64967e-05 0)
(1.53485e-05 5.89076e-05 0)
(-5.83236e-06 5.50235e-05 0)
(-2.37395e-05 4.60757e-05 0)
(-3.69304e-05 3.37096e-05 0)
(-4.4813e-05 1.96899e-05 0)
(-4.73873e-05 5.61738e-06 0)
(-4.51763e-05 -7.22726e-06 0)
(-3.90398e-05 -1.79904e-05 0)
(-2.99005e-05 -2.61975e-05 0)
(-1.87355e-05 -3.16605e-05 0)
(-6.38989e-06 -3.44134e-05 0)
(-0.00012938 0.00127175 0)
(-0.000384735 0.00122999 0)
(-0.000634432 0.0011537 0)
(-0.00086783 0.00103895 0)
(-0.00108338 0.000890293 0)
(-0.00126442 0.000706526 0)
(-0.00141463 0.000501159 0)
(-0.00151613 0.000265754 0)
(-0.00157235 2.69947e-05 0)
(-0.00158936 -0.000237388 0)
(-0.0015583 -0.000512509 0)
(-0.00148824 -0.000796227 0)
(-0.00137644 -0.00107441 0)
(-0.00122853 -0.00134143 0)
(-0.00104452 -0.00158834 0)
(-0.000830449 -0.00180842 0)
(-0.000587495 -0.0019964 0)
(-0.000321853 -0.00214798 0)
(-3.63768e-05 -0.00225975 0)
(0.000264771 -0.00232773 0)
(0.000570379 -0.00235034 0)
(0.00088008 -0.00232942 0)
(0.00118204 -0.00226183 0)