/*--------------------------------*- C++ -*----------------------------------*\
  =========                 |
  \\      /  F ield         | OpenFOAM: The Open Source CFD Toolbox
   \\    /   O peration     | Website:  https://openfoam.org
    \\  /    A nd           | Version:  12
     \\/     M anipulation  |
\*---------------------------------------------------------------------------*/
FoamFile
{
    format      ascii;
    class       volScalarField;
    location    "13.44";
    object      p_rgh;
}
// * * * * * * * * * * * * * * * * * * * * * * * * * * * * * * * * * * * * * //

dimensions      [1 -1 -2 0 0 0 0];

internalField   nonuniform List<scalar> 
3829
(
2.63088
2.62988
2.62782
2.62468
2.6204
2.6149
2.60814
2.60003
2.59049
2.57944
2.56678
2.55242
2.53628
2.51823
2.49821
2.4761
2.45183
2.42531
2.39649
2.36529
2.33169
2.29565
2.25717
2.21626
2.17295
2.1273
2.07939
2.02933
1.97726
1.92331
1.86769
1.8106
1.75226
1.69294
1.6329
1.57244
1.51186
1.45147
1.3916
1.33256
1.27467
1.21822
1.16341
1.11121
1.06175
1.01522
0.971829
0.931731
0.895066
0.861941
0.832431
0.80658
0.784398
0.765861
0.750911
0.73945
0.731343
0.7264
0.72438
0.724992
0.727892
0.732686
0.738946
0.746202
0.753952
0.761673
0.768817
0.774821
0.779133
0.781201
0.780491
0.776491
0.768734
0.756798
0.740323
0.719037
0.69274
0.660778
0.623336
0.580699
0.533142
0.481004
0.42469
0.364709
0.301699
0.23636
0.169571
0.102536
0.0361754
-0.0284433
-0.0902042
-0.147983
-0.200668
-0.247213
-0.286657
-0.318162
-0.341033
-0.354829
-0.358221
-0.351606
-0.335384
-0.310075
-0.27636
-0.23514
-0.187599
-0.135182
-0.0795539
-0.0225121
0.0338464
0.0875973
0.136725
0.179291
0.213535
0.237939
0.251339
0.252953
0.241415
0.217462
0.18197
0.136093
0.0814019
0.0199549
-0.0458542
-0.112968
-0.178315
-0.238919
-0.29176
-0.33405
-0.363472
-0.378298
-0.377515
-0.359667
-0.326222
-0.278768
-0.21952
-0.151504
-0.07835
-0.0040282
0.0666333
0.12967
0.181138
0.217776
0.237269
0.238443
0.220138
0.184688
0.134557
0.0733415
0.00555099
-0.0640406
-0.129366
-0.185906
-0.229308
-0.256478
-0.265795
-0.256603
-0.231208
-0.192755
-0.145308
-0.0940629
-0.0460182
-0.00576748
0.022109
0.0344598
0.0288913
0.0072394
-0.0278421
-0.0725977
-0.121371
-0.167772
-0.206676
-0.233535
-0.245775
-0.239487
-0.219491
-0.188907
-0.152671
-0.116447
-0.0859854
-0.0654159
-0.0571902
-0.0614053
-0.0760035
-0.0967924
-0.118605
-0.13624
-0.145228
-0.143331
-0.130172
-0.107792
-0.0801422
-0.0520558
-0.0287041
-0.0137365
-0.00891776
-0.0162219
-0.0291939
-0.0458907
-0.0613337
-0.0706418
2.74139
2.74063
2.73908
2.73668
2.73336
2.72904
2.72363
2.71701
2.70904
2.69959
2.6885
2.6756
2.66072
2.64368
2.62429
2.60237
2.57776
2.55029
2.51981
2.48622
2.4494
2.40929
2.36586
2.31911
2.26908
2.21587
2.15959
2.10042
2.03857
1.97428
1.90785
1.83959
1.76985
1.69901
1.62747
1.55563
1.48392
1.41278
1.34264
1.27394
1.20715
1.14274
1.08132
1.02262
0.967244
0.915609
0.86806
0.824873
0.786269
0.752411
0.723408
0.699319
0.680149
0.665847
0.656308
0.651357
0.650747
0.654167
0.661255
0.671592
0.684706
0.700074
0.717126
0.735247
0.753782
0.77204
0.789302
0.804999
0.818356
0.828672
0.835279
0.83754
0.834875
0.826776
0.812814
0.792689
0.766243
0.731989
0.691076
0.64367
0.590003
0.530431
0.465484
0.395854
0.322386
0.24606
0.165692
0.0869385
0.00874957
-0.0674832
-0.140338
-0.208391
-0.270239
-0.324589
-0.37023
-0.406068
-0.431253
-0.445146
-0.446712
-0.436251
-0.414087
-0.380749
-0.337047
-0.284164
-0.223609
-0.157196
-0.0869635
-0.0152173
0.05551
0.122809
0.184187
0.237248
0.279822
0.310055
0.326471
0.328062
0.313873
0.284454
0.240662
0.183903
0.116219
0.0402507
-0.0409121
-0.123687
-0.20419
-0.27872
-0.343556
-0.395294
-0.43106
-0.448717
-0.446921
-0.424915
-0.383902
-0.325652
-0.253029
-0.169816
-0.0805303
0.0100564
0.0957033
0.171678
0.233228
0.276416
0.298383
0.297606
0.274061
0.22961
0.167395
0.0920039
0.0090712
-0.0755988
-0.154302
-0.221624
-0.272355
-0.302769
-0.310837
-0.296757
-0.262777
-0.21305
-0.152836
-0.0887281
-0.0289875
0.0205521
0.0542929
0.0683997
0.0609746
0.0336725
-0.0100446
-0.0652523
-0.12495
-0.181024
-0.227257
-0.257984
-0.269731
-0.261729
-0.236247
-0.197891
-0.153016
-0.10869
-0.0722574
-0.0485797
-0.0405158
-0.0479911
-0.06788
-0.0952005
-0.123429
-0.146109
-0.157871
-0.156029
-0.140353
-0.113505
-0.0804573
-0.0472314
-0.0200495
-0.00338718
0.00055388
-0.00826372
-0.0257996
-0.0473194
-0.0669697
-0.0788092
2.85522
2.85549
2.85601
2.85671
2.85748
2.85816
2.85859
2.85849
2.85754
2.85541
2.85176
2.84622
2.83837
2.82783
2.81419
2.79703
2.77599
2.75071
2.72087
2.68619
2.64645
2.60149
2.55121
2.49558
2.43465
2.36854
2.29746
2.22169
2.1416
2.05762
1.97025
1.88008
1.7877
1.69378
1.599
1.50406
1.40968
1.31656
1.22537
1.13677
1.05131
0.969459
0.891293
0.820188
0.755538
0.697337
0.645674
0.600669
0.562422
0.531022
0.506532
0.488958
0.478235
0.474239
0.476765
0.48554
0.500211
0.52032
0.545331
0.574632
0.607536
0.643282
0.681054
0.71998
0.759164
0.796685
0.833433
0.867477
0.897846
0.92358
0.943764
0.957527
0.964063
0.962682
0.952735
0.933694
0.905145
0.86766
0.82068
0.764345
0.698971
0.625077
0.543465
0.455116
0.361185
0.262977
0.161916
0.0600202
-0.0410825
-0.139561
-0.233502
-0.320966
-0.400091
-0.469087
-0.526277
-0.570204
-0.599747
-0.613971
-0.611988
-0.594005
-0.560318
-0.51158
-0.448923
-0.374025
-0.288957
-0.196218
-0.0985905
0.000692355
0.0982974
0.190903
0.275136
0.34773
0.405725
0.446595
0.468427
0.469947
0.450322
0.410059
0.350213
0.272725
0.180482
0.0771815
-0.0329526
-0.145064
-0.253845
-0.354302
-0.441371
-0.510511
-0.557899
-0.580582
-0.576919
-0.546668
-0.490929
-0.412095
-0.314226
-0.202592
-0.0834712
0.0383265
0.151439
0.251253
0.331278
0.386227
0.412459
0.408174
0.37406
0.312143
0.226945
0.124958
0.0138975
-0.0993471
-0.202481
-0.289559
-0.353522
-0.389491
-0.395085
-0.37112
-0.320601
-0.24952
-0.165214
-0.0770225
0.00437116
0.0709396
0.115255
0.132438
0.120882
0.0824546
0.0222471
-0.0527072
-0.132891
-0.207032
-0.26693
-0.305105
-0.317212
-0.303796
-0.267094
-0.213824
-0.152735
-0.0929922
-0.0456084
-0.016501
-0.00906961
-0.0227526
-0.0530255
-0.0927569
-0.133011
-0.165042
-0.181777
-0.179784
-0.159168
-0.123853
-0.0807273
-0.0379347
-0.00365684
0.0161543
0.0188567
0.00535227
-0.0199591
-0.0502238
-0.077632
-0.0942653
3.03241
3.03482
3.03962
3.04674
3.05604
3.06727
3.08013
3.0943
3.10879
3.12298
3.13614
3.14746
3.15605
3.16099
3.16133
3.15616
3.14459
3.1258
3.09906
3.06375
3.01938
2.96562
2.90232
2.82949
2.74731
2.65618
2.55664
2.4494
2.33531
2.21535
2.09056
1.96209
1.83108
1.69872
1.56615
1.43449
1.30487
1.17839
1.05612
0.939077
0.82832
0.724922
0.630311
0.542266
0.462579
0.39213
0.33149
0.281036
0.241017
0.211553
0.192636
0.184164
0.185943
0.197638
0.218783
0.248801
0.287014
0.33266
0.384886
0.442747
0.505222
0.571193
0.639486
0.708845
0.777945
0.845466
0.910111
0.970494
1.02526
1.07308
1.11268
1.14287
1.16253
1.1707
1.1665
1.1493
1.1187
1.07478
1.01734
0.946619
0.863097
0.767549
0.661096
0.545126
0.421263
0.291363
0.15753
0.0222318
-0.112132
-0.242956
-0.367562
-0.483307
-0.587554
-0.677788
-0.751721
-0.807389
-0.843181
-0.857798
-0.850537
-0.821368
-0.770601
-0.699175
-0.608757
-0.501685
-0.380882
-0.249845
-0.112474
0.0267823
0.163353
0.292574
0.409757
0.510484
0.590678
0.646825
0.676262
0.677146
0.649077
0.592428
0.508686
0.400697
0.27253
0.12936
-0.0229844
-0.177655
-0.327395
-0.46526
-0.584405
-0.678486
-0.742296
-0.772
-0.765238
-0.722344
-0.644525
-0.535333
-0.400511
-0.247438
-0.0846173
0.0804173
0.23348
0.367538
0.473858
0.545476
0.577475
0.567554
0.517141
0.429143
0.310119
0.169193
0.0166998
-0.135627
-0.274405
-0.389689
-0.472257
-0.515723
-0.516873
-0.477593
-0.402393
-0.299916
-0.180549
-0.0575359
0.0550322
0.145864
0.204905
0.225873
0.20743
0.152086
0.0674227
-0.0363875
-0.14625
-0.246412
-0.325809
-0.374449
-0.386849
-0.364373
-0.310602
-0.235422
-0.151125
-0.067964
-0.00552544
0.0307616
0.0367267
0.0135692
-0.0322044
-0.090113
-0.14774
-0.193255
-0.216765
-0.214131
-0.186022
-0.138293
-0.0805786
-0.0240801
0.0202795
0.0443203
0.0450817
0.0244004
-0.0120332
-0.0547068
-0.0932215
-0.116975
3.01553
3.02379
3.04033
3.06495
3.09716
3.13617
3.18088
3.22974
3.28152
3.33501
3.3881
3.43894
3.48585
3.52709
3.56083
3.58527
3.5987
3.59956
3.58643
3.55822
3.51405
3.45333
3.3758
3.28153
3.17095
3.0448
2.90414
2.75042
2.58538
2.411
2.22941
2.04282
1.8534
1.6633
1.47456
1.28911
1.10871
0.934944
0.769235
0.612818
0.46662
0.331513
0.207135
0.100485
0.00907541
-0.0677787
-0.130231
-0.178288
-0.211902
-0.231075
-0.235908
-0.226648
-0.20367
-0.167487
-0.118751
-0.0582618
0.0130139
0.0939837
0.183441
0.280064
0.382418
0.488934
0.597985
0.707721
0.816576
0.922621
1.02402
1.11894
1.20551
1.28195
1.34661
1.39792
1.43439
1.45471
1.45788
1.44265
1.40788
1.35458
1.28257
1.19217
1.08406
0.959406
0.819736
0.666937
0.503263
0.3313
0.153944
-0.0255278
-0.203739
-0.377152
-0.542135
-0.695026
-0.832178
-0.950218
-1.04607
-1.11704
-1.16085
-1.17579
-1.16135
-1.11712
-1.04355
-0.942026
-0.8149
-0.665389
-0.497532
-0.316141
-0.126506
0.0651115
0.252586
0.429514
0.589601
0.726656
0.83536
0.911081
0.950003
0.949425
0.909744
0.830966
0.715302
0.566834
0.39121
0.195453
-0.0122537
-0.222617
-0.425812
-0.612399
-0.772958
-0.899195
-0.984006
-1.02225
-1.01086
-0.950663
-0.84324
-0.693801
-0.510276
-0.302728
-0.0824949
0.137791
0.34282
0.521179
0.661276
0.753814
0.79245
0.774314
0.701507
0.578615
0.414885
0.222849
0.0164376
-0.187226
-0.371748
-0.523022
-0.628847
-0.680921
-0.675289
-0.614846
-0.506593
-0.362545
-0.197046
-0.0286161
0.12426
0.246169
0.323701
0.348606
0.320026
0.241644
0.124365
-0.0176436
-0.166182
-0.300085
-0.404431
-0.466059
-0.47814
-0.442554
-0.365551
-0.261346
-0.148708
-0.0308679
0.0485397
0.0934037
0.0967015
0.0604449
-0.00604368
-0.0879564
-0.168076
-0.231302
-0.26296
-0.258921
-0.220575
-0.156376
-0.0796321
-0.00551033
0.0518542
0.0808988
0.0787715
0.0485886
-0.00232987
-0.0607891
-0.11369
-0.147211
2.86349
2.88134
2.91722
2.9709
3.04167
3.1284
3.22941
3.34278
3.46605
3.5956
3.72718
3.85888
3.98617
4.10453
4.20956
4.29693
4.36272
4.40413
4.41878
4.4046
4.36004
4.28423
4.17703
4.0391
3.87196
3.67805
3.46043
3.22288
2.96948
2.70446
2.4319
2.15558
1.87904
1.60566
1.33851
1.08019
0.832929
0.598725
0.379291
0.176242
-0.00872889
-0.173997
-0.316348
-0.442945
-0.550488
-0.637849
-0.704615
-0.750678
-0.77618
-0.781455
-0.767006
-0.733458
-0.681621
-0.61244
-0.527002
-0.426518
-0.312372
-0.186065
-0.0492337
0.0963163
0.248656
0.405712
0.565313
0.725151
0.882882
1.03611
1.18241
1.3193
1.44441
1.55541
1.65006
1.72633
1.78245
1.81706
1.82901
1.81843
1.77477
1.70795
1.61674
1.50117
1.36203
1.2008
1.0195
0.820677
0.607357
0.382984
0.151442
-0.082859
-0.315447
-0.541641
-0.756551
-0.955256
-1.133
-1.28532
-1.40811
-1.49776
-1.55128
-1.56635
-1.5426
-1.47932
-1.37716
-1.23811
-1.06535
-0.863231
-0.637093
-0.393402
-0.139371
0.116839
0.366986
0.602619
0.81518
0.996739
1.13993
1.23875
1.28851
1.28612
1.23125
1.12435
0.968648
0.769727
0.535075
0.274219
-0.00184939
-0.280865
-0.54975
-0.79595
-1.00715
-1.17216
-1.28196
-1.32988
-1.31235
-1.22985
-1.08522
-0.885663
-0.641751
-0.367022
-0.0765159
0.21197
0.48024
0.712232
0.892764
1.00989
1.05566
1.02631
0.924895
0.758292
0.539087
0.283903
0.0112671
-0.255278
-0.495237
-0.689652
-0.822843
-0.884405
-0.868997
-0.781308
-0.631454
-0.435617
-0.213171
0.0110169
0.213026
0.372212
0.471369
0.500256
0.457775
0.349943
0.191706
0.00239241
-0.19363
-0.368669
-0.502993
-0.579649
-0.590311
-0.537313
-0.430584
-0.289022
-0.135373
0.0100371
0.115666
0.171319
0.170614
0.117393
0.024811
-0.0870461
-0.195484
-0.278477
-0.320217
-0.313865
-0.262376
-0.177603
-0.0774953
0.0178179
0.0911133
0.12561
0.119394
0.0763728
0.00877634
-0.0685275
-0.140194
-0.183868
2.17163
2.21347
2.29761
2.42358
2.58958
2.7924
3.0275
3.28953
3.56981
3.86066
4.1568
4.44491
4.71705
4.96591
5.18493
5.36856
5.51192
5.61021
5.65961
5.6574
5.60176
5.49202
5.3283
5.11212
4.84634
4.53585
4.1876
3.81117
3.41547
3.00886
2.59934
2.19374
1.79754
1.41501
1.04945
0.703502
0.379298
0.0783103
-0.198525
-0.450877
-0.679387
-0.885685
-1.04634
-1.17935
-1.2869
-1.36902
-1.42558
-1.45653
-1.46205
-1.44257
-1.39872
-1.33128
-1.24125
-1.1298
-0.998346
-0.848453
-0.681896
-0.500626
-0.306786
-0.102676
0.109244
0.326286
0.545675
0.764479
0.979681
1.18821
1.38692
1.57273
1.74249
1.89319
2.02205
2.12641
2.20373
2.25165
2.26799
2.25024
2.20664
2.12815
2.01576
1.87069
1.69459
1.48964
1.2586
1.00484
0.732371
0.445666
0.149781
-0.149573
-0.446612
-0.735222
-1.00909
-1.26188
-1.48747
-1.68011
-1.83449
-1.94595
-2.01066
-2.02559
-1.99038
-1.90408
-1.76774
-1.58396
-1.35692
-1.09231
-0.79719
-0.479899
-0.149544
0.182832
0.506811
0.811276
1.08538
1.31883
1.50234
1.62785
1.68954
1.6841
1.61034
1.4694
1.26575
1.0066
0.701889
0.364131
0.00700137
-0.352842
-0.698861
-1.01482
-1.28498
-1.49516
-1.63368
-1.69219
-1.66616
-1.55644
-1.36721
-1.108
-0.7926
-0.438541
-0.0655097
0.303223
0.645189
0.939268
1.16623
1.31101
1.36363
1.32018
1.18408
0.965258
0.680185
0.350347
-0.000282236
-0.340493
-0.644745
-0.88865
-1.05263
-1.12505
-1.09551
-0.974518
-0.774771
-0.517398
-0.227516
0.0620242
0.321251
0.523485
0.646866
0.679088
0.6189
0.475275
0.268012
0.0225566
-0.229178
-0.452177
-0.620943
-0.714142
-0.721901
-0.647262
-0.504597
-0.318672
-0.118782
0.0632939
0.196982
0.264236
0.257763
0.18362
0.0596367
-0.087718
-0.229251
-0.335585
-0.388183
-0.378337
-0.31076
-0.201417
-0.0738011
0.045605
0.138012
0.177837
0.166444
0.109228
0.0211756
-0.0773279
-0.1737
-0.225666
0.770021
0.841209
0.985614
1.20459
1.49772
1.86374
2.29343
2.77984
3.29252
3.82014
4.33951
4.84295
5.31936
5.75869
6.15174
6.48993
6.76536
6.97094
7.10043
7.14864
7.11151
6.98648
6.77101
6.46973
6.08356
5.62003
5.08665
4.50894
3.90478
3.3055
2.71564
2.1453
1.5999
1.08526
0.605258
0.162193
-0.242682
-0.608858
-0.936046
-1.22384
-1.47097
-1.67508
-1.86233
-2.01338
-2.12771
-2.20663
-2.25141
-2.26319
-2.24302
-2.19195
-2.11113
-2.0018
-1.86534
-1.70332
-1.51749
-1.30981
-1.08244
-0.837815
-0.578573
-0.307555
-0.0278174
0.25733
0.544445
0.829857
1.10983
1.38055
1.63815
1.87876
2.09852
2.29367
2.46073
2.59638
2.69756
2.76168
2.78659
2.77066
2.71508
2.61743
2.47779
2.2973
2.07785
1.82211
1.53363
1.21666
0.87625
0.51808
0.148544
-0.225196
-0.595836
-0.955656
-1.29667
-1.61101
-1.89097
-2.12932
-2.31938
-2.45529
-2.53234
-2.54694
-2.49822
-2.38525
-2.20945
-1.97429
-1.68506
-1.34893
-0.974859
-0.573447
-0.156138
0.262903
0.670676
1.05329
1.39713
1.68906
1.91771
2.07316
2.14798
2.13775
2.04149
1.86093
1.60186
1.27353
0.888654
0.462905
0.0134708
-0.438253
-0.871742
-1.26672
-1.60324
-1.8638
-2.03392
-2.10331
-2.06696
-1.92535
-1.68458
-1.35687
-0.959823
-0.51538
-0.0488124
0.410859
0.835888
1.19962
1.47827
1.65319
1.71231
1.65132
1.47477
1.19579
0.835203
0.420175
-0.0189984
-0.442511
-0.818897
-1.11763
-1.31436
-1.3939
-1.35033
-1.19108
-0.933837
-0.605901
-0.23915
0.124463
0.448076
0.698134
0.847918
0.882507
0.800797
0.615318
0.351594
0.0419048
-0.272953
-0.549944
-0.756895
-0.867677
-0.870806
-0.770498
-0.58613
-0.349443
-0.0975204
0.127583
0.291828
0.371073
0.356865
0.25795
0.0976011
-0.0903334
-0.269324
-0.401946
-0.465988
-0.451327
-0.364787
-0.227188
-0.0682018
0.0802342
0.189348
0.236526
0.218971
0.145296
0.0341146
-0.0905646
-0.209261
-0.27204
-1.54178
-1.40972
-1.14145
-0.733809
-0.186591
0.499721
1.31117
2.25762
3.23716
4.236
5.21532
6.15364
7.02292
7.80288
8.48029
9.04559
9.49062
9.80822
9.99243
10.0383
9.94204
9.70219
9.31705
8.7872
8.11523
7.31136
6.38326
5.39292
4.39111
3.45961
2.59207
1.79864
1.07964
0.4317
-0.150033
-0.670243
-1.13322
-1.543
-1.90282
-2.21601
-2.48744
-2.72349
-2.88663
-3.01436
-3.10615
-3.16087
-3.17838
-3.15895
-3.10325
-3.01215
-2.88674
-2.72833
-2.5385
-2.31903
-2.07194
-1.79953
-1.50444
-1.18952
-0.857937
-0.513098
-0.158691
0.201309
0.562729
0.921122
1.27197
1.61063
1.93243
2.23268
2.50672
2.75002
2.95838
3.12776
3.25449
3.33551
3.36837
3.35121
3.28361
3.16429
2.99361
2.773
2.50474
2.19208
1.8394
1.45196
1.03598
0.598433
0.147166
-0.308993
-0.761099
-1.19965
-1.6149
-1.9972
-2.33707
-2.62567
-2.85482
-3.0174
-3.10771
-3.12167
-3.05759
-2.91465
-2.69479
-2.40235
-2.04392
-1.62841
-1.16683
-0.672274
-0.158906
0.35597
0.856335
1.3251
1.74543
2.10152
2.37921
2.56683
2.65535
2.63907
2.51708
2.29193
1.9709
1.56555
1.09157
0.568101
0.0169561
-0.536098
-1.06599
-1.54763
-1.95688
-2.27223
-2.4763
-2.55694
-2.50785
-2.33006
-2.03161
-1.62764
-1.13999
-0.596055
-0.0258293
0.533681
1.04954
1.4891
1.82353
2.03054
2.09631
2.01391
1.79156
1.44537
1.00095
0.491812
-0.0451291
-0.560192
-1.01513
-1.37307
-1.60448
-1.68943
-1.62996
-1.42721
-1.10544
-0.699066
-0.247414
0.197696
0.591685
0.893498
1.07101
1.10686
1.00014
0.767369
0.44053
0.059677
-0.324622
-0.660624
-0.908737
-1.03773
-1.0344
-0.904696
-0.673494
-0.380416
-0.0712059
0.201688
0.398723
0.490086
0.466155
0.338948
0.137805
-0.095102
-0.315373
-0.476516
-0.552322
-0.531473
-0.423358
-0.254304
-0.0609096
0.118703
0.246847
0.300832
0.275938
0.183897
0.0475784
-0.108346
-0.246392
-0.319754
-5.48248
-5.29863
-4.92088
-4.33307
-3.5206
-2.43012
-1.12639
0.613505
2.6145
4.72839
6.24457
7.61961
8.8047
9.83294
10.7247
11.4808
12.0859
12.5258
12.7929
12.882
12.7798
12.5004
12.0375
11.3901
10.5215
9.41189
7.77133
5.89785
4.28734
3.12438
2.01171
1.04711
0.199505
-0.539737
-1.18487
-1.74725
-2.23628
-2.65928
-3.02169
-3.32794
-3.57841
-3.76942
-3.94592
-4.0705
-4.14675
-4.1777
-4.16503
-4.11002
-4.01378
-3.87744
-3.70227
-3.48971
-3.24149
-2.95958
-2.64627
-2.30418
-1.93634
-1.54607
-1.13706
-0.713318
-0.279186
0.160712
0.601321
1.03742
1.46366
1.87455
2.26453
2.62804
2.95954
3.25368
3.50543
3.7101
3.86338
3.96168
4.00196
3.98205
3.90083
3.75754
3.55275
3.2882
2.96665
2.59206
2.16967
1.70585
1.20807
0.684711
0.145209
-0.399875
-0.939821
-1.4632
-1.95837
-2.41372
-2.81792
-3.16038
-3.43135
-3.62237
-3.72666
-3.7395
-3.65837
-3.48268
-3.21498
-2.8604
-2.42698
-1.92555
-1.36941
-0.774297
-0.157545
0.460648
1.06058
1.62177
2.12411
2.54868
2.87863
3.09995
3.20205
3.17865
3.02823
2.75431
2.36587
1.877
1.30648
0.677691
0.0170728
-0.645057
-1.27834
-1.85271
-2.33946
-2.71303
-2.95277
-3.0443
-2.98059
-2.76299
-2.40163
-1.91505
-1.32965
-0.678134
0.00280733
0.669483
1.28241
1.80258
2.19579
2.43584
2.50797
2.40074
2.12833
1.7092
1.1745
0.564283
-0.0792939
-0.691772
-1.23009
-1.65058
-1.91865
-2.01256
-1.93007
-1.6786
-1.28634
-0.795028
-0.251743
0.28059
0.749574
1.10602
1.31212
1.34794
1.21312
0.928391
0.532937
0.0753712
-0.383426
-0.782329
-1.07379
-1.22122
-1.20968
-1.04732
-0.764886
-0.410747
-0.0401086
0.284185
0.515704
0.619079
0.584023
0.424999
0.179368
-0.101983
-0.366832
-0.55795
-0.645555
-0.617227
-0.485277
-0.282151
-0.0520551
0.160713
0.309129
0.36955
0.336219
0.224285
0.0616657
-0.12839
-0.286841
-0.373563
-10.9763
-10.7794
-10.3683
-9.71176
-8.75108
-7.40087
-5.50703
-2.99067
0.520097
4.86873
5.98046
8.87757
10.9882
12.7661
14.2033
15.3253
16.1624
16.7396
17.0678
17.1459
16.9657
16.5112
15.7399
14.6182
13.1249
11.4391
9.02547
5.97913
3.89239
2.24775
0.763322
-0.357015
-1.23899
-1.96595
-2.57941
-3.10563
-3.55914
-3.94999
-4.28475
-4.56751
-4.80196
-4.9971
-5.11925
-5.20297
-5.24353
-5.2389
-5.18859
-5.09274
-4.95188
-4.76682
-4.53866
-4.26885
-3.95914
-3.61167
-3.22898
-2.81396
-2.37006
-1.90107
-1.41121
-0.905116
-0.387785
0.135333
0.658499
1.17556
1.6803
2.16632
2.62716
3.05634
3.4474
3.7941
4.09065
4.33156
4.51182
4.62724
4.67433
4.65059
4.55442
4.38527
4.14394
3.8325
3.45426
3.01393
2.51771
1.97308
1.38883
0.774861
0.142319
-0.496533
-1.129
-1.74166
-2.32088
-2.85304
-3.32481
-3.72379
-4.03855
-4.25922
-4.37788
-4.38901
-4.28951
-4.07891
-3.76035
-3.33998
-2.82725
-2.235
-1.57901
-0.877895
-0.151669
0.575078
1.2796
1.93776
2.52604
3.02219
3.40659
3.66264
3.77835
3.74654
3.56537
3.23938
2.77933
2.20187
1.52945
0.789825
0.0132782
-0.763266
-1.50494
-2.17642
-2.74399
-3.17799
-3.45443
-3.55653
-3.4764
-3.21602
-2.78777
-2.21375
-1.52503
-0.760769
0.0372002
0.815871
1.53014
2.13419
2.58812
2.86108
2.93233
2.80424
2.47881
1.98234
1.35235
0.635648
-0.120188
-0.834718
-1.45961
-1.94475
-2.25029
-2.3517
-2.24438
-1.94043
-1.47301
-0.891649
-0.252483
0.371547
0.918767
1.3317
1.56672
1.60121
1.43571
1.09537
0.627066
0.088604
-0.448294
-0.912787
-1.24896
-1.41469
-1.39339
-1.19569
-0.858612
-0.439875
-0.00468803
0.373441
0.6405
0.755525
0.707355
0.514362
0.22143
-0.110814
-0.422851
-0.644694
-0.743899
-0.706937
-0.549333
-0.310145
-0.0417733
0.20563
0.37485
0.441364
0.398711
0.265595
0.0767517
-0.150748
-0.329679
-0.429593
-17.2946
-17.1865
-16.9744
-16.6711
-16.2768
-15.9098
-15.4797
-15.1178
-0.682747
-1.10031
-1.62284
-2.02742
-2.58732
-3.12886
-3.64857
-4.12817
-4.56333
-4.95069
-5.29037
-5.58152
-5.82377
-6.01629
-6.15289
-6.27109
-6.33439
-6.3461
-6.30764
-6.21943
-6.08178
-5.89513
-5.66013
-5.37779
-5.04949
-4.67703
-4.26267
-3.80916
-3.3197
-2.79813
-2.24873
-1.67627
-1.08602
-0.483677
0.124526
0.732034
1.3318
1.91668
2.47938
3.01247
3.50856
3.96023
4.36034
4.70228
4.97977
5.18708
5.31939
5.37271
5.34413
5.23188
5.03544
4.7558
4.39541
3.95815
3.44953
2.87671
2.24838
1.57467
0.867016
0.138219
-0.597447
-1.3254
-2.03018
-2.69606
-3.30735
-3.84871
-4.30582
-4.66555
-4.91653
-5.04967
-5.05864
-4.93977
-4.69278
-4.3213
-3.83261
-3.23765
-2.55136
-1.79204
-0.981308
-0.141839
0.696833
1.50914
2.26719
2.9438
3.51336
3.95333
4.24471
4.37373
4.33243
4.11879
3.73832
3.20366
2.53428
1.75637
0.902178
0.00602086
-0.88844
-1.74163
-2.51278
-3.16315
-3.65874
-3.97226
-4.08461
-3.98649
-3.68113
-3.18313
-2.51829
-1.72291
-0.841741
0.0758892
0.969989
1.78816
2.4779
2.99356
3.30012
3.37591
3.21862
2.83688
2.25996
1.53177
0.70646
-0.168552
-0.986318
-1.69925
-2.25006
-2.59311
-2.70069
-2.56704
-2.20798
-1.66231
-0.987763
-0.249301
0.468791
1.09605
1.56633
1.8301
1.86209
1.6639
1.26535
0.721261
0.0992983
-0.517946
-1.04954
-1.431
-1.6146
-1.5822
-1.34718
-0.953075
-0.467343
0.0342961
0.467693
0.77073
0.89689
0.834292
0.605414
0.263222
-0.121203
-0.482563
-0.735095
-0.84553
-0.798969
-0.614359
-0.337774
-0.0304362
0.252871
0.442715
0.514959
0.46217
0.306937
0.0925263
-0.17499
-0.373748
-0.486773
-23.6931
-23.6483
-23.5589
-23.4276
-23.255
-23.0984
-22.888
-22.7853
-3.51111
-3.67065
-4.02835
-4.2426
-4.57944
-4.94387
-5.31739
-5.68029
-6.02349
-6.3393
-6.62261
-6.86887
-7.07491
-7.23796
-7.35635
-7.43247
-7.46056
-7.43827
-7.36431
-7.23791
-7.05868
-6.8266
-6.54204
-6.20582
-5.81927
-5.3842
-4.903
-4.37862
-3.8146
-3.21516
-2.58507
-1.92968
-1.25489
-0.567115
0.126599
0.818863
1.50171
2.16711
2.80678
3.41238
3.97555
4.48792
4.94147
5.32872
5.64259
5.87664
6.02543
6.08443
6.05028
5.9211
5.69642
5.3774
4.96687
4.46934
3.89106
3.24025
2.52679
1.76217
0.959368
0.132904
-0.700952
-1.52574
-2.32389
-3.07758
-3.76901
-4.38078
-4.89667
-5.30177
-5.58324
-5.73081
-5.73722
-5.59836
-5.31415
-4.88861
-4.33019
-3.6515
-2.86951
-2.00514
-1.08303
-0.128781
0.823469
1.74501
2.60413
3.37
4.01363
4.5094
4.83612
4.97805
4.92635
4.67907
4.24269
3.63181
2.86879
1.98361
1.01275
-0.00431086
-1.01825
-1.98423
-2.85596
-3.5897
-4.14706
-4.49752
-4.61972
-4.50231
-4.15048
-3.58117
-2.82388
-1.92012
-0.92092
0.11877
1.12904
2.0519
2.82777
3.40515
3.74491
3.82345
3.63654
3.1967
2.53747
1.70972
0.774991
-0.222208
-1.1435
-1.94459
-2.5611
-2.94116
-3.05382
-2.89269
-2.4769
-1.85121
-1.08184
-0.242692
0.570385
1.27818
1.80577
2.09771
2.12616
1.89393
1.43554
0.814081
0.10752
-0.591001
-1.1901
-1.61671
-1.81753
-1.77298
-1.49934
-1.04685
-0.492869
0.0760035
0.565149
0.904043
1.04071
0.962656
0.696661
0.304068
-0.132697
-0.545036
-0.827489
-0.94868
-0.891785
-0.679303
-0.364601
-0.0184665
0.301804
0.51149
0.589106
0.525642
0.347507
0.10484
-0.196891
-0.417953
-0.544198
-29.5158
-29.4894
-29.4383
-29.3669
-29.2734
-29.1942
-29.0802
-29.0399
-5.14136
-5.38519
-5.68057
-5.89404
-6.17524
-6.47016
-6.77561
-7.07767
-7.36852
-7.63918
-7.88384
-8.09681
-8.27365
-8.41011
-8.50306
-8.55148
-8.55057
-8.49752
-8.39039
-8.22776
-8.00871
-7.73285
-7.40026
-7.01161
-6.56815
-6.07175
-5.52489
-4.93077
-4.29323
-3.61691
-2.90707
-2.16964
-1.41119
-0.638821
0.139585
0.915793
1.68093
2.42602
3.14188
3.8192
4.44867
5.02101
5.52727
5.95913
6.30873
6.56892
6.73366
6.79782
6.75755
6.61091
6.35751
5.99869
5.5377
4.97962
4.3315
3.60256
2.80387
1.94833
1.05048
0.126461
-0.80546
-1.7269
-2.61824
-3.45953
-4.23087
-4.91282
-5.48723
-5.93746
-6.24914
-6.41088
-6.41443
-6.25534
-5.93363
-5.45376
-4.82534
-4.06276
-3.18489
-2.21537
-1.18191
-0.11302
0.95266
1.9832
2.94307
3.79778
4.51497
5.06604
5.42754
5.58189
5.51907
5.2376
4.74484
4.05735
3.20044
2.20781
1.12016
-0.0172858
-1.15044
-2.22876
-3.20049
-4.0169
-4.6353
-5.02203
-5.15381
-5.01602
-4.61706
-3.97611
-3.12619
-2.11376
-0.996903
0.164264
1.29021
2.31705
3.17821
3.81648
4.1885
4.26862
4.05162
3.55306
2.81094
1.88381
0.843715
-0.28314
-1.30328
-2.19144
-2.87282
-3.289
-3.40576
-3.21643
-2.74329
-2.03707
-1.17249
-0.233465
0.674396
1.46207
2.04612
2.36532
2.38937
2.12236
1.60361
0.904402
0.113311
-0.666077
-1.3321
-1.8031
-2.02031
-1.96284
-1.64998
-1.13871
-0.516338
0.119594
0.664086
1.03822
1.18469
1.09048
0.78677
0.3434
-0.144764
-0.609389
-0.920288
-1.05172
-0.983995
-0.743251
-0.390233
-0.00614296
0.351621
0.580035
0.662697
0.588258
0.386788
0.113457
-0.215971
-0.461591
-0.601056
-34.7659
-34.7513
-34.7224
-34.6841
-34.6338
-34.5954
-34.5376
-34.5249
-7.19421
-7.14145
-7.27327
-7.41192
-7.6155
-7.8453
-8.09486
-8.35053
-8.60249
-8.84078
-9.058
-9.24715
-9.40243
-9.51863
-9.59144
-9.61695
-9.59119
-9.51095
-9.37375
-9.17768
-8.92139
-8.60414
-8.22581
-7.78694
-7.28871
-6.73304
-6.12257
-5.46071
-4.75162
-4.00036
-3.21271
-2.39516
-1.55493
-0.699852
0.161378
1.01968
1.86526
2.68827
3.47857
4.22596
4.92016
5.55099
6.10862
6.58389
6.96818
7.25366
7.43371
7.50265
7.45578
7.29144
7.0093
6.6109
6.09988
5.48187
4.76471
3.95861
3.07583
2.13063
1.13913
0.119004
-0.909487
-1.92607
-2.90913
-3.83661
-4.68659
-5.43755
-6.06946
-6.56396
-6.90522
-7.08069
-7.08122
-6.90198
-6.54299
-6.00935
-5.31171
-4.46611
-3.49356
-2.42022
-1.27695
-0.0951795
1.08224
2.22009
3.27904
4.22103
5.0103
5.61547
6.01074
6.17697
6.10257
5.78685
5.23808
4.47472
3.52503
2.42611
1.2233
-0.0324111
-1.2829
-2.47165
-3.5415
-4.4388
-5.11668
-5.53856
-5.67994
-5.52071
-5.0748
-4.36297
-3.42133
-2.30189
-1.06855
0.211088
1.45094
2.57975
3.52433
4.22186
4.62491
4.70574
4.45847
3.90139
3.07697
2.05154
0.912143
-0.34986
-1.46254
-2.43604
-3.18082
-3.63184
-3.75187
-3.53403
-3.0038
-2.21776
-1.25895
-0.222044
0.779053
1.64492
2.28393
2.62922
2.64819
2.34625
1.7675
0.991256
0.116916
-0.741849
-1.47337
-1.9875
-2.22017
-2.14928
-1.79721
-1.22765
-0.537559
0.164055
0.762926
1.17128
1.32681
1.21606
0.874629
0.380745
-0.156836
-0.674831
-1.01204
-1.15324
-1.07442
-0.805439
-0.414389
0.00700292
0.400864
0.647347
0.734785
0.64929
0.424514
0.120522
-0.234114
-0.504201
-0.656648
-39.4631
-39.4547
-39.4375
-39.416
-39.3866
-39.3664
-39.3335
-39.3293
-8.41203
-8.41516
-8.53644
-8.65651
-8.83286
-9.03522
-9.25761
-9.48808
-9.71795
-9.93724
-10.1378
-10.312
-10.4529
-10.5547
-10.6122
-10.6205
-10.5742
-10.4705
-10.3066
-10.0802
-9.78954
-9.43368
-9.01231
-8.52588
-7.97554
-7.36326
-6.69181
-5.96487
-5.18692
-4.36345
-3.5007
-2.60575
-1.68647
-0.751406
0.189927
1.12761
2.05099
2.94931
3.81157
4.62663
5.38334
6.07061
6.67776
7.19484
7.61245
7.92214
8.11682
8.19038
8.13642
7.95438
7.64391
7.20669
6.64671
5.97014
5.18557
4.30425
3.33953
2.30705
1.22434
0.110685
-1.01171
-2.12083
-3.19307
-4.20436
-5.13076
-5.94879
-6.63655
-7.174
-7.54388
-7.73249
-7.72996
-7.53087
-7.13533
-6.54915
-5.78389
-4.85718
-3.7923
-2.61769
-1.36741
-0.0758987
1.21031
2.45253
3.60778
4.63447
5.49361
6.15109
6.57879
6.75638
6.6701
6.32053
5.71685
4.87932
3.83896
2.63647
1.32169
-0.0495104
-1.41383
-2.70979
-3.87478
-4.85036
-5.58549
-6.04095
-6.19243
-6.01057
-5.51863
-4.73747
-3.70633
-2.48276
-1.13591
0.258764
1.60908
2.83668
3.86195
4.61654
5.04911
5.13003
4.85269
4.23805
3.33286
2.21061
0.975639
-0.416771
-1.6183
-2.67521
-3.48133
-3.96566
-4.08823
-3.84202
-3.25572
-2.3916
-1.34088
-0.20862
0.882793
1.82434
2.51624
2.88627
2.89965
2.56315
1.92553
1.0739
0.118645
-0.817125
-1.61206
-2.16765
-2.41474
-2.33021
-1.93949
-1.31289
-0.556689
0.20876
0.860296
1.30153
1.46536
1.33798
0.95935
0.415727
-0.173925
-0.735169
-1.10149
-1.25204
-1.16228
-0.865261
-0.436915
0.0235515
0.4461
0.712617
0.804589
0.708151
0.460501
0.126655
-0.251704
-0.545408
-0.7104
-43.6446
-43.6394
-43.628
-43.6148
-43.5954
-43.5837
-43.5628
-43.5611
-9.47032
-9.48439
-9.59997
-9.71507
-9.87976
-10.0702
-10.2806
-10.4999
-10.7201
-10.9309
-11.1238
-11.2904
-11.4233
-11.5161
-11.5631
-11.5592
-11.4954
-11.3715
-11.1842
-10.9306
-10.6085
-10.217
-9.75546
-9.22441
-8.62493
-7.95906
-7.22971
-6.44083
-5.59722
-4.70481
-3.77028
-2.80129
-1.80634
-0.794652
0.223393
1.2371
2.23496
3.20536
4.13645
5.01625
5.83273
6.57393
7.22837
7.78532
8.23463
8.56721
8.7757
8.85413
8.79239
8.59297
8.25497
7.78013
7.17279
6.43966
5.59001
4.63615
3.59248
2.47593
1.30541
0.101711
-1.11103
-2.30917
-3.46723
-4.5591
-5.55903
-6.44155
-7.18299
-7.76167
-8.15897
-8.36003
-8.35448
-8.13605
-7.7051
-7.06813
-6.23753
-5.23257
-4.07847
-2.80616
-1.4527
-0.0557418
1.33527
2.67795
3.92579
5.0338
5.95999
6.6675
7.12603
7.31453
7.21613
6.83363
6.17672
5.26743
4.13945
2.83721
1.41464
-0.0679999
-1.54162
-2.94058
-4.1969
-5.24748
-6.03716
-6.52411
-6.68681
-6.48084
-5.94449
-5.09636
-3.97887
-2.65486
-1.19921
0.306804
1.76279
3.08514
4.18764
4.9967
5.45703
5.53759
5.2308
4.56026
3.5767
2.35962
1.02395
-0.472941
-1.76829
-2.90642
-3.77134
-4.2872
-4.41166
-4.13762
-3.4969
-2.55728
-1.41782
-0.193785
0.984259
1.99831
2.74064
3.13392
3.14137
2.77113
2.07647
1.15188
0.118713
-0.890876
-1.7466
-2.34167
-2.60214
-2.50397
-2.07563
-1.39384
-0.573793
0.252978
0.955041
1.42754
1.59895
1.4551
1.04025
0.448282
-0.193476
-0.791849
-1.18778
-1.34715
-1.24635
-0.922258
-0.457794
0.0405968
0.489427
0.775296
0.871495
0.764381
0.494575
0.132029
-0.268671
-0.5849
-0.76186
-47.3593
-47.3558
-47.3471
-47.3379
-47.3231
-47.3149
-47.3
-47.2983
-10.373