# Forces      
# CofR        : (0.000000e+00 0.000000e+00 0.000000e+00)
# Time        forces(pressure viscous)	moments(pressure viscous)
0             	((0.000000e+00 0.000000e+00 0.000000e+00) (0.000000e+00 0.000000e+00 0.000000e+00)) ((0.000000e+00 0.000000e+00 0.000000e+00) (0.000000e+00 0.000000e+00 0.000000e+00))
0.02          	((-3.422988e-04 -2.345048e+02 0.000000e+00) (-1.575405e-10 -1.299766e-09 0.000000e+00)) ((1.172524e+01 -1.711494e-05 -5.963976e+01) (6.498832e-11 -7.877026e-12 -1.876106e-10))
0.04          	((-6.379312e-04 -2.345093e+02 0.000000e+00) (-6.930543e-10 -4.308403e-09 0.000000e+00)) ((1.172547e+01 -3.189656e-05 -5.964065e+01) (2.154201e-10 -3.465272e-11 -4.554140e-10))
0.06          	((-9.437660e-04 -2.345138e+02 0.000000e+00) (-1.539138e-09 -8.361374e-09 0.000000e+00)) ((1.172569e+01 -4.718830e-05 -5.964148e+01) (4.180687e-10 -7.695692e-11 -6.946823e-10))
0.08          	((-1.261511e-03 -2.345179e+02 0.000000e+00) (-2.594551e-09 -1.256627e-08 0.000000e+00)) ((1.172589e+01 -6.307553e-05 -5.964224e+01) (6.283137e-10 -1.297276e-10 -7.679841e-10))
0.1           	((-1.588049e-03 -2.345216e+02 0.000000e+00) (-3.847918e-09 -1.704480e-08 0.000000e+00)) ((1.172608e+01 -7.940247e-05 -5.964287e+01) (8.522400e-10 -1.923959e-10 -7.174467e-10))
0.12          	((-1.923689e-03 -2.345247e+02 0.000000e+00) (-5.258871e-09 -2.162700e-08 0.000000e+00)) ((1.172623e+01 -9.618443e-05 -5.964335e+01) (1.081350e-09 -2.629435e-10 -5.362619e-10))
0.14          	((-2.267716e-03 -2.345271e+02 0.000000e+00) (-6.782188e-09 -2.613331e-08 0.000000e+00)) ((1.172636e+01 -1.133858e-04 -5.964366e+01) (1.306665e-09 -3.391094e-10 -2.195867e-10))
0.16          	((-2.618385e-03 -2.345289e+02 0.000000e+00) (-8.370684e-09 -3.038373e-08 0.000000e+00)) ((1.172644e+01 -1.309193e-04 -5.964377e+01) (1.519187e-09 -4.185342e-10 2.357261e-10))
0.18          	((-2.971679e-03 -2.345298e+02 0.000000e+00) (-9.968427e-09 -3.420589e-08 0.000000e+00)) ((1.172649e+01 -1.485839e-04 -5.964369e+01) (1.710294e-09 -4.984213e-10 8.228816e-10))
0.2           	((-3.323927e-03 -2.345300e+02 0.000000e+00) (-1.152013e-08 -3.743375e-08 0.000000e+00)) ((1.172650e+01 -1.661963e-04 -5.964339e+01) (1.871688e-09 -5.760064e-10 1.534028e-09))
0.22          	((-3.669251e-03 -2.345292e+02 0.000000e+00) (-1.296759e-08 -3.991276e-08 0.000000e+00)) ((1.172646e+01 -1.834625e-04 -5.964289e+01) (1.995638e-09 -6.483796e-10 2.355512e-09))
0.24          	((-4.000658e-03 -2.345276e+02 0.000000e+00) (-1.425543e-08 -4.150221e-08 0.000000e+00)) ((1.172638e+01 -2.000329e-04 -5.964217e+01) (2.075111e-09 -7.127715e-10 3.272607e-09))
0.26          	((-4.309508e-03 -2.345252e+02 0.000000e+00) (-1.532684e-08 -4.208188e-08 0.000000e+00)) ((1.172626e+01 -2.154754e-04 -5.964126e+01) (2.104094e-09 -7.663418e-10 4.263655e-09))
0.28          	((-4.586138e-03 -2.345219e+02 0.000000e+00) (-1.612428e-08 -4.155420e-08 0.000000e+00)) ((1.172610e+01 -2.293069e-04 -5.964017e+01) (2.077710e-09 -8.062138e-10 5.300285e-09))
0.3           	((-4.820127e-03 -2.345179e+02 0.000000e+00) (-1.659449e-08 -3.984756e-08 0.000000e+00)) ((1.172589e+01 -2.410063e-04 -5.963893e+01) (1.992378e-09 -8.297245e-10 6.350921e-09))
0.32          	((-5.000344e-03 -2.345131e+02 0.000000e+00) (-1.668882e-08 -3.691899e-08 0.000000e+00)) ((1.172565e+01 -2.500172e-04 -5.963755e+01) (1.845949e-09 -8.344409e-10 7.380456e-09))
0.34          	((-5.110672e-03 -2.345077e+02 0.000000e+00) (-1.635750e-08 -3.275997e-08 0.000000e+00)) ((1.172538e+01 -2.555336e-04 -5.963607e+01) (1.637999e-09 -8.178749e-10 8.343855e-09))
0.36          	((-5.141265e-03 -2.345018e+02 0.000000e+00) (-1.554113e-08 -2.738294e-08 0.000000e+00)) ((1.172509e+01 -2.570633e-04 -5.963454e+01) (1.369147e-09 -7.770564e-10 9.181368e-09))
0.38          	((-5.063894e-03 -2.344954e+02 0.000000e+00) (-1.447900e-08 -2.096034e-08 0.000000e+00)) ((1.172477e+01 -2.531947e-04 -5.963300e+01) (1.048017e-09 -7.239500e-10 1.005290e-08))
0.4           	((-4.930485e-03 -2.344888e+02 0.000000e+00) (-1.327600e-08 -1.365510e-08 0.000000e+00)) ((1.172444e+01 -2.465243e-04 -5.963144e+01) (6.827549e-10 -6.638001e-10 1.099919e-08))
0.42          	((-4.762538e-03 -2.344819e+02 0.000000e+00) (-1.037062e-08 -5.455998e-09 0.000000e+00)) ((1.172409e+01 -2.381269e-04 -5.962984e+01) (2.727999e-10 -5.185308e-10 1.071254e-08))
0.44          	((-4.749491e-03 -2.344744e+02 0.000000e+00) (-6.935478e-09 3.662506e-09 0.000000e+00)) ((1.172372e+01 -2.374745e-04 -5.962800e+01) (-1.831253e-10 -3.467739e-10 1.015923e-08))
0.46          	((-3.695333e-03 -2.344681e+02 0.000000e+00) (-5.459123e-09 1.451055e-08 0.000000e+00)) ((1.172340e+01 -1.847667e-04 -5.962731e+01) (-7.255274e-10 -2.729561e-10 1.155881e-08))
0.48          	((-2.769454e-03 -2.344616e+02 0.000000e+00) (-1.578043e-09 2.779205e-08 0.000000e+00)) ((1.172308e+01 -1.384727e-04 -5.962649e+01) (-1.389603e-09 -7.890216e-11 1.140272e-08))
0.5           	((-2.186775e-03 -2.344563e+02 0.000000e+00) (4.492224e-09 4.555452e-08 0.000000e+00)) ((1.172281e+01 -1.093387e-04 -5.962568e+01) (-2.277726e-09 2.246112e-10 1.052486e-08))
0.52          	((-1.411932e-03 -2.344499e+02 0.000000e+00) (1.089951e-08 6.291500e-08 0.000000e+00)) ((1.172249e+01 -7.059661e-05 -5.962480e+01) (-3.145750e-09 5.449754e-10 9.228538e-09))
0.54          	((-1.404067e-04 -2.344453e+02 0.000000e+00) (1.511952e-08 6.433711e-08 0.000000e+00)) ((1.172226e+01 -7.020333e-06 -5.962482e+01) (-3.216856e-09 7.559760e-10 5.945461e-09))
0.56          	((1.106592e-03 -2.344413e+02 0.000000e+00) (1.981405e-08 7.288918e-08 0.000000e+00)) ((1.172206e+01 5.532962e-05 -5.962495e+01) (-3.644459e-09 9.907024e-10 3.896172e-09))
0.58          	((2.521934e-03 -2.344380e+02 0.000000e+00) (2.499802e-08 8.233948e-08 0.000000e+00)) ((1.172190e+01 1.260967e-04 -5.962544e+01) (-4.116974e-09 1.249901e-09 1.536681e-09))
0.6           	((4.060163e-03 -2.344359e+02 0.000000e+00) (3.028328e-08 9.130310e-08 0.000000e+00)) ((1.172179e+01 2.030082e-04 -5.962632e+01) (-4.565155e-09 1.514164e-09 -1.119857e-09))
0.62          	((5.688616e-03 -2.344348e+02 0.000000e+00) (3.554330e-08 9.921841e-08 0.000000e+00)) ((1.172174e+01 2.844308e-04 -5.962756e+01) (-4.960921e-09 1.777165e-09 -4.080474e-09))
0.64          	((7.417876e-03 -2.344349e+02 0.000000e+00) (4.046689e-08 1.058228e-07 0.000000e+00)) ((1.172174e+01 3.708938e-04 -5.962918e+01) (-5.291140e-09 2.023345e-09 -7.130869e-09))
0.66          	((9.221691e-03 -2.344361e+02 0.000000e+00) (4.502286e-08 1.108388e-07 0.000000e+00)) ((1.172180e+01 4.610846e-04 -5.963116e+01) (-5.541941e-09 2.251143e-09 -1.032757e-08))
0.68          	((1.107083e-02 -2.344385e+02 0.000000e+00) (4.924596e-08 1.141076e-07 0.000000e+00)) ((1.172192e+01 5.535415e-04 -5.963349e+01) (-5.705381e-09 2.462298e-09 -1.374858e-08))
0.7           	((1.292983e-02 -2.344421e+02 0.000000e+00) (5.287206e-08 1.154531e-07 0.000000e+00)) ((1.172210e+01 6.464917e-04 -5.963613e+01) (-5.772655e-09 2.643603e-09 -1.719045e-08))
0.72          	((1.477067e-02 -2.344468e+02 0.000000e+00) (5.574536e-08 1.147412e-07 0.000000e+00)) ((1.172234e+01 7.385336e-04 -5.963905e+01) (-5.737058e-09 2.787268e-09 -2.054332e-08))
0.74          	((1.655018e-02 -2.344526e+02 0.000000e+00) (5.774363e-08 1.118835e-07 0.000000e+00)) ((1.172263e+01 8.275092e-04 -5.964219e+01) (-5.594177e-09 2.887182e-09 -2.371484e-08))
0.76          	((1.824495e-02 -2.344595e+02 0.000000e+00) (5.875015e-08 1.068195e-07 0.000000e+00)) ((1.172298e+01 9.122475e-04 -5.964552e+01) (-5.340974e-09 2.937508e-09 -2.661186e-08))
0.78          	((1.980280e-02 -2.344674e+02 0.000000e+00) (5.866079e-08 9.955859e-08 0.000000e+00)) ((1.172337e+01 9.901401e-04 -5.964896e+01) (-4.977929e-09 2.933040e-09 -2.913340e-08))
0.8           	((2.118926e-02 -2.344760e+02 0.000000e+00) (5.735028e-08 9.013929e-08 0.000000e+00)) ((1.172380e+01 1.059463e-03 -5.965245e+01) (-4.506964e-09 2.867514e-09 -3.115351e-08))
0.82          	((2.233531e-02 -2.344854e+02 0.000000e+00) (5.514975e-08 7.870340e-08 0.000000e+00)) ((1.172427e+01 1.116766e-03 -5.965589e+01) (-3.935170e-09 2.757487e-09 -3.290170e-08))
0.84          	((2.318911e-02 -2.344953e+02 0.000000e+00) (5.290218e-08 6.558483e-08 0.000000e+00)) ((1.172476e+01 1.159456e-03 -5.965920e+01) (-3.279241e-09 2.645109e-09 -3.500123e-08))
0.86          	((2.378814e-02 -2.345055e+02 0.000000e+00) (5.001932e-08 5.090915e-08 0.000000e+00)) ((1.172528e+01 1.189407e-03 -5.966238e+01) (-2.545457e-09 2.500966e-09 -3.690277e-08))
0.88          	((2.427348e-02 -2.345162e+02 0.000000e+00) (4.219222e-08 3.451409e-08 0.000000e+00)) ((1.172581e+01 1.213674e-03 -5.966551e+01) (-1.725705e-09 2.109611e-09 -3.501654e-08))
0.9           	((2.441347e-02 -2.345270e+02 0.000000e+00) (3.246613e-08 1.698656e-08 0.000000e+00)) ((1.172635e+01 1.220673e-03 -5.966838e+01) (-8.493282e-10 1.623307e-09 -3.178760e-08))
0.92          	((2.462992e-02 -2.345385e+02 0.000000e+00) (2.417747e-08 -1.248865e-09 0.000000e+00)) ((1.172692e+01 1.231496e-03 -5.967142e+01) (6.244327e-11 1.208873e-09 -2.993026e-08))
0.94          	((2.261656e-02 -2.345475e+02 0.000000e+00) (2.049058e-08 -2.310593e-08 0.000000e+00)) ((1.172738e+01 1.130828e-03 -5.967198e+01) (1.155296e-09 1.024529e-09 -3.241980e-08))
0.96          	((2.112098e-02 -2.345572e+02 0.000000e+00) (9.912175e-09 -4.807695e-08 0.000000e+00)) ((1.172786e+01 1.056049e-03 -5.967308e+01) (2.403847e-09 4.956088e-10 -2.965600e-08))
0.98          	((1.896867e-02 -2.345662e+02 0.000000e+00) (-2.857584e-09 -7.476936e-08 0.000000e+00)) ((1.172831e+01 9.484335e-04 -5.967343e+01) (3.738468e-09 -1.428792e-10 -2.553821e-08))
1             	((1.749292e-02 -2.345723e+02 0.000000e+00) (-1.864465e-08 -1.118355e-07 0.000000e+00)) ((1.172861e+01 8.746458e-04 -5.967352e+01) (5.591777e-09 -9.322324e-10 -2.158505e-08))
1.02          	((1.482376e-02 -2.345825e+02 0.000000e+00) (-3.236983e-08 -1.476923e-07 0.000000e+00)) ((1.172913e+01 7.411880e-04 -5.967369e+01) (7.384617e-09 -1.618492e-09 -1.871691e-08))
1.04          	((1.167150e-02 -2.345872e+02 0.000000e+00) (-4.647980e-08 -1.439145e-07 0.000000e+00)) ((1.172936e+01 5.835751e-04 -5.967186e+01) (7.195723e-09 -2.323990e-09 -5.556507e-09))
1.06          	((8.046633e-03 -2.345917e+02 0.000000e+00) (-5.638036e-08 -1.515669e-07 0.000000e+00)) ((1.172958e+01 4.023317e-04 -5.966965e+01) (7.578343e-09 -2.819018e-09 6.936410e-10))
1.08          	((4.154320e-03 -2.345948e+02 0.000000e+00) (-6.793537e-08 -1.645754e-07 0.000000e+00)) ((1.172974e+01 2.077160e-04 -5.966683e+01) (8.228772e-09 -3.396769e-09 7.589339e-09))
1.1           	((-1.316791e-04 -2.345965e+02 0.000000e+00) (-7.938182e-08 -1.771462e-07 0.000000e+00)) ((1.172982e+01 -6.583956e-06 -5.966328e+01) (8.857310e-09 -3.969091e-09 1.471691e-08))
1.12          	((-4.708617e-03 -2.345966e+02 0.000000e+00) (-9.023207e-08 -1.878565e-07 0.000000e+00)) ((1.172983e+01 -2.354309e-04 -5.965907e+01) (9.392826e-09 -4.511604e-09 2.194850e-08))
1.14          	((-9.539816e-03 -2.345952e+02 0.000000e+00) (-9.994879e-08 -1.960829e-07 0.000000e+00)) ((1.172976e+01 -4.769908e-04 -5.965421e+01) (9.804145e-09 -4.997439e-09 2.894543e-08))
1.16          	((-1.454162e-02 -2.345921e+02 0.000000e+00) (-1.082289e-07 -2.014513e-07 0.000000e+00)) ((1.172960e+01 -7.270812e-04 -5.964877e+01) (1.007256e-08 -5.411444e-09 3.554216e-08))
1.18          	((-1.965126e-02 -2.345874e+02 0.000000e+00) (-1.157324e-07 -2.037440e-07 0.000000e+00)) ((1.172937e+01 -9.825628e-04 -5.964284e+01) (1.018720e-08 -5.786620e-09 4.244889e-08))
1.2           	((-2.476687e-02 -2.345812e+02 0.000000e+00) (-1.218007e-07 -2.026961e-07 0.000000e+00)) ((1.172906e+01 -1.238344e-03 -5.963650e+01) (1.013480e-08 -6.090036e-09 4.908483e-08))
1.22          	((-2.986323e-02 -2.345735e+02 0.000000e+00) (-1.260930e-07 -1.982418e-07 0.000000e+00)) ((1.172867e+01 -1.493161e-03 -5.962980e+01) (9.912088e-09 -6.304648e-09 5.516900e-08))
1.24          	((-3.482670e-02 -2.345644e+02 0.000000e+00) (-1.284147e-07 -1.903513e-07 0.000000e+00)) ((1.172822e+01 -1.741335e-03 -5.962288e+01) (9.517567e-09 -6.420737e-09 6.052276e-08))
1.26          	((-3.955896e-02 -2.345540e+02 0.000000e+00) (-1.286301e-07 -1.790441e-07 0.000000e+00)) ((1.172770e+01 -1.977948e-03 -5.961585e+01) (8.952203e-09 -6.431505e-09 6.500894e-08))
1.28          	((-4.396614e-02 -2.345426e+02 0.000000e+00) (-1.266247e-07 -1.644230e-07 0.000000e+00)) ((1.172713e+01 -2.198307e-03 -5.960884e+01) (8.221148e-09 -6.331235e-09 6.848671e-08))
1.3           	((-4.798019e-02 -2.345302e+02 0.000000e+00) (-1.223032e-07 -1.466636e-07 0.000000e+00)) ((1.172651e+01 -2.399010e-03 -5.960196e+01) (7.333179e-09 -6.115162e-09 7.081708e-08))
1.32          	((-5.146186e-02 -2.345171e+02 0.000000e+00) (-1.159023e-07 -1.261140e-07 0.000000e+00)) ((1.172586e+01 -2.573093e-03 -5.959540e+01) (6.305701e-09 -5.795113e-09 7.209599e-08))
1.34          	((-5.434972e-02 -2.345035e+02 0.000000e+00) (-1.084939e-07 -1.030087e-07 0.000000e+00)) ((1.172518e+01 -2.717486e-03 -5.958925e+01) (5.150434e-09 -5.424693e-09 7.312719e-08))
1.36          	((-5.668701e-02 -2.344895e+02 0.000000e+00) (-9.840669e-08 -7.757828e-08 0.000000e+00)) ((1.172448e+01 -2.834350e-03 -5.958352e+01) (3.878914e-09 -4.920335e-09 7.241012e-08))
1.38          	((-5.856580e-02 -2.344753e+02 0.000000e+00) (-8.383769e-08 -5.004468e-08 0.000000e+00)) ((1.172377e+01 -2.928290e-03 -5.957818e+01) (2.502234e-09 -4.191884e-09 6.839832e-08))
1.4           	((-5.980276e-02 -2.344609e+02 0.000000e+00) (-6.761567e-08 -2.088697e-08 0.000000e+00)) ((1.172304e+01 -2.990138e-03 -5.957340e+01) (1.044348e-09 -3.380784e-09 6.337666e-08))
1.42          	((-5.991336e-02 -2.344465e+02 0.000000e+00) (-5.043062e-08 8.169499e-09 0.000000e+00)) ((1.172233e+01 -2.995668e-03 -5.956971e+01) (-4.084749e-10 -2.521531e-09 5.752335e-08))
1.44          	((-5.824001e-02 -2.344345e+02 0.000000e+00) (-3.853668e-08 4.137322e-08 0.000000e+00)) ((1.172172e+01 -2.912000e-03 -5.956807e+01) (-2.068661e-09 -1.926834e-09 5.693175e-08))
1.46          	((-5.593502e-02 -2.344227e+02 0.000000e+00) (-2.039080e-08 8.197978e-08 0.000000e+00)) ((1.172113e+01 -2.796751e-03 -5.956713e+01) (-4.098989e-09 -1.019540e-09 5.202172e-08))
1.48          	((-5.280454e-02 -2.344117e+02 0.000000e+00) (3.463514e-09 1.246802e-07 0.000000e+00)) ((1.172058e+01 -2.640227e-03 -5.956718e+01) (-6.234008e-09 1.731757e-10 4.321215e-08))
1.5           	((-4.893009e-02 -2.344035e+02 0.000000e+00) (2.469823e-08 1.836020e-07 0.000000e+00)) ((1.172018e+01 -2.446504e-03 -5.956870e+01) (-9.180098e-09 1.234912e-09 4.084798e-08))
1.52          	((-4.567634e-02 -2.343916e+02 0.000000e+00) (5.507864e-08 2.323599e-07 0.000000e+00)) ((1.171958e+01 -2.283817e-03 -5.956875e+01) (-1.161800e-08 2.753932e-09 2.705902e-08))
1.54          	((-3.983234e-02 -2.343860e+02 0.000000e+00) (8.256709e-08 2.276804e-07 0.000000e+00)) ((1.171930e+01 -1.991617e-03 -5.957290e+01) (-1.138402e-08 4.128354e-09 3.048175e-09))
1.56          	((-3.306967e-02 -2.343813e+02 0.000000e+00) (1.016700e-07 2.353530e-07 0.000000e+00)) ((1.171906e+01 -1.653483e-03 -5.957795e+01) (-1.176765e-08 5.083502e-09 -1.014106e-08))
1.58          	((-2.601880e-02 -2.343784e+02 0.000000e+00) (1.197376e-07 2.513732e-07 0.000000e+00)) ((1.171892e+01 -1.300940e-03 -5.958375e+01) (-1.256866e-08 5.986881e-09 -2.124155e-08))
1.6           	((-1.806839e-02 -2.343772e+02 0.000000e+00) (1.394055e-07 2.677370e-07 0.000000e+00)) ((1.171886e+01 -9.034196e-04 -5.959083e+01) (-1.338685e-08 6.970273e-09 -3.413044e-08))
1.62          	((-9.479301e-03 -2.343779e+02 0.000000e+00) (1.574589e-07 2.813035e-07 0.000000e+00)) ((1.171889e+01 -4.739650e-04 -5.959899e+01) (-1.406517e-08 7.872946e-09 -4.661945e-08))
1.64          	((-3.721666e-04 -2.343806e+02 0.000000e+00) (1.734116e-07 2.914513e-07 0.000000e+00)) ((1.171903e+01 -1.860833e-05 -5.960814e+01) (-1.457257e-08 8.670580e-09 -5.841817e-08))
1.66          	((9.130665e-03 -2.343853e+02 0.000000e+00) (1.863191e-07 2.972620e-07 0.000000e+00)) ((1.171927e+01 4.565332e-04 -5.961818e+01) (-1.486310e-08 9.315957e-09 -6.883442e-08))
1.68          	((1.891906e-02 -2.343920e+02 0.000000e+00) (1.974363e-07 2.984221e-07 0.000000e+00)) ((1.171960e+01 9.459531e-04 -5.962898e+01) (-1.492110e-08 9.871814e-09 -7.923766e-08))
1.7           	((2.885174e-02 -2.344006e+02 0.000000e+00) (2.062077e-07 2.949768e-07 0.000000e+00)) ((1.172003e+01 1.442587e-03 -5.964039e+01) (-1.474884e-08 1.031038e-08 -8.908700e-08))
1.72          	((3.879333e-02 -2.344108e+02 0.000000e+00) (2.118534e-07 2.867362e-07 0.000000e+00)) ((1.172054e+01 1.939667e-03 -5.965225e+01) (-1.433681e-08 1.059267e-08 -9.769678e-08))
1.74          	((4.857115e-02 -2.344227e+02 0.000000e+00) (2.139967e-07 2.736696e-07 0.000000e+00)) ((1.172114e+01 2.428558e-03 -5.966436e+01) (-1.368348e-08 1.069984e-08 -1.047238e-07))
1.76          	((5.799680e-02 -2.344360e+02 0.000000e+00) (2.124469e-07 2.558368e-07 0.000000e+00)) ((1.172180e+01 2.899840e-03 -5.967651e+01) (-1.279184e-08 1.062235e-08 -1.099539e-07))
1.78          	((6.696635e-02 -2.344506e+02 0.000000e+00) (2.084942e-07 2.335977e-07 0.000000e+00)) ((1.172253e+01 3.348317e-03 -5.968854e+01) (-1.167988e-08 1.042471e-08 -1.143708e-07))
1.8           	((7.527512e-02 -2.344661e+02 0.000000e+00) (2.028790e-07 2.074089e-07 0.000000e+00)) ((1.172330e+01 3.763756e-03 -5.970021e+01) (-1.037045e-08 1.014395e-08 -1.184653e-07))
1.82          	((8.274348e-02 -2.344823e+02 0.000000e+00) (1.957623e-07 1.776585e-07 0.000000e+00)) ((1.172411e+01 4.137174e-03 -5.971128e+01) (-8.882923e-09 9.788114e-09 -1.222509e-07))
1.84          	((8.929333e-02 -2.344989e+02 0.000000e+00) (1.849168e-07 1.442484e-07 0.000000e+00)) ((1.172495e+01 4.464666e-03 -5.972161e+01) (-7.212421e-09 9.245841e-09 -1.238055e-07))
1.86          	((9.501548e-02 -2.345158e+02 0.000000e+00) (1.607485e-07 1.071601e-07 0.000000e+00)) ((1.172579e+01 4.750774e-03 -5.973122e+01) (-5.358006e-09 8.037427e-09 -1.150219e-07))
1.88          	((9.961996e-02 -2.345330e+02 0.000000e+00) (1.347484e-07 6.810238e-08 0.000000e+00)) ((1.172665e+01 4.980998e-03 -5.973983e+01) (-3.405119e-09 6.737418e-09 -1.052191e-07))
1.9           	((1.030904e-01 -2.345502e+02 0.000000e+00) (1.060267e-07 2.750318e-08 0.000000e+00)) ((1.172751e+01 5.154521e-03 -5.974738e+01) (-1.375159e-09 5.301336e-09 -9.352863e-08))
1.92          	((1.051207e-01 -2.345672e+02 0.000000e+00) (7.973637e-08 -1.300538e-08 0.000000e+00)) ((1.172836e+01 5.256036e-03 -5.975353e+01) (6.502692e-10 3.986818e-09 -8.396076e-08))
1.94          	((1.053374e-01 -2.345830e+02 0.000000e+00) (6.318138e-08 -5.582280e-08 0.000000e+00)) ((1.172915e+01 5.266869e-03 -5.975771e+01) (2.791140e-09 3.159069e-09 -8.305098e-08))
1.96          	((1.022677e-01 -2.345946e+02 0.000000e+00) (3.490401e-08 -1.110730e-07 0.000000e+00)) ((1.172973e+01 5.113383e-03 -5.975810e+01) (5.553651e-09 1.745200e-09 -7.372771e-08))
1.98          	((9.891421e-02 -2.346071e+02 0.000000e+00) (-1.967545e-09 -1.706232e-07 0.000000e+00)) ((1.173035e+01 4.945711e-03 -5.975823e+01) (8.531161e-09 -9.837725e-11 -5.878220e-08))
2             	((9.491516e-02 -2.346153e+02 0.000000e+00) (-4.471053e-08 -2.515501e-07 0.000000e+00)) ((1.173077e+01 4.745758e-03 -5.975652e+01) (1.257751e-08 -2.235526e-09 -4.492064e-08))
2.02          	((8.998401e-02 -2.346299e+02 0.000000e+00) (-7.976121e-08 -3.156861e-07 0.000000e+00)) ((1.173149e+01 4.499201e-03 -5.975560e+01) (1.578430e-08 -3.988060e-09 -3.166375e-08))
2.04          	((8.231870e-02 -2.346350e+02 0.000000e+00) (-1.181076e-07 -3.091925e-07 0.000000e+00)) ((1.173175e+01 4.115935e-03 -5.974961e+01) (1.545962e-08 -5.905378e-09 9.153602e-10))
2.06          	((7.261205e-02 -2.346408e+02 0.000000e+00) (-1.473608e-07 -3.198378e-07 0.000000e+00)) ((1.173204e+01 3.630602e-03 -5.974212e+01) (1.599189e-08 -7.368042e-09 2.070810e-08))
2.08          	((6.237334e-02 -2.346435e+02 0.000000e+00) (-1.779607e-07 -3.404250e-07 0.000000e+00)) ((1.173217e+01 3.118667e-03 -5.973330e+01) (1.702125e-08 -8.898034e-09 4.037314e-08))
2.1           	((5.064997e-02 -2.346442e+02 0.000000e+00) (-2.085174e-07 -3.617366e-07 0.000000e+00)) ((1.173221e+01 2.532498e-03 -5.972258e+01) (1.808683e-08 -1.042587e-08 6.053315e-08))
2.12          	((3.790713e-02 -2.346424e+02 0.000000e+00) (-2.365271e-07 -3.791889e-07 0.000000e+00)) ((1.173212e+01 1.895356e-03 -5.971029e+01) (1.895945e-08 -1.182635e-08 7.982793e-08))
2.14          	((2.413501e-02 -2.346385e+02 0.000000e+00) (-2.612014e-07 -3.919730e-07 0.000000e+00)) ((1.173192e+01 1.206751e-03 -5.969648e+01) (1.959865e-08 -1.306007e-08 9.778950e-08))
2.16          	((9.571494e-03 -2.346322e+02 0.000000e+00) (-2.820115e-07 -3.991911e-07 0.000000e+00)) ((1.173161e+01 4.785747e-04 -5.968134e+01) (1.995955e-08 -1.410057e-08 1.141445e-07))
2.18          	((-5.521897e-03 -2.346236e+02 0.000000e+00) (-3.003221e-07 -4.003854e-07 0.000000e+00)) ((1.173118e+01 -2.760949e-04 -5.966512e+01) (2.001927e-08 -1.501610e-08 1.303746e-07))
2.2           	((-2.103991e-02 -2.346129e+02 0.000000e+00) (-3.150315e-07 -3.952307e-07 0.000000e+00)) ((1.173064e+01 -1.051996e-03 -5.964798e+01) (1.976153e-08 -1.575157e-08 1.455136e-07))
2.22          	((-3.668273e-02 -2.346002e+02 0.000000e+00) (-3.253329e-07 -3.838049e-07 0.000000e+00)) ((1.173001e+01 -1.834137e-03 -5.963020e+01) (1.919024e-08 -1.626664e-08 1.588199e-07))
2.24          	((-5.225426e-02 -2.345857e+02 0.000000e+00) (-3.308701e-07 -3.661323e-07 0.000000e+00)) ((1.172929e+01 -2.612713e-03 -5.961204e+01) (1.830661e-08 -1.654351e-08 1.699527e-07))
2.26          	((-6.750554e-02 -2.345696e+02 0.000000e+00) (-3.314118e-07 -3.423696e-07 0.000000e+00)) ((1.172848e+01 -3.375277e-03 -5.959378e+01) (1.711848e-08 -1.657059e-08 1.786499e-07))
2.28          	((-8.221580e-02 -2.345523e+02 0.000000e+00) (-3.268387e-07 -3.128463e-07 0.000000e+00)) ((1.172761e+01 -4.110790e-03 -5.957569e+01) (1.564232e-08 -1.634194e-08 1.847087e-07))
2.3           	((-9.608222e-02 -2.345338e+02 0.000000e+00) (-3.171206e-07 -2.780135e-07 0.000000e+00)) ((1.172669e+01 -4.804111e-03 -5.955811e+01) (1.390068e-08 -1.585603e-08 1.879601e-07))
2.32          	((-1.089051e-01 -2.345147e+02 0.000000e+00) (-3.022228e-07 -2.385067e-07 0.000000e+00)) ((1.172573e+01 -5.445256e-03 -5.954132e+01) (1.192533e-08 -1.511114e-08 1.881905e-07))
2.34          	((-1.204550e-01 -2.344952e+02 0.000000e+00) (-2.831231e-07 -1.943323e-07 0.000000e+00)) ((1.172476e+01 -6.022751e-03 -5.952562e+01) (9.716617e-09 -1.415615e-08 1.861247e-07))
2.36          	((-1.307392e-01 -2.344755e+02 0.000000e+00) (-2.594966e-07 -1.458560e-07 0.000000e+00)) ((1.172378e+01 -6.536961e-03 -5.951107e+01) (7.292799e-09 -1.297483e-08 1.812787e-07))
2.38          	((-1.395939e-01 -2.344558e+02 0.000000e+00) (-2.297081e-07 -9.406051e-08 0.000000e+00)) ((1.172279e+01 -6.979695e-03 -5.949787e+01) (4.703026e-09 -1.148541e-08 1.721346e-07))
2.4           	((-1.466679e-01 -2.344362e+02 0.000000e+00) (-1.944452e-07 -3.970286e-08 0.000000e+00)) ((1.172181e+01 -7.333395e-03 -5.948635e+01) (1.985143e-09 -9.722259e-09 1.590942e-07))
2.42          	((-1.519479e-01 -2.344169e+02 0.000000e+00) (-1.579607e-07 1.584686e-08 0.000000e+00)) ((1.172085e+01 -7.597396e-03 -5.947659e+01) (-7.923429e-10 -7.898035e-09 1.453624e-07))
2.44          	((-1.552731e-01 -2.343985e+02 0.000000e+00) (-1.229130e-07 7.164543e-08 0.000000e+00)) ((1.171992e+01 -7.763653e-03 -5.946889e+01) (-3.582272e-09 -6.145652e-09 1.331618e-07))
2.46          	((-1.556552e-01 -2.343858e+02 0.000000e+00) (-7.238816e-08 1.293518e-07 0.000000e+00)) ((1.171929e+01 -7.782759e-03 -5.946531e+01) (-6.467588e-09 -3.619408e-09 1.085981e-07))
2.48          	((-1.515129e-01 -2.343718e+02 0.000000e+00) (-4.276560e-08 2.085060e-07 0.000000e+00)) ((1.171859e+01 -7.575646e-03 -5.946520e+01) (-1.042530e-08 -2.138280e-09 1.048077e-07))
2.5           	((-1.471524e-01 -2.343637e+02 0.000000e+00) (7.041834e-10 3.163227e-07 0.000000e+00)) ((1.171818e+01 -7.357620e-03 -5.946717e+01) (-1.581614e-08 3.520917e-11 9.784385e-08))
2.52          	((-1.433006e-01 -2.343469e+02 0.000000e+00) (6.241724e-08 3.960275e-07 0.000000e+00)) ((1.171734e+01 -7.165032e-03 -5.946656e+01) (-1.980138e-08 3.120862e-09 6.636399e-08))
2.54          	((-1.344851e-01 -2.343424e+02 0.000000e+00) (1.245870e-07 3.840535e-07 0.000000e+00)) ((1.171712e+01 -6.724253e-03 -5.947383e+01) (-1.920268e-08 6.229351e-09 1.368172e-08))
2.56          	((-1.235444e-01 -2.343381e+02 0.000000e+00) (1.662249e-07 3.981870e-07 0.000000e+00)) ((1.171690e+01 -6.177220e-03 -5.948288e+01) (-1.990935e-08 8.311245e-09 -1.437618e-08))
2.58          	((-1.110307e-01 -2.343362e+02 0.000000e+00) (2.047120e-07 4.230542e-07 0.000000e+00)) ((1.171681e+01 -5.551537e-03 -5.949402e+01) (-2.115271e-08 1.023560e-08 -3.830443e-08))
2.6           	((-9.647325e-02 -2.343367e+02 0.000000e+00) (2.461352e-07 4.494486e-07 0.000000e+00)) ((1.171683e+01 -4.823662e-03 -5.950768e+01) (-2.247243e-08 1.230676e-08 -6.541627e-08))
2.62          	((-8.031855e-02 -2.343400e+02 0.000000e+00) (2.847927e-07 4.711478e-07 0.000000e+00)) ((1.171700e+01 -4.015928e-03 -5.952355e+01) (-2.355739e-08 1.423964e-08 -9.183413e-08))
2.64          	((-6.255507e-02 -2.343458e+02 0.000000e+00) (3.189365e-07 4.867571e-07 0.000000e+00)) ((1.171729e+01 -3.127753e-03 -5.954156e+01) (-2.433786e-08 1.594683e-08 -1.163738e-07))
2.66          	((-4.346747e-02 -2.343543e+02 0.000000e+00) (3.473302e-07 4.953953e-07 0.000000e+00)) ((1.171772e+01 -2.173373e-03 -5.956147e+01) (-2.476977e-08 1.736651e-08 -1.381165e-07))
2.68          	((-2.335792e-02 -2.343653e+02 0.000000e+00) (3.721686e-07 4.965864e-07 0.000000e+00)) ((1.171827e+01 -1.167896e-03 -5.958297e+01) (-2.482932e-08 1.860843e-08 -1.593844e-07))
2.7           	((-2.450416e-03 -2.343786e+02 0.000000e+00) (3.919113e-07 4.901649e-07 0.000000e+00)) ((1.171893e+01 -1.225208e-04 -5.960579e+01) (-2.450825e-08 1.959556e-08 -1.787797e-07))
2.72          	((1.887704e-02 -2.343941e+02 0.000000e+00) (4.053302e-07 4.756446e-07 0.000000e+00)) ((1.171971e+01 9.438518e-04 -5.962957e+01) (-2.378223e-08 2.026651e-08 -1.952533e-07))
2.74          	((4.042699e-02 -2.344115e+02 0.000000e+00) (4.118650e-07 4.533106e-07 0.000000e+00)) ((1.172058e+01 2.021349e-03 -5.965402e+01) (-2.266553e-08 2.059325e-08 -2.082810e-07))
2.76          	((6.177867e-02 -2.344306e+02 0.000000e+00) (4.141753e-07 4.237382e-07 0.000000e+00)) ((1.172153e+01 3.088933e-03 -5.967872e+01) (-2.118691e-08 2.070877e-08 -2.199215e-07))
2.78          	((8.265496e-02 -2.344509e+02 0.000000e+00) (4.131947e-07 3.874034e-07 0.000000e+00)) ((1.172255e+01 4.132748e-03 -5.970330e+01) (-1.937017e-08 2.065974e-08 -2.308157e-07))
2.8           	((1.026776e-01 -2.344723e+02 0.000000e+00) (4.081030e-07 3.448235e-07 0.000000e+00)) ((1.172362e+01 5.133879e-03 -5.972735e+01) (-1.724118e-08 2.040515e-08 -2.401208e-07))
2.82          	((1.216908e-01 -2.344942e+02 0.000000e+00) (3.921107e-07 2.962338e-07 0.000000e+00)) ((1.172471e+01 6.084539e-03 -5.975059e+01) (-1.481169e-08 1.960553e-08 -2.420620e-07))
2.84          	((1.392472e-01 -2.345163e+02 0.000000e+00) (3.612839e-07 2.418660e-07 0.000000e+00)) ((1.172581e+01 6.962361e-03 -5.977252e+01) (-1.209330e-08 1.806419e-08 -2.330844e-07))
2.86          	((1.550928e-01 -2.345382e+02 0.000000e+00) (3.310506e-07 1.837486e-07 0.000000e+00)) ((1.172691e+01 7.754641e-03 -5.979282e+01) (-9.187428e-09 1.655253e-08 -2.255532e-07))
2.88          	((1.689698e-01 -2.345602e+02 0.000000e+00) (2.892301e-07 1.214562e-07 0.000000e+00)) ((1.172801e+01 8.448490e-03 -5.981130e+01) (-6.072808e-09 1.446151e-08 -2.095531e-07))
2.9           	((1.807625e-01 -2.345819e+02 0.000000e+00) (2.441466e-07 5.622931e-08 0.000000e+00)) ((1.172909e+01 9.038125e-03 -5.982773e+01) (-2.811466e-09 1.220733e-08 -1.918803e-07))
2.92          	((1.903509e-01 -2.346032e+02 0.000000e+00) (1.955974e-07 -9.978486e-09 0.000000e+00)) ((1.173016e+01 9.517543e-03 -5.984201e+01) (4.989243e-10 9.779872e-09 -1.715368e-07))
2.94          	((1.972832e-01 -2.346234e+02 0.000000e+00) (1.407969e-07 -7.373946e-08 0.000000e+00)) ((1.173117e+01 9.864159e-03 -5.985350e+01) (3.686973e-09 7.039845e-09 -1.455087e-07))
2.96          	((1.993662e-01 -2.346381e+02 0.000000e+00) (1.119684e-07 -1.482576e-07 0.000000e+00)) ((1.173190e+01 9.968308e-03 -5.985939e+01) (7.412882e-09 5.598422e-09 -1.431679e-07))
2.98          	((1.997466e-01 -2.346487e+02 0.000000e+00) (5.068014e-08 -2.378523e-07 0.000000e+00)) ((1.173244e+01 9.987329e-03 -5.986258e+01) (1.189261e-08 2.534007e-09 -1.162946e-07))
3             	((1.979381e-01 -2.346563e+02 0.000000e+00) (-2.448582e-08 -3.778897e-07 0.000000e+00)) ((1.173282e+01 9.896905e-03 -5.986275e+01) (1.889449e-08 -1.224291e-09 -9.172113e-08))
3.02          	((1.933991e-01 -2.346782e+02 0.000000e+00) (-8.597721e-08 -4.666118e-07 0.000000e+00)) ((1.173391e+01 9.669955e-03 -5.986409e+01) (2.333059e-08 -4.298860e-09 -6.402013e-08))
3.04          	((1.850290e-01 -2.346814e+02 0.000000e+00) (-1.435320e-07 -4.474084e-07 0.000000e+00)) ((1.173407e+01 9.251449e-03 -5.985694e+01) (2.237042e-08 -7.176602e-09 -1.500948e-08))
3.06          	((1.739908e-01 -2.346843e+02 0.000000e+00) (-2.003143e-07 -4.700227e-07 0.000000e+00)) ((1.173422e+01 8.699541e-03 -5.984744e+01) (2.350114e-08 -1.001571e-08 2.284058e-08))
3.08          	((1.601982e-01 -2.346856e+02 0.000000e+00) (-2.579096e-07 -5.056674e-07 0.000000e+00)) ((1.173428e+01 8.009909e-03 -5.983494e+01) (2.528337e-08 -1.289548e-08 5.965318e-08))
3.1           	((1.438869e-01 -2.346837e+02 0.000000e+00) (-3.125230e-07 -5.392448e-07 0.000000e+00)) ((1.173418e+01 7.194343e-03 -5.981927e+01) (2.696224e-08 -1.562615e-08 9.506878e-08))
3.12          	((1.250562e-01 -2.346789e+02 0.000000e+00) (-3.633950e-07 -5.665888e-07 0.000000e+00)) ((1.173395e+01 6.252810e-03 -5.980053e+01) (2.832944e-08 -1.816975e-08 1.293478e-07))
3.14          	((1.041115e-01 -2.346712e+02 0.000000e+00) (-4.082793e-07 -5.865554e-07 0.000000e+00)) ((1.173356e+01 5.205574e-03 -5.977907e+01) (2.932777e-08 -2.041397e-08 1.607480e-07))