/*--------------------------------*- C++ -*----------------------------------*\
  =========                 |
  \\      /  F ield         | OpenFOAM: The Open Source CFD Toolbox
   \\    /   O peration     | Website:  https://openfoam.org
    \\  /    A nd           | Version:  12
     \\/     M anipulation  |
\*---------------------------------------------------------------------------*/
FoamFile
{
    format      ascii;
    class       volScalarField;
    location    "0.11";
    object      epsilon;
}
// * * * * * * * * * * * * * * * * * * * * * * * * * * * * * * * * * * * * * //

dimensions      [0 2 -3 0 0 0 0];

internalField   nonuniform List<scalar> 
12225
(
278.515
263.66
249.434
236.839
226.739
219.485
215.074
213.27
213.718
216.009
219.739
224.541
230.095
236.137
242.468
248.924
255.556
265.192
61.1163
86.6965
97.9939
107.212
118.474
132.573
149.437
168.653
189.64
211.773
234.465
257.206
279.596
301.346
322.385
342.565
363.603
382.557
25.2776
36.1833
43.3824
48.6228
53.3892
58.3411
63.7787
69.8384
76.5456
83.8529
91.6709
99.8917
108.406
117.117
125.965
134.945
144.24
153.878
17.5217
21.2987
24.7148
27.6107
30.1632
32.5421
34.8699
37.2329
39.6844
42.2513
44.9414
47.7508
50.6693
53.6861
56.7952
60.0098
63.3571
66.8777
15.4878
16.752
18.186
19.5892
20.91
22.1499
23.3278
24.4674
25.5896
26.7098
27.8378
28.9797
30.1385
31.3164
32.516
33.7438
35.0072
36.3059
14.9084
15.2396
15.7464
16.3342
16.9479
17.5594
18.1565
18.7367
19.3017
19.8548
20.3993
20.9379
21.4729
22.0063
22.5401
23.0773
23.6203
24.1638
14.7451
14.7391
14.8342
15.0036
15.2217
15.4681
15.7289
15.9954
16.2627
16.5285
16.7918
17.0521
17.3096
17.5646
17.8179
18.0704
18.3226
18.5706
14.7013
14.5825
14.5116
14.4858
14.4982
14.5403
14.6044
14.6839
14.774
14.8713
14.9732
15.0782
15.1852
15.2934
15.4025
15.5124
15.6228
15.7312
14.6901
14.5373
14.407
14.3008
14.2182
14.1571
14.1146
14.0876
14.0734
14.0694
14.0738
14.0849
14.1013
14.1221
14.1466
14.1741
14.2042
14.2353
14.6874
14.5252
14.3761
14.2411
14.1204
14.0137
13.9203
13.8391
13.7688
13.7083
13.6564
13.6121
13.5742
13.5422
13.5152
13.4927
13.4742
13.4588
14.6868
14.5221
14.3677
14.2236
14.0896
13.9655
13.8511
13.7459
13.6494
13.561
13.48
13.406
13.3383
13.2764
13.2197
13.168
13.1207
13.0777
14.6866
14.5213
14.3656
14.219
14.0812
13.9518
13.8305
13.7168
13.6104
13.511
13.4181
13.3313
13.2502
13.1746
13.1039
13.038
12.9765
12.9195
14.6865
14.521
14.3648
14.2175
14.0785
13.9472
13.8234
13.7065
13.5962
13.4922
13.394
13.3014
13.2141
13.1318
13.0541
12.9809
12.9119
12.8475
14.6864
14.5208
14.3645
14.2169
14.0774
13.9456
13.8209
13.7029
13.5912
13.4854
13.3852
13.2903
13.2004
13.1151
13.0343
12.9577
12.8851
12.8171
14.6864
14.5207
14.3643
14.2165
14.0769
13.9449
13.8199
13.7016
13.5895
13.4832
13.3824
13.2867
13.1959
13.1097
13.0278
12.95
12.8762
12.8067
14.6863
14.5206
14.3641
14.2163
14.0766
13.9444
13.8193
13.7009
13.5886
13.4822
13.3812
13.2853
13.1943
13.1078
13.0256
12.9475
12.8732
12.8033
14.6863
14.5205
14.364
14.2161
14.0763
13.9441
13.8189
13.7004
13.5881
13.4815
13.3805
13.2845
13.1934
13.1068
13.0245
12.9463
12.8719
12.8018
14.6863
14.5204
14.3639
14.216
14.0761
13.9439
13.8187
13.7001
13.5877
13.4811
13.38
13.284
13.1928
13.1061
13.0238
12.9454
12.871
12.8009
14.6863
14.5204
14.3639
14.2159
14.0761
13.9438
13.8186
13.7
13.5875
13.4809
13.3798
13.2837
13.1925
13.1058
13.0234
12.9451
12.8705
12.8004
14.6863
14.5205
14.3639
14.216
14.0762
13.9439
13.8187
13.7001
13.5878
13.4812
13.38
13.284
13.1929
13.1062
13.0238
12.9455
12.871
12.8009
14.6863
14.5205
14.364
14.2162
14.0764
13.9443
13.8192
13.7007
13.5885
13.4821
13.3812
13.2855
13.1946
13.1083
13.0263
12.9484
12.8744
12.8048
14.6863
14.5206
14.3643
14.2167
14.0773
13.9457
13.8214
13.7039
13.5929
13.4879
13.3887
13.2948
13.206
13.122
13.0424
12.9671
12.8958
12.829
14.6865
14.5212
14.3659
14.2202
14.0837
13.9561
13.8368
13.7256
13.6218
13.525
13.4348
13.3506
13.272
13.1987
13.1301
13.066
13.006
12.9506
14.6876
14.5264
14.3794
14.2467
14.1282
14.0231
13.9302
13.8484
13.7762
13.7126
13.6564
13.6067
13.5627
13.5236
13.4889
13.4579
13.4304
13.4063
14.6976
14.5664
14.4707
14.4075
14.3714
14.3568
14.3584
14.3719
14.394
14.4222
14.4548
14.4904
14.5282
14.5675
14.6079
14.6489
14.6904
14.7323
14.7737
14.8186
14.9602
15.1591
15.3862
15.6232
15.8595
16.0901
16.313
16.5278
16.7351
16.9356
17.1302
17.3197
17.5049
17.6864
17.8647
18.0393
15.2587
16.1151
17.0711
17.9726
18.7876
19.5234
20.1939
20.814
21.3977
21.9559
22.4968
23.0268
23.5499
24.0692
24.5863
25.1021
25.6168
26.1279
18.0414
22.0078
24.9884
27.1529
28.8877
30.404
31.8111
33.1765
34.541
35.9274
37.3465
38.8023
40.2937
41.817
43.3664
44.9356
46.5182
48.1011
34.0239
45.6875
51.3761
54.9412
58.079
61.295
64.7463
68.4768
72.4703
76.6839
81.0674
85.571
90.1483
94.7575
99.363
103.936
108.461
112.91
163.308
157.417
151.704
146.261
141.3
136.947
133.249
130.205
127.779
125.916
124.556
123.633
123.088
122.864
122.909
123.177
123.629
124.228
1.03814
0.889266
1.32307
1.68343
2.0049
2.31564
2.65056
3.02107
3.43834
3.91171
4.44872
5.03493
5.62583
6.2044
6.75364
7.25916
7.7098
8.09759
8.41787
8.66946
8.85372
8.97204
9.02731
9.04278
9.08399
38.7645
9.10454
9.07807
38.9579
9.18023
9.21018
9.2603
9.16437
9.30903
40.5059
43.1806
46.0338
49.0081
52.0951
55.2933
58.6036
62.0283
65.5708
69.2352
73.0259
76.9475
81.0049
85.2028
89.5458
94.0385
98.6852
103.49
108.457
113.588
118.889
124.361
130.006
135.827
141.826
148.003
154.36
160.897
167.613
174.508
181.582
188.832
196.257
203.854
211.62
219.552
227.647
235.9
244.305
252.859
261.555
270.388
279.351
288.437
297.639
306.95
316.36
325.862
335.447
345.105
354.827
364.602
374.421
384.27
394.14
404.019
413.894
423.753
433.587
443.386
453.147
462.877
472.599
482.346
491.961
501.442
510.781
519.967
528.984
537.816
546.448
554.862
563.044
570.976
578.643
586.031
593.124
599.907
606.366
612.489
618.262
623.674
628.712
633.367
637.627
641.486
644.933
647.963
650.568
652.743
654.484
655.788
656.652
657.075
657.058
656.6
655.705
654.374
652.614
650.428
647.823
644.807
641.388
637.575
633.379
628.811
623.883
618.608
613
607.073
600.842
594.323
587.532
580.485
573.2
565.693
557.983
550.086
542.019
533.804
525.453
516.989
508.428
499.771
491.075
482.308
473.54
464.841
456.744
452.215
448.627
445.098
441.579
438.073
434.581
431.106
427.65
424.208
420.766
417.298
413.753
410.027
405.886
400.741
393.047
377.189
2.25693
1.49687
1.49502
1.61636
1.79451
2.02316
2.3047
2.64495
3.04895
3.51125
4.02952
4.59337
5.18582
5.79125
6.39684
6.99391
7.57857
8.15219
8.7221
9.30244
9.91501
10.5881
11.3487
12.2092
13.2219
14.8731
15.1467
16.36
18.0345
18.4141
19.6163
21.0407
22.8955
24.5318
26.7077
28.1821
29.6237
31.0945
32.6071
34.1645
35.7689
37.4226
39.1275
40.8856
42.6986
44.5683
46.496
48.4833
50.5314
52.6414
54.8144
57.0513
59.3529
61.72
64.153
66.6524
69.2185
71.8515
74.5515
77.3183
80.1518
83.0516
86.0172
89.048
92.1433
95.3021
98.5234
101.806
105.149
108.55
112.008
115.521
119.088
122.706
126.373
130.088
133.846
137.647
141.486
145.362
149.271
153.211
157.177
161.167
165.176
169.202
173.239
177.285
181.335
185.384
189.43
193.468
197.496
201.513
205.521
209.524
213.533
217.595
221.621
225.6
229.524
233.388
237.187
240.915
244.565
248.13
251.606
254.986
258.263
261.432
264.487
267.422
270.232
272.912
275.456
277.86
280.119
282.229
284.186
285.985
287.623
289.098
290.407
291.546
292.513
293.308
293.929
294.374
294.643
294.737
294.654
294.396
293.964
293.36
292.584
291.64
290.53
289.256
287.824
286.235
284.495
282.608
280.578
278.411
276.112
273.687
271.141
268.481
265.712
262.841
259.876
256.822
253.685
250.474
247.194
243.853
240.458
237.005
233.528
229.991
226.453
222.97
219.679
217.048
214.661
212.325
210.003
207.689
205.384
203.088
200.802
198.526
196.261
194.003
191.746
189.486
187.201
184.901
182.494
181.274
3.95493
2.27983
2.07488
2.11755
2.267
2.48308
2.75894
3.09706
3.50021
3.96775
4.49517
5.07325
5.68936
6.33037
6.98505
7.64564
8.30855
8.97441
9.64777
10.3363
11.0498
11.7973
12.5834
13.4043
14.255
15.1507
16.0461
17.0085
18.0115
19.0187
20.1006
21.2376
22.4279
23.622
24.8409
26.0364
27.2489
28.4936
29.776
31.0982
32.4611
33.8658
35.3132
36.8042
38.3399
39.9212
41.5488
43.2237
44.9465
46.718
48.5388
50.4094
52.3303
54.302
56.3247
58.3988
60.5243
62.7013
64.9298
67.2097
69.5408
71.9229
74.3555
76.8381
79.3702
81.9511
84.58
87.256
89.9782
92.7454
95.5566
98.4103
101.305
104.24
107.213
110.222
113.265
116.342
119.449
122.584
125.746
128.932
132.139
135.366
138.609
141.867
145.135
148.413
151.697
154.985
158.275
161.565
164.855
168.145
171.435
174.727
178.025
181.314
184.574
187.797
190.977
194.11
197.191
200.213
203.173
206.066
208.886
211.628
214.288
216.86
219.341
221.725
224.009
226.187
228.256
230.211
232.05
233.768
235.363
236.831
238.169
239.375
240.447
241.382
242.179
242.836
243.353
243.728
243.962
244.053
244.002
243.81
243.477
243.005
242.395
241.648
240.768
239.755
238.614
237.347
235.957
234.447
232.822
231.086
229.242
227.296
225.251
223.113
220.887
218.576
216.188
213.727
211.196
208.605
205.954
203.252
200.508
197.701
194.89
192.051
189.209
186.395
183.676
181.184
178.808
176.476
174.162
171.859
169.567
167.287
165.019
162.766
160.529
158.313
156.12
153.962
151.862
149.894
148.175
147.531
6.0462
3.1957
2.78822
2.76893
2.88845
3.09093
3.36329
3.70283
4.10913
4.58039
5.11161
5.6942
6.31695
6.96784
7.63605
8.31338
8.99504
9.67966
10.3689
11.0665
11.7775
12.5065
13.2572
14.0312
14.83
15.6581
16.5185
17.4145
18.3458
19.3124
20.3166
21.3554
22.4254
23.5206
24.6405
25.7832
26.9543
28.1583
29.3981
30.6753
31.991
33.3462
34.7418
36.1786
37.6574
39.179
40.7443
42.354
44.0088
45.7095
47.4566
49.2509
51.0928
52.9828
54.9214
56.909
58.9458
61.0322
63.1682
65.3539
67.5894
69.8745
72.2091
74.593
77.0256
79.5067
82.0355
84.6116
87.234
89.902
92.6144
95.3703
98.1685
101.007
103.886
106.802
109.755
112.743
115.763
118.813
121.893
124.999
128.129
131.281
134.454
137.643
140.848
144.065
147.292
150.528
153.77
157.017
160.266
163.518
166.769
170.02
173.261
176.482
179.673
182.828
185.941
189.008
192.022
194.98
197.876
200.704
203.46
206.14
208.737
211.247
213.666
215.989
218.211
220.329
222.338
224.234
226.013
227.673
229.21
230.62
231.902
233.053
234.07
234.952
235.698
236.305
236.773
237.102
237.29
237.339
237.248
237.017
236.649
236.144
235.504
234.73
233.825
232.792
231.633
230.352
228.951
227.434
225.805
224.068
222.228
220.288
218.254
216.13
213.92
211.629
209.265
206.83
204.326
201.769
199.151
196.483
193.785
191.046
188.288
185.51
182.726
179.958
177.242
174.627
172.08
169.569
167.077
164.6
162.137
159.69
157.26
154.85
152.464
150.109
147.793
145.536
143.373
141.393
139.727
138.843
8.41488
4.244
3.58816
3.47664
3.55195
3.73348
3.99556
4.32895
4.72931
5.19258
5.71283
6.28166
6.88877
7.52327
8.17522
8.8369
9.50355
10.1735
10.8477
11.5292
12.2222
12.9313
13.6607
14.414
15.1942
16.0044
16.847
17.7235
18.6344
19.5799
20.5598
21.5729
22.6182
23.6948
24.8025
25.9418
27.1144
28.3219
29.5659
30.8477
32.1683
33.5287
34.9298
36.3725
37.8578
39.3865
40.9596
42.5778
44.2422
45.9536
47.7128
49.5206
51.3779
53.2852
55.2434
57.2531
59.3147
61.4289
63.596
65.8164
68.0904
70.4181
72.7995
75.2348
77.7236
80.2659
82.8612
85.509
88.2088
90.9597
93.761
96.6116
99.5104
102.456
105.447
108.483
111.56
114.678
117.835
121.028
124.256
127.516
130.806
134.123
137.466
140.831
144.215
147.617
151.034
154.463
157.901
161.347
164.797
168.249
171.7
175.143
178.569
181.97
185.337
188.666
191.951
195.186
198.365
201.483
204.534
207.513
210.415
213.233
215.962
218.598
221.135
223.568
225.892
228.104
230.198
232.17
234.016
235.734
237.319
238.768
240.079
241.25
242.277
243.159
243.895
244.484
244.924
245.215
245.357
245.351
245.196
244.894
244.446
243.854
243.119
242.244
241.231
240.084
238.805
237.398
235.867
234.215
232.447
230.568
228.581
226.492
224.305
222.027
219.661
217.209
214.687
212.093
209.422
206.706
203.938
201.123
198.272
195.386
192.477
189.548
186.612
183.683
180.784
177.937
175.134
172.36
169.606
166.871
164.153
161.456
158.782
156.134
153.519
150.944
148.423
145.979
143.652
141.527
139.71
138.462
10.6974
5.30711
4.38657
4.17076
4.1969
4.3513
4.59531
4.91309
5.29649
5.73929
6.23477
6.77485
7.35036
7.95196
8.57129
9.20196
9.84012
10.4846
11.1366
11.799
12.4757
13.1709
13.8888
14.6328
15.4057
16.2101
17.0475
17.9191
18.8255
19.767
20.7435
21.755
22.8012
23.8823
24.9985
26.1505
27.339
28.5652
29.83
31.1345
32.4798
33.8667
35.2964
36.77
38.2883
39.8527
41.4641
43.1236
44.8325
46.5918
48.4026
50.2661
52.1833
54.1553
56.1831
58.2676
60.4098
62.6105
64.8703
67.1901
69.5704
72.0116
74.5141
77.0781
79.7038
82.3911
85.1398
87.9497
90.8203
93.7509
96.7408
99.789
102.894
106.056
109.271
112.54
115.859
119.227
122.643
126.103
129.605
133.148
136.727
140.341
143.986
147.66
151.36
155.082
158.823
162.581
166.35
170.13
173.914
177.701
181.486
185.254
189
192.716
196.395
200.031
203.618
207.148
210.617
214.017
217.342
220.587
223.744
226.808
229.772
232.632
235.38
238.012
240.523
242.907
245.159
247.276
249.252
251.084
252.768
254.301
255.68
256.903
257.967
258.871
259.613
260.192
260.607
260.858
260.946
260.87
260.632
260.233
259.674
258.959
258.088
257.066
255.894
254.576
253.118
251.521
249.791
247.932
245.948
243.846
241.631
239.306
236.876
234.354
231.739
229.028
226.25
223.402
220.484
217.512
214.488
211.417
208.308
205.166
201.997
198.81
195.613
192.418
189.24
186.092
182.975
179.883
176.813
173.763
170.737
167.736
164.764
161.826
158.929
156.083
153.304
150.616
148.061
145.711
143.647
142.011
12.7847
6.28694
5.11379
4.80205
4.78003
4.90449
5.12514
5.42037
5.77882
6.1927
6.65491
7.15802
7.69429
8.25615
8.83707
9.43221
10.0388
10.6563
11.286
11.9305
12.5931
13.2775
13.9872
14.7252
15.4939
16.2953
17.1309
18.0017
18.9084
19.8515
20.8315
21.8486
22.9031
23.9956
25.1265
26.2964
27.5062
28.7567
30.0488
31.3836
32.7621
34.1856
35.655
37.1717
38.737
40.3522
42.0186
43.7376
45.5108
47.3396
49.2253
51.1696
53.1739
55.2395
57.3679
59.5605
61.8185
64.1431
66.5355
68.9968
71.5278
74.1294
76.8023
79.5469
82.3637
85.2528
88.2143
91.2481
94.3537
97.5308
100.778
104.096
107.481
110.934
114.453
118.035
121.678
125.381
129.142
132.957
136.823
140.738
144.699
148.703
152.746
156.824
160.934
165.073
169.235
173.417
177.615
181.825
186.041
190.259
194.47
198.659
202.82
206.945
211.028
215.061
219.038
222.95
226.791
230.554
234.232
237.816
241.301
244.679
247.943
251.087
254.105
256.99
259.737
262.34
264.793
267.091
269.23
271.206
273.014
274.652
276.116
277.404
278.513
279.443
280.19
280.755
281.138
281.337
281.354
281.189
280.844
280.321
279.622
278.749
277.707
276.497
275.123
273.59
271.903
270.066
268.085
265.963
263.705
261.323
258.819
256.194
253.458
250.627
247.701
244.682
241.586
238.417
235.178
231.881
228.53
225.132
221.694
218.222
214.724
211.207
207.679
204.15
200.63
197.131
193.655
190.202
186.773
183.369
179.992
176.646
173.336
170.069
166.851
163.695
160.616
157.642
154.811
152.184
149.813
147.784
14.5362
7.11492
5.73366
5.33987
5.27401
5.36855
5.56364
5.83295
6.16273
6.54412
6.97008
7.43405
7.92974
8.45134
8.99398
9.55423
10.1302
10.7218
11.3302
11.9575
12.6066
13.2804
13.9818
14.7133
15.4771
16.2748
17.108
17.9778
18.885
19.8305
20.8149
21.8389
22.9031
24.0083
25.1551
26.3444
27.577
28.8539
30.1761
31.5448
32.9611
34.4264
35.9421
37.5097
39.1306
40.8066
42.5393
44.3305
46.1821
48.0958
50.0736
52.1173
54.2289
56.4102
58.6631
60.9894
63.3908
65.869
68.4256
71.062
73.7795
76.5793
79.4626
82.4299
85.4822
88.6197
91.8428
95.1513
98.5452
102.024
105.587
109.232
112.96
116.768
120.654
124.617
128.653
132.761
136.938
141.18
145.485
149.848
154.267
158.737
163.255
167.815
172.415
177.048
181.71
186.397
191.102
195.821
200.548
205.277
209.986
214.668
219.316
223.922
228.479
232.977
237.409
241.766
246.04
250.223
254.307
258.283
262.143
265.88
269.486
272.954
276.277
279.447
282.458
285.304
287.98
290.478
292.795
294.925
296.865
298.612
300.162
301.512
302.661
303.607
304.348
304.884
305.216
305.342
305.264
304.985
304.504
303.825
302.951
301.886
300.634
299.197
297.58
295.786
293.826
291.704
289.425
286.99
284.407
281.694
278.852
275.885
272.801
269.613
266.324
262.941
259.474
255.93
252.315
248.638
244.907
241.127
237.306
233.452
229.572
225.672
221.762
217.848
213.941
210.05
206.179
202.332
198.51
194.718
190.958
187.236
183.557
179.928
176.358
172.86
169.451
166.157
163.012
160.067
157.354
154.925
15.8832
7.77789
6.23278
5.77097
5.66643
5.73269
5.90231
6.1453
6.44612
6.7953
7.18602
7.61262
8.07011
8.55417
9.06133
9.58921
10.1367
10.7037
11.2914
11.9016
12.5365
13.1985
13.8899
14.6131
15.3699
16.162
16.991
17.8581
18.7644
19.711
20.699
21.7292
22.8026
23.9201
25.0828
26.2917
27.5478
28.8523
30.2065
31.6117
33.0693
34.581
36.1483
37.7732
39.4574
41.2031
43.0122
44.887
46.8298
48.8428
50.9285
53.0891
55.3271
57.645
60.045
62.5294
65.1006
67.7606
70.5115
73.3552
76.2934
79.3278
82.4597
85.6903
89.0204
92.4509
95.982
99.614
103.347
107.179
111.111
115.142
119.269
123.491
127.806
132.212
136.705
141.283
145.941
150.678
155.488
160.368
165.313
170.318
175.38
180.492
185.65
190.848
196.079
201.339
206.62
211.916
217.221
222.519
227.788
233.023
238.216
243.359
248.442
253.455
258.39
263.236
267.985
272.627
277.152
281.552
285.817
289.94
293.91
297.721
301.365
304.833
308.119
311.216
314.117
316.816
319.308
321.588
323.651
325.495
327.117
328.513
329.683
330.623
331.335
331.816
332.067
332.09
331.886
331.457
330.805
329.933
328.846
327.548
326.045
324.339
322.436
320.336
318.058
315.606
312.984
310.198
307.256
304.169
300.945
297.589
294.111
290.52
286.823
283.028
279.145
275.182
271.146
267.046
262.89
258.685
254.44
250.161
245.856
241.534
237.2
232.865
228.535
224.22
219.925
215.655
211.415
207.208
203.04
198.916
194.842
190.828
186.882
183.017
179.252
175.61
172.123
168.83
165.749
162.919
16.8964
8.28841
6.61389
6.09541
5.95685
5.99706
6.14261
6.36069
6.63441
6.95391
7.31263
7.70568
8.1291
8.57972
9.05511
9.55371
10.0748
10.6187
11.1862
11.7788
12.3984
13.0471
13.7268
14.4396
15.1874
15.9719
16.7948
17.6575
18.5616
19.5082
20.4988
21.5346
22.6168
23.7468
24.9258
26.1552
27.4363
28.7706
30.1597
31.6051
33.1087
34.6725
36.2984
37.9886
39.7455
41.5715
43.4691
45.4412
47.4903
49.6194
51.8314
54.1292
56.5158
58.994
61.5669
64.2373
67.0079
69.8815
72.8606
75.9475
79.1444
82.4533
85.876
89.4138
93.068
96.8395
100.729
104.736
108.861
113.103
117.461
121.934
126.521
131.218
136.024
140.935
145.948
151.06
156.265
161.561
166.941
172.402
177.938
183.544
189.213
194.941
200.721
206.545
212.408
218.302
224.22
230.152
236.092
242.002
247.878
253.71
259.49
265.208
270.854
276.416
281.883
287.245
292.491
297.611
302.594
307.43
312.11
316.623
320.961
325.115
329.076
332.835
336.386
339.722
342.834
345.716
348.363
350.769
352.931
354.845
356.508
357.919
359.075
359.976
360.621
361.008
361.141
361.02
360.647
360.027
359.161
358.051
356.705
355.129
353.329
351.31
349.078
346.637
344.001
341.176
338.169
334.988
331.641
328.139
324.491
320.705
316.789
312.755
308.61
304.364
300.026
295.605
291.11
286.55
281.933
277.269
272.564
267.827
263.066
258.288
253.502
248.715
243.936
239.172
234.43
229.717
225.037
220.397
215.801
211.256
206.77
202.351
198.011
193.761
189.62
185.611
181.759
178.098
174.633
171.398
17.6011
8.65684
6.88495
6.3204
6.15238
6.1691
6.29266
6.48814
6.73765
7.03104
7.36196
7.72604
8.12011
8.54178
8.98939
9.46194
9.95913
10.4812
11.0292
11.6042
12.208
12.8423
13.5091
14.2104
14.948
15.7239
16.5398
17.3976
18.2991
19.2458
20.2394
21.2817
22.3741
23.5185
24.7164
25.9695
27.2797
28.6487
30.0786
31.5713
33.1292
34.7546
36.4499
38.2179
40.0614
41.9834
43.987
46.0755
48.2522
50.5206
52.8841
55.3463
57.9107
60.5809
63.3604
66.2526
69.2609
72.3884
75.6383
79.0132
82.5157
86.1483
89.9128
93.8111
97.8443
102.013
106.319
110.761
115.34
120.054
124.902
129.883
134.994
140.232
145.595
151.079
156.679
162.391
168.209
174.129
180.144
186.249
192.439
198.705
205.043
211.445
217.903
224.411
230.959
237.541
244.146
250.766
257.363
263.922
270.434
276.891
283.281
289.594
295.818
301.941
307.95
313.831
319.575
325.169
330.602
335.864
340.944
345.831
350.515
354.988
359.239
363.26
367.044
370.584
373.872
376.899
379.659
382.148
384.364
386.302
387.961
389.338
390.432
391.243
391.771
392.013
391.975
391.658
391.066
390.202
389.071
387.676
386.025
384.125
381.982
379.603
376.995
374.167
371.127
367.885
364.45
360.831
357.038
353.08
348.968
344.712
340.322
335.808
331.18
326.448
321.622
316.711
311.727
306.677
301.571
296.418
291.227
286.007
280.765
275.509
270.248
264.989
259.74
254.511
249.307
244.135
239.002
233.914
228.878
223.901
218.99
214.156
209.408
204.761
200.232
195.841
191.611
187.568
183.711
180.071
18.0293
8.89711
7.05785
6.45749
6.26465
6.26067
6.36466
6.54022
6.76877
7.03993
7.34746
7.68734
8.05687
8.45422
8.87821
9.32825
9.80429
10.3068
10.8366
11.3949
11.9834
12.6039
13.2581
13.9482
14.6762
15.4443
16.2546
17.1091
18.0101
18.9595
19.9596
21.0123
22.1198
23.2841
24.5075
25.7921
27.1403
28.5542
30.0365
31.5898
33.2168
34.9203
36.7037
38.57
40.5228
42.5657
44.7025
46.937
49.2733
51.7155
54.2678
56.9343
59.7191
62.6264
65.6602
68.8246
72.1234
75.5603
79.1386
82.8617
86.7323
90.7529
94.9258
99.2527
103.735
108.373
113.168
118.118
123.225
128.485
133.898
139.461
145.171
151.025
157.018
163.147
169.405
175.787
182.286
188.895
195.609
202.42
209.321
216.305
223.365
230.491
237.677
244.913
252.191
259.501
266.832
274.148
281.419
288.638
295.795
302.878
309.877
316.778
323.57
330.24
336.77
343.147
349.359
355.395
361.242
366.89
372.326
377.54
382.521
387.26
391.747
395.974
399.932
403.615
407.02
410.128
412.937
415.444
417.647
419.543
421.13
422.407
423.372
424.027
424.371
424.406
424.136
423.562
422.691
421.526
420.072
418.337
416.326
414.047
411.509
408.72
405.687
402.421
398.932
395.229
391.323
387.225
382.944
378.493
373.881
369.121
364.222
359.197
354.056
348.809
343.468
338.043
332.545
326.982
321.366
315.706
310.011
304.289
298.549
292.8
287.05
281.307
275.578
269.872
264.197
258.56
252.968
247.427
241.945
236.53
231.189
225.933
220.773
215.723
210.799
206.019
201.404
196.974
192.722
188.682
18.2189
9.02609
7.14678
6.52048
6.30758
6.28594
6.37304
6.5316
6.74261
6.99555
7.28421
7.60476
7.95478
8.33274
8.73778
9.16959
9.62832
10.1145
10.6293
11.1738
11.7497
12.3589
13.0035
13.6857
14.4078
15.1723
15.9817
16.8385
17.7454
18.7049
19.7197
20.7924
21.9257
23.1223
24.385
25.7166
27.12
28.5982
30.1545
31.7921
33.5144
35.3252
37.2282
39.2274
41.3271
43.5316
45.8454
48.2732
50.8197
53.4898
56.2884
59.2202
62.2898
65.5017
68.8605
72.3708
76.0367
79.8623
83.8512
88.0066
92.3316
96.8285
101.499
106.346
111.369
116.568
121.944
127.496
133.221
139.119
145.186
151.419
157.814
164.366
171.07
177.922
184.914
192.038
199.286
206.648
214.119
221.69
229.354
237.101
244.924
252.814
260.76
268.755
276.789
284.85
292.895
300.888
308.819
316.679
324.454
332.132
339.701
347.148
354.459
361.627
368.622
375.432
382.046
388.453
394.64
400.596
406.309
411.767
416.961
421.88
426.514
430.856
434.898
438.632
442.052
445.148
447.917
450.355
452.459
454.226
455.657
456.749
457.504
457.922
458.005
457.755
457.177
456.275
455.053
453.518
451.677
449.535
447.102
444.387
441.397
438.143
434.635
430.882
426.897
422.689
418.271
413.654
408.85
403.87
398.727
393.432
387.998
382.436
376.758
370.976
365.101
359.143
353.115
347.026
340.887
334.708
328.498
322.266
316.022
309.774
303.53
297.298
291.087
284.904
278.758
272.656
266.605
260.613
254.687
248.835
243.067
237.392
231.822
226.369
221.051
215.883
210.882
206.067
201.426
196.994
18.212
9.06211
7.16679
6.52402
6.29605
6.26027
6.33365
6.47864
6.67603
6.91525
7.19008
7.49679
7.83307
8.19758
8.58965
9.00916
9.45643
9.93223
10.4377
10.9743
11.544
12.1487
12.7909
13.4732
14.1982
14.969
15.7885
16.66
17.5866
18.5717
19.6186
20.7307
21.9113
23.1639
24.4923
25.9
27.3908
28.9688
30.6378
32.4022
34.2662
36.2345
38.3116
40.5026
42.8124
45.2463
47.8096
50.5077
53.3462
56.3308
59.467
62.7602
66.2147
69.8351
73.6264
77.5932
81.7401
86.0707
90.5887
95.297
100.198
105.294
110.586
116.074
121.759
127.64
133.715
139.983
146.441
153.085
159.911
166.914
174.088
181.428
188.928
196.581
204.382
212.318
220.372
228.54
236.813
245.183
253.64
262.176
270.782
279.447
288.163
296.917
305.705
314.462
323.155
331.773
340.304
348.736
357.055
365.247
373.299
381.195
388.924
396.47
403.815
410.945
417.847
424.508
430.916
437.059
442.926
448.505
453.786
458.76
463.418
467.751
471.752
475.414
478.731
481.697
484.307
486.559
488.449
489.977
491.143
491.946
492.388
492.47
492.196
491.57
490.596
489.279
487.625
485.643
483.339
480.722
477.8
474.584
471.084
467.311
463.275
458.987
454.461
449.707
444.739
439.569
434.209
428.673
422.973
417.122
411.132
405.016
398.787
392.456
386.036
379.538
372.973
366.353
359.689
352.989
346.265
339.526
332.78
326.036
319.303
312.589
305.903
299.251
292.642
286.085
279.586
273.152
266.793
260.516
254.33
248.246
242.275
236.429
230.725
225.177
219.799
214.608
209.588
204.779
18.0529
9.02365
7.13284
6.48284
6.24552
6.20015
6.26423
6.40036
6.58944
6.82088
7.08852
7.38864
7.71902
8.07843
8.46635
8.88281
9.32837
9.80402
10.3112
10.8517
11.4277
12.0417
12.6967
13.3956
14.1419
14.9391
15.7911
16.7019
17.6758
18.7169
19.8298
21.0186
22.2877
23.6417
25.0853
26.6236
28.2614
30.004
31.8564
33.8242
35.9127
38.1276
40.4747
42.9598
45.5889
48.368
51.3032
54.4006
57.6663
61.1067
64.7281
68.5382
72.5366
76.7277
81.1169
85.7088
90.507
95.5146
100.734
106.167
111.815
117.679
123.757
130.049
136.554
143.268
150.189
157.312
164.632
172.144
179.842
187.719
195.768
203.98
212.347
220.86
229.511
238.286
247.175
256.167
265.253
274.422
283.666
292.974
302.337
311.748
321.196
330.66
340.062
349.385
358.615
367.738
376.741
385.609
394.328
402.885
411.264
419.452
427.434
435.196
442.723
450
457.015
463.754
470.207
476.361
482.205
487.73
492.925
497.782
502.293
506.449
510.245
513.674
516.731
519.412
521.713
523.632
525.168
526.32
527.089
527.475
527.482
527.113
526.371
525.261
523.79
521.963
519.788
517.274
514.428
511.261
507.782
504.003
499.934
495.586
490.973
486.107
481
475.665
470.115
464.365
458.427
452.314
446.041
439.62
433.065
426.388
419.604
412.724
405.76
398.724
391.629
384.486
377.304
370.096
362.869
355.635
348.402
341.179
333.974
326.796
319.652
312.55
305.499
298.506
291.578
284.724
277.951
271.268
264.684
258.21
251.856
245.635
239.561
233.648
227.91
222.36
216.981
211.814
17.7751
8.92527
7.05747
6.41025
6.17099
6.1228
6.18455
6.31944
6.50865
6.74174
7.01264
7.31772
7.65487
8.02302
8.42187
8.85174
9.31352
9.80862
10.3389
10.9068
11.5151
12.167
12.8663
13.6169
14.4229
15.2891
16.2207
17.2229
18.3015
19.4626
20.7126
22.0572
23.5005
25.0495
26.7108
28.4913
30.3975
32.4363
34.6144
36.9387
39.416
42.0531
44.8569
47.834
50.9911
54.3346
57.8708
61.6058
65.5454
69.695
74.0598
78.6441
83.4506
88.4819
93.741
99.2297
104.95
110.902
117.086
123.5
130.145
137.016
144.111
151.427
158.957
166.698
174.643
182.785
191.116
199.629
208.314
217.164
226.168
235.315
244.597
254.002
263.52
273.138
282.845
292.631
302.485
312.397
322.358
332.359
342.391
352.45
362.461
372.374
382.181
391.867
401.418
410.821
420.062
429.127
438.002
446.673
455.126
463.348
471.325
479.044
486.492
493.655
500.521
507.079
513.319
519.228
524.799
530.021
534.886
539.386
543.515
547.266
550.633
553.612
556.199
558.39
560.185
561.581
562.578
563.177
563.379
563.188
562.606
561.638
560.289
558.565
556.473
554.02
551.215
548.067
544.585
540.78
536.663
532.246
527.541
522.559
517.315
511.82
506.089
500.135
493.972
487.613
481.074
474.367
467.507
460.507
453.38
446.141
438.802
431.376
423.875
416.312
408.698
401.044
393.362
385.661
377.952
370.243
362.545
354.865
347.211
339.593
332.016
324.49
317.022
309.62
302.29
295.041
287.881
280.818
273.861
267.021
260.308
253.734
247.314
241.059
234.982
229.095
223.38
217.881
17.4659
8.80055
6.96726
6.33394
6.10411
6.06526
6.13799
6.28633
6.49188
6.74451
7.03839
7.37019
7.73814
8.1416
8.5808
9.05666
9.57079
10.1254
10.7233
11.368
12.063
12.8133
13.625
14.5028
15.4511
16.4772
17.5885
18.7926
20.0976
21.5117
23.0433
24.7007
26.492
28.426
30.5115
32.7575
35.1726
37.7655
40.5445
43.5176
46.6927
50.0771
53.6776
57.5007
61.5521
65.8371
70.3602
75.1252
80.1354
85.393
90.8997
96.656
102.661
108.915
115.415
122.158
129.142
136.363
143.816
151.497
159.398
167.513
175.837
184.359
193.073
201.97
211.041
220.276
229.665
239.198
248.865
258.654
268.556
278.559
288.652
298.825
309.067
319.367
329.714
340.099
350.515
360.949
371.398
381.857
392.252
402.519
412.661
422.661
432.507
442.186
451.685
460.991
470.092
478.975
487.627
496.036
504.189
512.076
519.683
527
534.014
540.715
547.092
553.136
558.836
564.184
569.172
573.792
578.037
581.901
585.378
588.463
591.153
593.443
595.331
596.816
597.897
598.573
598.846
598.717
598.19
597.267
595.954
594.255
592.176
589.725
586.909
583.737
580.217
576.36
572.177
567.677
562.873
557.776
552.401
546.758
540.862
534.727
528.365
521.791
515.019
508.063
500.937
493.655
486.232
478.68
471.013
463.245
455.389
447.457
439.461
431.415
423.327
415.211
407.077
398.934
390.792
382.661
374.549
366.464
358.414
350.407
342.45
334.551
326.717
318.955
311.273
303.678
296.178
288.782
281.497
274.334
267.304
260.419
253.69
247.131
240.752
234.565
228.551
222.758
17.1811
8.67542
6.88762
6.28357
6.08072
6.07083
6.17631
6.36217
6.61071
6.9124
7.26212
7.65732
8.09716
8.58212
9.11366
9.69411
10.3266
11.015
11.7641
12.5802
13.4657
14.4288
15.4779
16.6214
17.8681
19.2279
20.7115
22.33
24.0949
26.018
28.1109
30.3856
32.8533
35.5257
38.4136
41.5277
44.8777
48.4727
52.3207
56.4286
60.8025
65.4468
70.3651
75.5596
81.0312
86.7795
92.8032
99.0996
105.665
112.495
119.584
126.924
134.51
142.333
150.384
158.655
167.137
175.819
184.693
193.749
202.976
212.363
221.902
231.581
241.39
251.318
261.356
271.493
281.719
292.023
302.397
312.829
323.309
333.83
344.382
354.956
365.543
376.138
386.731
397.308
407.892
418.439
428.882
439.168
449.304
459.275
469.071
478.681
488.095
497.302
506.291
515.05
523.57
531.839
539.848
547.585
555.041
562.206
569.069
575.621
581.853
587.755
593.319
598.537
603.4
607.902
612.035
615.794
619.173
622.168
624.773
626.986
628.803
630.222
631.243
631.864