/*--------------------------------*- C++ -*----------------------------------*\
  =========                 |
  \\      /  F ield         | OpenFOAM: The Open Source CFD Toolbox
   \\    /   O peration     | Website:  https://openfoam.org
    \\  /    A nd           | Version:  12
     \\/     M anipulation  |
\*---------------------------------------------------------------------------*/
FoamFile
{
    format      ascii;
    class       volScalarField;
    location    "0.11";
    object      k;
}
// * * * * * * * * * * * * * * * * * * * * * * * * * * * * * * * * * * * * * //

dimensions      [0 2 -2 0 0 0 0];

internalField   nonuniform List<scalar> 
12225
(
0.353921
0.335043
0.316966
0.300961
0.288127
0.278909
0.273303
0.271012
0.27158
0.274491
0.279232
0.285333
0.292391
0.300068
0.308114
0.316316
0.324744
0.336987
0.436865
0.44898
0.438087
0.433067
0.438799
0.453607
0.474834
0.500032
0.527214
0.554895
0.582048
0.60801
0.632409
0.655073
0.676132
0.695487
0.715447
0.730933
0.395186
0.410873
0.410631
0.405747
0.402012
0.400928
0.402622
0.406821
0.413103
0.42101
0.430111
0.440027
0.450448
0.461137
0.471963
0.482824
0.494065
0.505014
0.379641
0.384839
0.386546
0.38573
0.383905
0.382027
0.380569
0.379742
0.379612
0.380157
0.381315
0.383007
0.38515
0.387672
0.390525
0.39368
0.397171
0.400899
0.374976
0.3759
0.376239
0.37572
0.37457
0.373083
0.371496
0.369967
0.368594
0.367428
0.366488
0.365774
0.365277
0.364984
0.364883
0.364967
0.365237
0.365661
0.373488
0.372554
0.371759
0.370806
0.369631
0.368274
0.366808
0.365299
0.363802
0.362357
0.360989
0.359713
0.358537
0.357464
0.356494
0.355629
0.354868
0.354207
0.373012
0.371296
0.369812
0.368416
0.367025
0.365609
0.364167
0.36271
0.361255
0.359821
0.358422
0.357069
0.35577
0.354529
0.353351
0.352239
0.351194
0.350224
0.372865
0.370838
0.369004
0.36731
0.365711
0.364173
0.362678
0.361214
0.35978
0.358378
0.357011
0.355683
0.354397
0.353155
0.351961
0.350816
0.349723
0.348693
0.37282
0.37068
0.368691
0.366836
0.365094
0.363448
0.361879
0.360374
0.358926
0.357528
0.356179
0.354875
0.353616
0.352403
0.351234
0.35011
0.349034
0.348016
0.372806
0.370628
0.368578
0.366647
0.364828
0.36311
0.361481
0.359932
0.358455
0.357043
0.35569
0.354392
0.353147
0.351952
0.350805
0.349705
0.348652
0.347656
0.372801
0.370609
0.368537
0.366576
0.36472
0.362963
0.361298
0.359717
0.358214
0.356782
0.355417
0.354114
0.352869
0.351679
0.350541
0.349453
0.348414
0.347433
0.372799
0.370602
0.368522
0.366549
0.36468
0.362906
0.361224
0.359626
0.358107
0.356662
0.355286
0.353975
0.352725
0.351533
0.350395
0.349309
0.348274
0.347298
0.372797
0.370599
0.368514
0.366537
0.36466
0.362879
0.361188
0.35958
0.358052
0.356598
0.355214
0.353896
0.352641
0.351444
0.350304
0.349216
0.348181
0.347205
0.372796
0.370596
0.368509
0.366528
0.364649
0.362863
0.361167
0.359554
0.358021
0.356561
0.355172
0.353849
0.352589
0.351389
0.350245
0.349154
0.348116
0.347138
0.372795
0.370593
0.368505
0.366523
0.364641
0.362853
0.361154
0.359539
0.358002
0.35654
0.355147
0.353821
0.352558
0.351355
0.350208
0.349114
0.348073
0.347092
0.372795
0.370592
0.368502
0.366518
0.364634
0.362845
0.361144
0.359527
0.357989
0.356525
0.355131
0.353803
0.352538
0.351332
0.350183
0.349087
0.348044
0.347061
0.372794
0.37059
0.368499
0.366515
0.36463
0.362839
0.361137
0.359519
0.357979
0.356514
0.355118
0.353789
0.352523
0.351316
0.350165
0.349068
0.348022
0.347038
0.372794
0.37059
0.368498
0.366512
0.364627
0.362835
0.361132
0.359513
0.357972
0.356506
0.35511
0.35378
0.352512
0.351304
0.350152
0.349054
0.348007
0.347021
0.372793
0.370589
0.368497
0.366512
0.364626
0.362834
0.361131
0.359511
0.35797
0.356503
0.355106
0.353776
0.352507
0.351299
0.350146
0.349047
0.347999
0.347013
0.372794
0.37059
0.368498
0.366513
0.364628
0.362836
0.361134
0.359514
0.357974
0.356507
0.35511
0.35378
0.352512
0.351304
0.350151
0.349052
0.348004
0.347018
0.372794
0.370591
0.3685
0.366516
0.364632
0.362842
0.36114
0.359522
0.357983
0.356518
0.355123
0.353794
0.352528
0.351321
0.35017
0.349072
0.348026
0.347041
0.372795
0.370593
0.368504
0.366522
0.364642
0.362856
0.361159
0.359546
0.358013
0.356553
0.355164
0.353841
0.35258
0.351378
0.350231
0.349137
0.348094
0.347112
0.372796
0.370598
0.368518
0.366547
0.364681
0.362913
0.361235
0.359642
0.358128
0.356686
0.355313
0.354003
0.352753
0.351559
0.350418
0.349327
0.348285
0.347302
0.372804
0.370631
0.368592
0.366676
0.364872
0.363167
0.361548
0.360006
0.358533
0.357122
0.355768
0.354469
0.353221
0.352022
0.35087
0.349765
0.348704
0.347701
0.372856
0.370818
0.368973
0.367264
0.365645
0.364085
0.362567
0.361084
0.359632
0.358214
0.356834
0.355494
0.354198
0.352948
0.351746
0.350592
0.349489
0.348448
0.373166
0.37177
0.370579
0.369371
0.368049
0.366605
0.365072
0.363493
0.361906
0.360343
0.358827
0.357373
0.355992
0.354689
0.353469
0.35233
0.351272
0.350303
0.374797
0.375829
0.376175
0.375401
0.373834
0.371876
0.369792
0.36774
0.365813
0.364066
0.362523
0.361193
0.360073
0.359154
0.358421
0.357859
0.357451
0.357183
0.382729
0.391671
0.392376
0.388806
0.384385
0.380403
0.377246
0.374996
0.373618
0.373033
0.373145
0.373856
0.37507
0.3767
0.378665
0.380897
0.383336
0.385912
0.407499
0.414513
0.405422
0.39599
0.390551
0.389285
0.391445
0.3962
0.402814
0.410696
0.419395
0.42857
0.437969
0.447401
0.456733
0.465869
0.474765
0.483334
0.360554
0.347547
0.334933
0.322917
0.311964
0.302352
0.294189
0.287469
0.282112
0.278
0.274995
0.272959
0.271755
0.27126
0.271359
0.271951
0.27295
0.274272
0.00358742
0.0140511
0.0209057
0.0265908
0.0316563
0.036552
0.0418363
0.0476775
0.0542512
0.0617033
0.07015
0.0793242
0.0885471
0.0975511
0.106073
0.113892
0.120838
0.126793
0.131692
0.135522
0.138306
0.140086
0.140967
0.141297
0.141431
0.13929
0.14212
0.141942
0.140831
0.144018
0.144854
0.145291
0.14363
0.145522
0.146159
0.152404
0.158984
0.165701
0.172527
0.179455
0.186484
0.193613
0.200847
0.208189
0.215645
0.22322
0.230917
0.238742
0.246698
0.254788
0.263015
0.271382
0.27989
0.288539
0.297331
0.306263
0.315336
0.324549
0.333897
0.34338
0.352994
0.362735
0.372598
0.38258
0.392675
0.402878
0.413183
0.423583
0.434072
0.444643
0.455289
0.466002
0.476775
0.4876
0.498468
0.509372
0.520303
0.531252
0.542211
0.55317
0.56412
0.575052
0.585957
0.596825
0.607647
0.618412
0.629111
0.639733
0.650268
0.660706
0.671036
0.681249
0.691336
0.701291
0.711115
0.720814
0.730415
0.739963
0.749293
0.758406
0.767302
0.77597
0.784403
0.792587
0.800512
0.808165
0.815537
0.822616
0.829391
0.835853
0.841991
0.847797
0.853261
0.858376
0.863132
0.867523
0.871542
0.875184
0.878441
0.881309
0.883784
0.885863
0.887541
0.888817
0.889688
0.890154
0.890214
0.889868
0.889119
0.887967
0.886415
0.884466
0.882125
0.879396
0.876284
0.872795
0.868937
0.864717
0.860143
0.855224
0.849969
0.844389
0.838493
0.832293
0.825801
0.819028
0.811988
0.804693
0.797156
0.789391
0.781413
0.773233
0.764867
0.756331
0.747636
0.7388
0.729838
0.720748
0.711583
0.702312
0.692997
0.683708
0.674929
0.669613
0.665273
0.660983
0.656696
0.652411
0.648132
0.643863
0.639603
0.635348
0.631087
0.626794
0.622416
0.617851
0.612863
0.606856
0.598257
0.581272
0.00783494
0.0248246
0.0356639
0.0440138
0.0513536
0.0583949
0.0653543
0.0726092
0.0804165
0.0888145
0.0978338
0.107335
0.117054
0.126724
0.136102
0.144995
0.153265
0.160835
0.167693
0.173883
0.179497
0.184685
0.189695
0.194833
0.200211
0.205639
0.211859
0.218523
0.225279
0.233159
0.241569
0.250756
0.261495
0.272405
0.283631
0.294789
0.305834
0.317099
0.328605
0.340336
0.352278
0.364429
0.37679
0.389366
0.402161
0.415185
0.428443
0.441944
0.455693
0.469699
0.483966
0.4985
0.513305
0.528385
0.543743
0.559381
0.5753
0.5915
0.607981
0.624741
0.641777
0.659088
0.676668
0.694512
0.712617
0.730974
0.749577
0.768419
0.78749
0.806782
0.826285
0.845988
0.865882
0.885953
0.906191
0.926584
0.947117
0.967779
0.988555
1.00943
1.03039
1.05143
1.07252
1.09365
1.11481
1.13598
1.15714
1.17828
1.19938
1.22043
1.2414
1.26228
1.28305
1.30369
1.32418
1.3445
1.36462
1.38427
1.40363
1.42271
1.44149
1.45997
1.47811
1.4959
1.51331
1.53032
1.54691
1.56305
1.57873
1.59392
1.6086
1.62275
1.63636
1.64939
1.66184
1.67369
1.68492
1.69552
1.70546
1.71474
1.72335
1.73126
1.73848
1.74498
1.75077
1.75583
1.76016
1.76376
1.76661
1.76872
1.77008
1.77071
1.77058
1.76972
1.76813
1.7658
1.76275
1.75899
1.75452
1.74936
1.74351
1.737
1.72983
1.72203
1.71361
1.70458
1.69497
1.6848
1.67409
1.66285
1.65113
1.63893
1.62628
1.61321
1.59974
1.58591
1.57174
1.55721
1.54246
1.52737
1.5121
1.49677
1.48147
1.4667
1.45205
1.43735
1.42259
1.40779
1.39295
1.37809
1.36323
1.34835
1.33347
1.31857
1.30363
1.28861
1.27338
1.2579
1.24109
1.22067
0.0137443
0.0370583
0.0509492
0.0613986
0.0705615
0.0789718
0.0871242
0.0954039
0.104068
0.113246
0.122955
0.133102
0.14351
0.153972
0.164293
0.174319
0.183951
0.193156
0.201964
0.210461
0.218774
0.227063
0.235501
0.244236
0.253332
0.262828
0.272893
0.283513
0.294663
0.306468
0.318889
0.331904
0.345481
0.359438
0.37366
0.388029
0.402552
0.417299
0.432299
0.447557
0.463072
0.478849
0.494892
0.511208
0.527806
0.544693
0.561878
0.57937
0.597176
0.615304
0.63376
0.65255
0.67168
0.691152
0.710969
0.731134
0.751647
0.772507
0.793714
0.815264
0.837154
0.85938
0.881937
0.904817
0.928013
0.951517
0.97532
0.999412
1.02378
1.04842
1.07331
1.09843
1.12379
1.14936
1.17512
1.20107
1.22718
1.25343
1.27982
1.30632
1.33292
1.35959
1.38633
1.4131
1.43989
1.46667
1.49344
1.52017
1.54684
1.57343
1.59992
1.62628
1.65251
1.67857
1.70446
1.73015
1.75552
1.78054
1.80522
1.82956
1.85352
1.87709
1.90023
1.92292
1.94513
1.96682
1.98797
2.00856
2.02854
2.0479
2.06661
2.08465
2.10198
2.11858
2.13444
2.14952
2.1638
2.17728
2.18992
2.20171
2.21264
2.22268
2.23183
2.24007
2.24739
2.25378
2.25923
2.26375
2.26731
2.26993
2.27159
2.27231
2.27207
2.27089
2.26877
2.26572
2.26174
2.25685
2.25106
2.24438
2.23683
2.22842
2.21918
2.20912
2.19827
2.18664
2.17427
2.16118
2.14739
2.13293
2.11783
2.10213
2.08583
2.06901
2.05166
2.03383
2.01558
1.9968
1.97781
1.95849
1.93891
1.91916
1.89935
1.87969
1.86005
1.84032
1.82051
1.80063
1.7807
1.76075
1.74079
1.72084
1.70091
1.68102
1.66118
1.64142
1.62176
1.60238
1.58296
1.56367
0.0210236
0.0505281
0.0669651
0.0790939
0.0893399
0.0986561
0.107629
0.116637
0.125931
0.135653
0.145842
0.156444
0.167336
0.178362
0.189373
0.200248
0.210921
0.221381
0.231673
0.241888
0.252147
0.262583
0.273323
0.284471
0.296094
0.308238
0.320951
0.334245
0.348112
0.362546
0.377521
0.39299
0.408895
0.425163
0.441727
0.458535
0.475579
0.492872
0.510432
0.528269
0.546393
0.564812
0.583535
0.602573
0.621935
0.641631
0.661671
0.682065
0.702821
0.723949
0.745456
0.767347
0.78963
0.812308
0.835386
0.858864
0.882746
0.90703
0.931715
0.9568
0.98228
1.00815
1.03441
1.06104
1.08805
1.11542
1.14313
1.17119
1.19958
1.22828
1.25727
1.28656
1.31611
1.34591
1.37595
1.4062
1.43665
1.46727
1.49805
1.52897
1.56
1.59113
1.62232
1.65356
1.68483
1.7161
1.74735
1.77856
1.8097
1.84074
1.87168
1.90248
1.93312
1.96357
1.99382
2.02383
2.05346
2.08272
2.1116
2.14007
2.1681
2.19566
2.22272
2.24924
2.27519
2.30053
2.32523
2.34926
2.37258
2.39516
2.41697
2.43798
2.45816
2.47747
2.4959
2.51342
2.53
2.54561
2.56025
2.57388
2.58648
2.59805
2.60856
2.61801
2.62637
2.63363
2.6398
2.64486
2.6488
2.65163
2.65334
2.65394
2.65343
2.65181
2.64908
2.64527
2.64037
2.6344
2.62738
2.61933
2.61025
2.60018
2.58912
2.57712
2.56419
2.55035
2.53564
2.52009
2.50372
2.48656
2.46867
2.45007
2.43075
2.41084
2.39029
2.36917
2.34761
2.32555
2.30313
2.28033
2.25722
2.23387
2.21038
2.18686
2.16327
2.13958
2.11579
2.09191
2.06797
2.04401
2.02005
1.99612
1.97226
1.94851
1.92491
1.90158
1.87865
1.85645
1.83505
1.81504
0.0292489
0.0635852
0.0824437
0.0959733
0.107172
0.117257
0.126864
0.13639
0.146096
0.156136
0.166575
0.177395
0.188521
0.199848
0.211269
0.222704
0.23411
0.245496
0.25691
0.268438
0.280182
0.29225
0.304736
0.317713
0.33123
0.345313
0.359972
0.375205
0.390992
0.407307
0.424116
0.441379
0.459054
0.477097
0.49547
0.514145
0.533112
0.552373
0.571935
0.591809
0.612004
0.632531
0.653401
0.674625
0.696215
0.718182
0.740538
0.763293
0.786457
0.810042
0.834054
0.858503
0.883396
0.908738
0.934535
0.960789
0.987504
1.01468
1.04232
1.07041
1.09897
1.12798
1.15743
1.18732
1.21765
1.2484
1.27956
1.31112
1.34306
1.37538
1.40805
1.44106
1.47439
1.50802
1.54193
1.5761
1.61051
1.64513
1.67995
1.71493
1.75005
1.78529
1.82062
1.85602
1.89145
1.9269
1.96233
1.99772
2.03304
2.06827
2.10337
2.13833
2.1731
2.20767
2.242
2.27601
2.30961
2.34279
2.37555
2.40783
2.43962
2.47086
2.50152
2.53157
2.56096
2.58965
2.6176
2.64478
2.67114
2.69666
2.72129
2.745
2.76775
2.78952
2.81027
2.82997
2.8486
2.86612
2.88252
2.89778
2.91186
2.92475
2.93644
2.94691
2.95614
2.96413
2.97086
2.97633
2.98054
2.98348
2.98515
2.98556
2.9847
2.98259
2.97923
2.97463
2.96881
2.96179
2.95357
2.94418
2.93364
2.92197
2.9092
2.89536
2.88047
2.86456
2.84766
2.82982
2.81106
2.7914
2.77092
2.74964
2.72752
2.70478
2.68137
2.65735
2.63277
2.60767
2.5821
2.55611
2.52976
2.5031
2.47622
2.4492
2.42205
2.39476
2.36734
2.33983
2.31225
2.28465
2.25707
2.22954
2.20213
2.1749
2.14795
2.12144
2.09558
2.0708
2.04728
2.02554
0.0371706
0.0758117
0.0966657
0.111411
0.123512
0.134283
0.14441
0.154314
0.164274
0.174465
0.184979
0.195837
0.207012
0.218445
0.230076
0.241859
0.253776
0.265845
0.278113
0.290652
0.303541
0.31686
0.330673
0.34503
0.359959
0.375468
0.391555
0.408206
0.425397
0.443101
0.461287
0.479923
0.498978
0.518424
0.538237
0.558401
0.578906
0.599753
0.620945
0.64249
0.664398
0.68668
0.709347
0.732412
0.755886
0.779784
0.804117
0.828898
0.854139
0.879851
0.906045
0.932731
0.959918
0.987613
1.01582
1.04455
1.07381
1.10359
1.1339
1.16474
1.19611
1.22799
1.2604
1.29332
1.32674
1.36065
1.39504
1.42991
1.46522
1.50098
1.53715
1.57373
1.61069
1.648
1.68565
1.72362
1.76187
1.80038
1.83912
1.87807
1.91719
1.95647
1.99586
2.03533
2.07487
2.11443
2.15398
2.1935
2.23295
2.2723
2.31151
2.35056
2.38941
2.42803
2.46638
2.50431
2.5418
2.57884
2.61538
2.65139
2.68684
2.72167
2.75585
2.78932
2.82205
2.85399
2.8851
2.91532
2.94463
2.97297
3.00032
3.02662
3.05185
3.07596
3.09892
3.1207
3.14127
3.16059
3.17865
3.19541
3.21086
3.22498
3.23774
3.24914
3.25915
3.26777
3.27498
3.28078
3.28517
3.28814
3.2897
3.28985
3.28859
3.28594
3.2819
3.27649
3.26972
3.26161
3.25218
3.24145
3.22945
3.2162
3.20172
3.18607
3.16926
3.15132
3.13228
3.11222
3.09115
3.06903
3.04606
3.02223
2.99755
2.97212
2.94596
2.91911
2.89165
2.8636
2.83503
2.80598
2.7765
2.74666
2.71654
2.68619
2.65565
2.62493
2.59407
2.5631
2.53205
2.50099
2.46995
2.439
2.40822
2.37769
2.34755
2.318
2.28931
2.26192
2.23602
2.21195
0.0444128
0.0864436
0.109004
0.124926
0.137886
0.149288
0.159865
0.170067
0.180192
0.190439
0.200932
0.21173
0.222851
0.234281
0.245999
0.25799
0.270256
0.282818
0.295719
0.309011
0.322753
0.336998
0.351789
0.367153
0.383105
0.399645
0.416764
0.434444
0.452665
0.471401
0.490626
0.510318
0.530452
0.55101
0.571975
0.593337
0.615091
0.637234
0.659772
0.68271
0.706057
0.729825
0.754025
0.778671
0.803775
0.829353
0.855417
0.881983
0.909064
0.936673
0.964823
0.993527
1.02279
1.05264
1.08306
1.11408
1.14569
1.1779
1.21072
1.24414
1.27816
1.31279
1.34801
1.38382
1.42022
1.45719
1.49472
1.5328
1.57141
1.61053
1.65015
1.69024
1.73078
1.77174
1.81311
1.85484
1.89692
1.9393
1.98197
2.02489
2.06802
2.11133
2.15479
2.19836
2.24201
2.2857
2.3294
2.37306
2.41666
2.46015
2.50349
2.54666
2.5896
2.63228
2.67462
2.71648
2.75787
2.79874
2.83905
2.87878
2.91786
2.95626
2.99392
3.03079
3.06682
3.10196
3.13617
3.16939
3.20158
3.23269
3.26269
3.29152
3.31914
3.34553
3.37062
3.3944
3.41683
3.43787
3.4575
3.4757
3.49243
3.50768
3.52143
3.53367
3.54437
3.55353
3.56114
3.56719
3.57168
3.57461
3.57599
3.57581
3.57409
3.57084
3.56606
3.55978
3.55201
3.54277
3.53209
3.52
3.50652
3.49166
3.47547
3.45801
3.43929
3.41932
3.39815
3.37589
3.35255
3.32814
3.30276
3.27644
3.24921
3.22115
3.1923
3.16271
3.13243
3.10151
3.07
3.03796
3.00544
2.97251
2.93923
2.90565
2.87184
2.83781
2.80361
2.76928
2.73488
2.70046
2.66607
2.63181
2.59775
2.56402
2.53078
2.49825
2.46672
2.43662
2.40808
2.38134
0.0504746
0.095153
0.119261
0.136254
0.149999
0.161978
0.172961
0.18342
0.193674
0.203947
0.214389
0.225098
0.236126
0.247502
0.259236
0.271339
0.283826
0.296721
0.310058
0.323875
0.338211
0.3531
0.368568
0.384629
0.401288
0.418542
0.43638
0.454786
0.473741
0.493226
0.513222
0.533709
0.554672
0.576097
0.597973
0.620294
0.643056
0.66626
0.689908
0.714009
0.73857
0.763604
0.789122
0.815138
0.841668
0.868726
0.896328
0.924491
0.95323
0.98256
1.0125
1.04306
1.07425
1.10609
1.13859
1.17176
1.2056
1.24013
1.27534
1.31124
1.34783
1.38512
1.42308
1.46173
1.50105
1.54102
1.58165
1.62291
1.66479
1.70726
1.75031
1.79391
1.83804
1.88266
1.92775
1.97327
2.0192
2.06549
2.11211
2.15903
2.2062
2.25359
2.30116
2.34886
2.39666
2.44452
2.49239
2.54024
2.58801
2.63568
2.68318
2.73049
2.77755
2.82432
2.87062
2.91642
2.96169
3.00639
3.05047
3.09389
3.13659
3.17852
3.21962
3.25984
3.29913
3.33742
3.37467
3.41083
3.44583
3.47965
3.51221
3.54349
3.57343
3.602
3.62914
3.65483
3.67902
3.70168
3.72279
3.74231
3.76023
3.77651
3.79115
3.80413
3.81543
3.82503
3.83294
3.83915
3.84365
3.84645
3.84756
3.84697
3.84471
3.84078
3.8352
3.82799
3.81917
3.80874
3.79677
3.78327
3.76828
3.75179
3.73386
3.71457
3.69394
3.67199
3.64878
3.62437
3.5988
3.5721
3.54435
3.51558
3.48585
3.45522
3.42373
3.39144
3.3584
3.32467
3.2903
3.25535
3.21986
3.1839
3.14754
3.11084
3.07384
3.0366
2.99917
2.96159
2.92392
2.88623
2.8486
2.8111
2.77386
2.737
2.7007
2.66521
2.63082
2.59791
2.56656
2.53691
0.0551421
0.102028
0.127418
0.145321
0.159749
0.172239
0.183588
0.194285
0.204665
0.214969
0.225373
0.236
0.246937
0.25824
0.269949
0.282091
0.294693
0.307779
0.321379
0.335518
0.350223
0.365513
0.381403
0.397901
0.415007
0.432716
0.451018
0.4699
0.489349
0.50935
0.529888
0.550951
0.572527
0.594608
0.617186
0.640259
0.663825
0.687886
0.712446
0.737514
0.763099
0.789212
0.815867
0.843079
0.870865
0.899241
0.928226
0.957836
0.988092
1.01901
1.05061
1.0829
1.11591
1.14965
1.18412
1.21935
1.25535
1.29211
1.32966
1.36799
1.4071
1.44699
1.48767
1.52912
1.57134
1.61432
1.65804
1.70248
1.74763
1.79347
1.83996
1.8871
1.93483
1.98314
2.03199
2.08133
2.13115
2.18138
2.23199
2.28295
2.3342
2.3857
2.4374
2.48927
2.54125
2.59329
2.64536
2.6974
2.74937
2.80121
2.85288
2.90433
2.95551
3.0063
3.05655
3.10626
3.15537
3.20385
3.25165
3.29871
3.34496
3.39035
3.43482
3.47831
3.52076
3.56211
3.6023
3.64128
3.67899
3.71539
3.75041
3.78401
3.81614
3.84676
3.87583
3.90329
3.92911
3.95326
3.9757
3.99642
4.01538
4.03257
4.04797
4.06156
4.07333
4.08326
4.09135
4.09759
4.102
4.10456
4.1053
4.10421
4.10131
4.09663
4.09017
4.08196
4.07202
4.06035
4.04703
4.03209
4.01555
3.99745
3.97782
3.95672
3.9342
3.91029
3.88504
3.85851
3.83074
3.80179
3.77171
3.74055
3.70837
3.67522
3.64116
3.60624
3.57053
3.53406
3.49691
3.45912
3.42076
3.38187
3.34253
3.3028
3.26274
3.2224
3.18183
3.1411
3.10028
3.05943
3.01865
2.97802
2.93767
2.89776
2.85847
2.82004
2.78277
2.74699
2.7127
2.68005
0.0586517
0.107197
0.133572
0.152197
0.167185
0.18011
0.191782
0.202701
0.213212
0.223567
0.233958
0.24453
0.25539
0.266619
0.278273
0.290397
0.303024
0.316181
0.329893
0.344181
0.359062
0.374548
0.390648
0.407365
0.4247
0.442648
0.461201
0.480352
0.500091
0.520408
0.541295
0.562742
0.584745
0.607298
0.630397
0.654043
0.678236
0.702981
0.728284
0.754154
0.780602
0.807641
0.835285
0.863552
0.89246
0.922028
0.952274
0.983221
1.01489
1.0473
1.08047
1.11442
1.14917
1.18474
1.22114
1.25838
1.29649
1.33547
1.37532
1.41605
1.45767
1.50018
1.54357
1.58784
1.63297
1.67896
1.72579
1.77344
1.8219
1.87113
1.92111
1.97181
2.02319
2.07522
2.12785
2.18106
2.23479
2.28899
2.34362
2.39863
2.45397
2.50959
2.56543
2.62146
2.67761
2.73383
2.79007
2.84628
2.90241
2.95839
3.01418
3.06972
3.12494
3.17963
3.23375
3.28726
3.34013
3.39229
3.44368
3.49425
3.54392
3.59264
3.64032
3.68693
3.73237
3.77661
3.81957
3.8612
3.90144
3.94023
3.97752
4.01326
4.04739
4.07988
4.11068
4.13973
4.16699
4.19244
4.21604
4.23777
4.25761
4.27553
4.29151
4.30555
4.31764
4.32774
4.33586
4.342
4.34618
4.34838
4.34863
4.34693
4.34329
4.33775
4.33033
4.32105
4.30994
4.29701
4.28233
4.26593
4.24785
4.22811
4.20678
4.18389
4.1595
4.13365
4.10639
4.07778
4.04787
4.01672
3.98437
3.95089
3.91633
3.88076
3.84421
3.80676
3.76847
3.72937
3.68955
3.64904
3.60791
3.56622
3.52403
3.4814
3.4384
3.3951
3.35154
3.3078
3.26395
3.22007
3.17626
3.13261
3.08928
3.0464
3.00419
2.96288
2.92274
2.88407
2.84681
2.81112
0.0610915
0.110807
0.137887
0.157048
0.172467
0.18574
0.197684
0.208802
0.219443
0.229864
0.240268
0.250809
0.261611
0.272766
0.284346
0.296405
0.308982
0.322109
0.335809
0.3501
0.364996
0.380507
0.39664
0.413397
0.43078
0.448786
0.467414
0.486657
0.506514
0.526978
0.548047
0.569716
0.591985
0.614852
0.638319
0.662387
0.687061
0.712348
0.738256
0.764796
0.791982
0.819828
0.848351
0.877569
0.907505
0.938177
0.96961
1.00183
1.03485
1.0687
1.1034
1.13898
1.17545
1.21283
1.25115
1.29041
1.33064
1.37184
1.41402
1.45719
1.50136
1.54651
1.59265
1.63978
1.68787
1.73692
1.78691
1.83782
1.88963
1.9423
1.9958
2.0501
2.10516
2.16094
2.2174
2.27448
2.33213
2.39031
2.44895
2.508
2.56741
2.62711
2.68705
2.74718
2.80743
2.86775
2.92809
2.98837
3.04855
3.10857
3.16837
3.22788
3.2869
3.34533
3.40314
3.46028
3.51669
3.57232
3.62711
3.68097
3.73384
3.78564
3.83631
3.88577
3.93397
3.98083
4.0263
4.07032
4.11281
4.15373
4.19302
4.23063
4.2665
4.3006
4.33287
4.36326
4.39171
4.41821
4.44273
4.46524
4.48571
4.50414
4.5205
4.53478
4.54699
4.55708
4.56505
4.57093
4.57471
4.57641
4.57604
4.57361
4.56915
4.56267
4.55422
4.54381
4.53148
4.51725
4.50118
4.48331
4.46367
4.44231
4.41928
4.39463
4.3684
4.34066
4.31145
4.28082
4.24885
4.21557
4.18105
4.14535
4.10852
4.07063
4.03172
3.99187
3.95112
3.90954
3.86718
3.8241
3.78036
3.73602
3.69114
3.64579
3.60002
3.55392
3.50754
3.46095
3.41424
3.36749
3.3208
3.2743
3.2281
3.18239
3.13736
3.09325
3.05031
3.00877
2.96857
2.92987
0.0625718
0.113039
0.140576
0.160098
0.17582
0.189349
0.201504
0.212787
0.223544
0.234036
0.244464
0.254991
0.265745
0.276827
0.288316
0.300272
0.312741
0.325756
0.339343
0.353521
0.368305
0.383704
0.399726
0.416376
0.433659
0.451576
0.470131
0.489323
0.509155
0.529627
0.550741
0.5725
0.594905
0.617961
0.641673
0.666047
0.691091
0.716816
0.743232
0.770353
0.798195
0.826776
0.856115
0.886234
0.917154
0.948901
0.9815
1.01497
1.04935
1.08466
1.12092
1.15815
1.19638
1.23564
1.27593
1.31727
1.35969
1.40319
1.44778
1.49347
1.54026
1.58815
1.63713
1.6872
1.73833
1.79053
1.84375
1.89799
1.9532
2.00936
2.06643
2.12437
2.18314
2.24268
2.30295
2.3639
2.42546
2.48757
2.55017
2.61319
2.67658
2.74026
2.80418
2.86828
2.93249
2.99675
3.061
3.12518
3.18922
3.25306
3.31664
3.37978
3.44232
3.50421
3.56542
3.62589
3.68554
3.74432
3.80216
3.85899
3.91471
3.96924
4.02253
4.07449
4.12507
4.17419
4.2218
4.26782
4.31221
4.35489
4.39581
4.43492
4.47218
4.50753
4.54097
4.57235
4.60167
4.6289
4.65402
4.67701
4.69784
4.7165
4.73298
4.74725
4.75933
4.76918
4.77682
4.78225
4.78549
4.78653
4.78542
4.78215
4.77675
4.76926
4.7597
4.74811
4.73451
4.71895
4.70147
4.68212
4.66094
4.63798
4.61328
4.58691
4.55892
4.52935
4.49826
4.46572
4.43178
4.3965
4.35993
4.32214
4.28319
4.24313
4.20202
4.15993
4.11691
4.07302
4.02831
3.98285
3.93669
3.8899
3.84253
3.79465
3.74633
3.69764
3.64864
3.59942
3.55005
3.50063
3.45126
3.40207
3.3532
3.30481
3.25711
3.21032
3.16467
3.12037
3.07732
3.03571
0.0632246
0.114096
0.141872
0.161598
0.177502
0.191194
0.203491
0.214892
0.225738
0.236288
0.24674
0.257256
0.267965
0.27897
0.290353
0.302178
0.314493
0.327337
0.340737
0.354715
0.369288
0.38447
0.400272
0.416703
0.433772
0.451487
0.469856
0.488887
0.508587
0.528964
0.550024
0.571777
0.59423
0.617391
0.641272
0.665884
0.691238
0.717349
0.744232
0.771904
0.800385
0.829695
0.859858
0.890896
0.922836
0.955704
0.989528
1.02434
1.06016
1.09701
1.13494
1.17395
1.21408
1.25534
1.29775
1.34133
1.38609
1.43204
1.4792
1.52756
1.57713
1.6279
1.67986
1.733
1.7873
1.84274
1.8993
1.95694
2.01564
2.07534
2.13601
2.1976
2.26006
2.32334
2.38738
2.45213
2.51751
2.58345
2.64988
2.71671
2.7839
2.85136
2.91904
2.98686
3.05477
3.12268
3.19055
3.2583
3.32588
3.39321
3.46011
3.52641
3.59206
3.657
3.72116
3.78449
3.84691
3.90836
3.96877
4.02811
4.0862
4.14296
4.19836
4.25232
4.30477
4.35565
4.4049
4.45245
4.49823
4.54219
4.58428
4.62444
4.66261
4.69877
4.73286
4.76482
4.79461
4.8222
4.84757
4.8707
4.89157
4.91016
4.92646
4.94046
4.95216
4.96155
4.96863
4.97342
4.97593
4.97617
4.97416
4.96993
4.9635
4.9549
4.94416
4.93133
4.91643
4.89952
4.88063
4.85982
4.83713
4.81261
4.78632
4.7583
4.72863
4.69734
4.6645
4.63018
4.59441
4.55728
4.51883
4.47913
4.43824
4.39621
4.3531
4.30898
4.2639
4.21793
4.1711
4.1235
4.07516
4.02616
3.97655
3.9264
3.87578
3.82475
3.77339
3.72178
3.67
3.61815
3.56634
3.51469
3.46335
3.41249
3.3623
3.313
3.2648
3.21789
3.17214
3.12777
0.0631956
0.114186
0.142016
0.161806
0.177779
0.191541
0.203907
0.215369
0.226266
0.236847
0.247309
0.257807
0.268466
0.279388
0.290654
0.302329
0.314463
0.327096
0.340261
0.353982
0.368282
0.383178
0.398688
0.414827
0.43161
0.449052
0.467167
0.485972
0.505481
0.525708
0.546669
0.568378
0.590848
0.614096
0.638137
0.662988
0.688668
0.715195
0.74259
0.770875
0.800072
0.830207
0.861304
0.893392
0.926498
0.960651
0.995881
1.03222
1.06969
1.10833
1.14816
1.18921
1.23148
1.27501
1.3198
1.36587
1.41324
1.46191
1.51188
1.56315
1.61573
1.66959
1.72473
1.78112
1.83874
1.89757
1.95757
2.0187
2.08093
2.14419
2.20846
2.27366
2.33974
2.40665
2.47432
2.54269
2.61172
2.68129
2.75127
2.82162
2.89228
2.96316
3.03421
3.10536
3.17653
3.24765
3.31867
3.38951
3.46012
3.53027
3.59983
3.66871
3.73687
3.80422
3.8707
3.93625
4.00078
4.06423
4.12653
4.1876
4.24734
4.30567
4.36252
4.41782
4.47151
4.52352
4.57379
4.62225
4.66883
4.71349
4.75617
4.79682
4.83538
4.87182
4.90609
4.93814
4.96794
4.99545
5.02066
5.04353
5.06406
5.08222
5.09802
5.11144
5.12249
5.13115
5.13745
5.14138
5.14297
5.14224
5.1392
5.13388
5.12631
5.11652
5.10456
5.09045
5.07424
5.05598
5.03571
5.01348
4.98934
4.96335
4.93556
4.90602
4.87479
4.84194
4.80751
4.77157
4.73418
4.6954
4.65528
4.61389
4.5713
4.52754
4.48269
4.43681
4.38995
4.34216
4.29351
4.24404
4.19382
4.14291
4.09136
4.03924
3.98661
3.93355
3.88013
3.82643
3.77253
3.71854
3.66456
3.61073
3.55718
3.50409
3.45165
3.40006
3.34951
3.30019
3.25195
3.20502
0.0626383
0.113512
0.141239
0.16097
0.176906
0.190649
0.203009
0.214473
0.225373
0.235954
0.246403
0.256868
0.26747
0.278303
0.289448
0.300965
0.312908
0.325319
0.338231
0.351677
0.365682
0.380271
0.395468
0.411295
0.427776
0.444933
0.46279
0.481371
0.500702
0.520805
0.541706
0.563425
0.585981
0.609397
0.633699
0.65891
0.685057
0.712163
0.740256
0.769363
0.79951
0.830726
0.86304
0.896482
0.93108
0.966866
1.00387
1.04212
1.08164
1.12246
1.16462
1.20816
1.25303
1.29925
1.34685
1.39583
1.4462
1.49796
1.55111
1.60563
1.66152
1.71875
1.7773
1.83715
1.89826
1.96059
2.02411
2.08875
2.15449
2.22126
2.28899
2.35764
2.42714
2.49741
2.56839
2.64002
2.7122
2.78486
2.8579
2.93124
3.00482
3.07854
3.15235
3.22618
3.29995
3.3736
3.44708
3.52028
3.59296
3.66504
3.73644
3.80708
3.87689
3.94581
4.01375
4.08065
4.14643
4.21102
4.27434
4.33632
4.39688
4.45593
4.51341
4.56925
4.62338
4.67574
4.72626
4.77488
4.82155
4.86621
4.9088
4.94928
4.9876
5.02372
5.05759
5.08919
5.11846
5.14539
5.16995
5.19212
5.2119
5.22925
5.24419
5.2567
5.26679
5.27446
5.27972
5.28259
5.28307
5.2812
5.27699
5.27048
5.26169
5.25066
5.23744
5.22205
5.20455
5.18498
5.16339
5.13983
5.11436
5.08702
5.05787
5.02697
4.99438
4.96016
4.92436
4.88704
4.84827
4.8081
4.76659
4.7238
4.67979
4.63462
4.58834
4.54102
4.4927
4.44344
4.39329
4.34231
4.29056
4.23809
4.18495
4.13122
4.07695
4.02221
3.96708
3.91164
3.85597
3.80017
3.74436
3.68865
3.63321
3.57818
3.52377
3.47016
3.41753
3.36605
3.31558
3.26636
0.0616661
0.112223
0.139706
0.159264
0.175065
0.188703
0.200982
0.212387
0.223244
0.233789
0.244201
0.254619
0.265156
0.275901
0.286929
0.2983
0.310066
0.322271
0.334954
0.348149
0.361891
0.376213
0.391146
0.406722
0.422969
0.439922
0.457617
0.47609
0.495379
0.515522
0.536562
0.558526
0.58142
0.605287
0.630165
0.656088
0.683091
0.711206
0.740465
0.770901
0.802545
0.835428
0.869579
0.905029
0.941804
0.979932
1.01944
1.06034
1.10267
1.14644
1.19167
1.23836
1.28652
1.33614
1.38721
1.43975
1.49373
1.54916
1.60599
1.66423
1.72383
1.78478
1.84703
1.91054
1.97527
2.04117
2.1082
2.17629
2.24539
2.31543
2.38636
2.45809
2.53057
2.60373
2.67747
2.75174
2.82645
2.90151
2.97685
3.05238
3.12803
3.20372
3.27939
3.35497
3.43039
3.5056
3.5804
3.65463
3.72823
3.80112
3.87324
3.94449
4.01482
4.08415
4.15241
4.21952
4.28541
4.35001
4.41325
4.47506
4.53536
4.59408
4.65115
4.7065
4.76008
4.81182
4.86166
4.90953
4.9554
4.9992
5.04089
5.08041
5.11773
5.15281
5.18561
5.21608
5.24422
5.26998
5.29334
5.3143
5.33283
5.34893
5.3626
5.37382
5.38262
5.38899
5.39294
5.39449
5.39366
5.39047
5.38495
5.37713
5.36705
5.35473
5.34022
5.32356
5.3048
5.28399
5.26116
5.23638
5.2097
5.18117
5.15084
5.11879
5.08505
5.04969
5.01277
4.97434
4.93447
4.89321
4.85062
4.80675
4.76167
4.71542
4.66807
4.61966
4.57025
4.51989
4.46863
4.41653
4.36362
4.30998
4.25565
4.20068
4.14516
4.08913
4.03268
3.97587
3.9188
3.86156
3.80427
3.74705
3.69004
3.63341
3.57734
3.522
3.46759
3.41424
3.36183
3.3106
0.0605933
0.110657
0.137764
0.157038
0.17261
0.18606
0.198192
0.209484
0.220256
0.230736
0.241096
0.251467
0.261954
0.272641
0.2836
0.29489
0.306564
0.318668
0.331247
0.344341
0.357988
0.372236
0.387137
0.402725
0.419019
0.436075
0.453948
0.472689
0.492351
0.512983
0.534636
0.557353
0.581175
0.606146
0.632312
0.659716
0.688397
0.718396
0.749748
0.782485
0.816639
0.852236
0.889301
0.927856
0.967917
1.0095
1.05261
1.09727
1.14346
1.19119
1.24046
1.29126
1.34356
1.39735
1.4526
1.5093
1.56741
1.6269
1.68773
1.74988
1.81329
1.87792
1.94373
2.01066
2.07866
2.14768
2.21766
2.28854
2.36026
2.43274
2.50593
2.57976
2.65415
2.72904
2.80436
2.88002
2.95596
3.0321
3.10836
3.18467
3.26097
3.33717
3.41324
3.4891
3.56459
3.63952
3.71388
3.78757
3.86054
3.9327
4.004
4.07435
4.14369