/*--------------------------------*- C++ -*----------------------------------*\
  =========                 |
  \\      /  F ield         | OpenFOAM: The Open Source CFD Toolbox
   \\    /   O peration     | Website:  https://openfoam.org
    \\  /    A nd           | Version:  12
     \\/     M anipulation  |
\*---------------------------------------------------------------------------*/
FoamFile
{
    format      ascii;
    class       volScalarField;
    location    "0.11";
    object      nut;
}
// * * * * * * * * * * * * * * * * * * * * * * * * * * * * * * * * * * * * * //

dimensions      [0 2 -1 0 0 0 0];

internalField   nonuniform List<scalar> 
12225
(
4.04768e-05
3.83178e-05
3.62504e-05
3.442e-05
3.29521e-05
3.18979e-05
3.12568e-05
3.09947e-05
3.10597e-05
3.13926e-05
3.19348e-05
3.26326e-05
3.34397e-05
3.43177e-05
3.52379e-05
3.61759e-05
3.71397e-05
3.85396e-05
0.000281047
0.000209265
0.000176265
0.000157437
0.000146269
0.000139684
0.00013579
0.000133427
0.000131913
0.000130856
0.000130042
0.000129355
0.000128738
0.000128161
0.000127624
0.00012708
0.000126698
0.00012569
0.000556046
0.000419904
0.000349809
0.000304728
0.000272438
0.000247971
0.000228751
0.000213282
0.000200649
0.000190243
0.000181623
0.00017445
0.000168454
0.000163412
0.00015915
0.000155477
0.000152309
0.000149168
0.000740307
0.000625818
0.00054411
0.000484989
0.000439758
0.000403632
0.000373817
0.000348573
0.000326814
0.000307842
0.000291182
0.000276487
0.000263486
0.000251948
0.000241673
0.000232438
0.00022408
0.000216288
0.000817069
0.00075914
0.00070054
0.000648569
0.000603883
0.000565564
0.000532446
0.000503477
0.000477831
0.0004549
0.000434236
0.000415503
0.000398443
0.000382841
0.000368513
0.000355268
0.000342952
0.000331454
0.0008421
0.000819687
0.000789921
0.000757599
0.000725543
0.000695147
0.000666942
0.000640984
0.000617131
0.000595181
0.000574929
0.000556188
0.000538791
0.000522589
0.000507449
0.000493233
0.000479835
0.000467296
0.000849261
0.000841807
0.00082974
0.000814184
0.000796474
0.00077775
0.000758832
0.000740231
0.000722234
0.000704988
0.000688551
0.000672931
0.000658105
0.000644033
0.000630666
0.000617945
0.000605828
0.000594439
0.00085112
0.000848747
0.00084448
0.000838234
0.000830242
0.000820888
0.000810588
0.000799705
0.000788531
0.00077728
0.000766109
0.000755124
0.000744392
0.000733956
0.000723836
0.000714041
0.000704581
0.000695611
0.00085156
0.000850665
0.000849169
0.000846886
0.000843739
0.000839755
0.000835027
0.000829684
0.000823861
0.000817685
0.00081127
0.000804711
0.000798082
0.000791445
0.000784845
0.000778317
0.000771898
0.000765726
0.000851652
0.000851133
0.000850468
0.000849564
0.000848346
0.00084677
0.000844822
0.000842514
0.000839875
0.000836946
0.000833773
0.000830401
0.000826873
0.000823229
0.000819505
0.00081573
0.00081194
0.000808231
0.000851668
0.00085123
0.000850778
0.000850278
0.000849697
0.000849005
0.00084818
0.000847208
0.000846083
0.000844807
0.000843389
0.00084184
0.000840175
0.00083841
0.00083656
0.000834642
0.000832676
0.000830717
0.000851669
0.000851245
0.000850835
0.000850429
0.000850013
0.000849574
0.000849099
0.000848577
0.000847999
0.000847361
0.000846658
0.000845893
0.000845067
0.000844184
0.00084325
0.00084227
0.000841255
0.000840237
0.000851668
0.000851245
0.000850843
0.000850459
0.000850088
0.000849725
0.000849364
0.000849
0.000848626
0.00084824
0.000847837
0.000847415
0.000846973
0.000846511
0.000846028
0.000845526
0.000845009
0.000844496
0.000851667
0.000851242
0.000850839
0.000850458
0.000850096
0.000849751
0.00084942
0.000849101
0.000848791
0.000848489
0.000848192
0.000847899
0.000847607
0.000847317
0.000847027
0.000846736
0.000846447
0.000846173
0.000851666
0.000851239
0.000850835
0.000850452
0.00085009
0.000849746
0.000849419
0.000849108
0.000848811
0.000848527
0.000848255
0.000847994
0.000847744
0.000847502
0.00084727
0.000847045
0.000846829
0.000846635
0.000851665
0.000851236
0.000850831
0.000850447
0.000850083
0.000849737
0.000849409
0.000849097
0.000848801
0.000848519
0.00084825
0.000847994
0.000847749
0.000847516
0.000847294
0.000847081
0.000846881
0.000846702
0.000851664
0.000851235
0.000850828
0.000850442
0.000850077
0.00084973
0.000849401
0.000849088
0.00084879
0.000848507
0.000848237
0.00084798
0.000847735
0.000847502
0.000847279
0.000847067
0.000846867
0.00084669
0.000851663
0.000851234
0.000850826
0.00085044
0.000850073
0.000849725
0.000849395
0.000849081
0.000848782
0.000848498
0.000848227
0.000847969
0.000847723
0.000847489
0.000847265
0.000847052
0.00084685
0.000846672
0.000851663
0.000851233
0.000850825
0.000850439
0.000850072
0.000849724
0.000849393
0.000849079
0.00084878
0.000848495
0.000848223
0.000847965
0.000847718
0.000847483
0.000847258
0.000847043
0.000846841
0.000846661
0.000851664
0.000851234
0.000850826
0.00085044
0.000850074
0.000849726
0.000849396
0.000849082
0.000848783
0.000848498
0.000848226
0.000847967
0.000847719
0.000847483
0.000847256
0.00084704
0.000846835
0.000846653
0.000851664
0.000851235
0.000850829
0.000850443
0.000850078
0.00084973
0.000849399
0.000849083
0.00084878
0.00084849
0.000848211
0.000847942
0.000847682
0.00084743
0.000847185
0.000846948
0.00084672
0.00084651
0.000851665
0.000851237
0.00085083
0.000850442
0.000850069
0.000849706
0.000849351
0.000849
0.000848648
0.000848295
0.000847937
0.000847572
0.000847201
0.000846823
0.000846437
0.000846044
0.000845647
0.000845258
0.000851664
0.000851228
0.000850794
0.000850348
0.00084987
0.000849346
0.000848763
0.000848112
0.00084739
0.000846596
0.000845731
0.000844801
0.000843811
0.000842768
0.00084168
0.000840553
0.000839399
0.000838239
0.000851634
0.000851073
0.000850343
0.000849364
0.00084808
0.000846469
0.000844533
0.000842295
0.00083979
0.000837058
0.000834143
0.000831085
0.000827922
0.000824688
0.000821412
0.000818119
0.000814834
0.000811603
0.000851287
0.000849596
0.000846721
0.000842579
0.000837264
0.000830982
0.000823977
0.000816478
0.000808684
0.00080075
0.0007928
0.000784922
0.000777181
0.000769623
0.000762278
0.000755165
0.000748299
0.000741733
0.000848318
0.000839426
0.000826162
0.000810019
0.000792362
0.000774231
0.000756328
0.000739053
0.000722605
0.000707065
0.000692443
0.000678712
0.000665826
0.000653731
0.000642369
0.000631687
0.000621636
0.000612226
0.000828548
0.000788844
0.000746035
0.000705705
0.000669467
0.000637505
0.00060945
0.000584746
0.000562852
0.000543316
0.000525766
0.000509904
0.000495489
0.000482326
0.000470257
0.000459151
0.000448901
0.000439459
0.000730726
0.000627347
0.000554509
0.000501062
0.000460321
0.000428351
0.000402638
0.000381474
0.000363716
0.000348587
0.000335543
0.000324186
0.000314217
0.000305408
0.000297577
0.000290581
0.000284301
0.000278653
0.00043925
0.000338472
0.000287936
0.00025687
0.000236363
0.000222512
0.000212995
0.000206314
0.000201508
0.000197961
0.000195273
0.000193179
0.000191501
0.000190118
0.000188948
0.000187934
0.000187037
0.00018621
7.16431e-05
6.90587e-05
6.65522e-05
6.41645e-05
6.19883e-05
6.00783e-05
5.84562e-05
5.71209e-05
5.60565e-05
5.52394e-05
5.46424e-05
5.42377e-05
5.39986e-05
5.39002e-05
5.39199e-05
5.40376e-05
5.42359e-05
5.44986e-05
1.11571e-06
1.99816e-05
2.97295e-05
3.78014e-05
4.49853e-05
5.19271e-05
5.94309e-05
6.77186e-05
7.70393e-05
8.75978e-05
9.9555e-05
0.000112476
0.000125431
0.000138041
0.00014994
0.000160821
0.000170454
0.000178681
0.000185421
0.000190664
0.000194446
0.000196852
0.000198117
0.000198703
0.000198177
4.50449e-05
0.000199662
0.000199744
4.58188e-05
0.00020334
0.000205039
0.000205162
0.000202596
0.000204736
4.74653e-05
4.84112e-05
4.94168e-05
5.04225e-05
5.14233e-05
5.24182e-05
5.34071e-05
5.43903e-05
5.53684e-05
5.6342e-05
5.7312e-05
5.82791e-05
5.92438e-05
6.02067e-05
6.11683e-05
6.2129e-05
6.30889e-05
6.40483e-05
6.50072e-05
6.59658e-05
6.69238e-05
6.78812e-05
6.88378e-05
6.97934e-05
7.07477e-05
7.17003e-05
7.26509e-05
7.35992e-05
7.45446e-05
7.54868e-05
7.64253e-05
7.73596e-05
7.82892e-05
7.92136e-05
8.01324e-05
8.1045e-05
8.1951e-05
8.28497e-05
8.37407e-05
8.46235e-05
8.54976e-05
8.63626e-05
8.72178e-05
8.80628e-05
8.88973e-05
8.97206e-05
9.05323e-05
9.1332e-05
9.21192e-05
9.28935e-05
9.36544e-05
9.44015e-05
9.51343e-05
9.58525e-05
9.65554e-05
9.72428e-05
9.79142e-05
9.85692e-05
9.92076e-05
9.98292e-05
0.000100434
0.000101024
0.000101599
0.000102165
0.00010271
0.000103235
0.000103738
0.000104222
0.000104684
0.000105124
0.000105543
0.000105939
0.000106313
0.000106664
0.000106992
0.000107296
0.000107575
0.000107831
0.000108062
0.000108268
0.000108449
0.000108604
0.000108735
0.000108839
0.000108918
0.000108971
0.000108998
0.000109
0.000108975
0.000108924
0.000108848
0.000108745
0.000108617
0.000108462
0.000108283
0.000108077
0.000107847
0.000107592
0.000107312
0.000107007
0.000106678
0.000106326
0.000105949
0.00010555
0.000105129
0.000104685
0.000104219
0.000103732
0.000103224
0.000102696
0.000102149
0.000101582
0.000100998
0.000100395
9.97754e-05
9.91394e-05
9.84879e-05
9.78213e-05
9.71404e-05
9.64461e-05
9.57391e-05
9.50201e-05
9.42902e-05
9.35488e-05
9.27995e-05
9.20403e-05
9.12744e-05
9.05065e-05
8.97608e-05
8.92371e-05
8.87885e-05
8.83422e-05
8.78947e-05
8.74459e-05
8.6996e-05
8.65455e-05
8.60942e-05
8.56422e-05
8.51885e-05
8.47316e-05
8.42681e-05
8.37911e-05
8.32847e-05
8.27083e-05
8.19547e-05
8.06199e-05
2.44791e-06
3.70527e-05
7.65694e-05
0.000107865
0.000132263
0.000151692
0.000166793
0.000179394
0.000190889
0.000202184
0.00021378
0.000225732
0.000237793
0.000249567
0.00026062
0.000270539
0.000278959
0.000285582
0.00029017
0.000292522
0.000292457
0.000289927
0.000285372
0.000279821
0.000272849
0.000255889
0.000266696
0.000262696
0.000253268
0.000265704
0.000267736
0.000268958
0.000268793
0.000272235
0.000271089
0.000277518
0.000284167
0.000291037
0.000298044
0.000305128
0.000312254
0.0003194
0.000326558
0.000333724
0.000340902
0.000348096
0.000355315
0.000362564
0.000369851
0.000377185
0.000384572
0.000392019
0.000399532
0.000407116
0.000414776
0.000422516
0.000430338
0.000438245
0.000446238
0.000454318
0.000462485
0.00047074
0.00047908
0.000487504
0.000496011
0.000504596
0.000513258
0.000521993
0.000530797
0.000539667
0.000548596
0.000557582
0.000566619
0.000575702
0.000584826
0.000593986
0.000603176
0.000612391
0.000621627
0.000630877
0.000640136
0.0006494
0.000658663
0.000667921
0.000677169
0.000686402
0.000695615
0.000704804
0.000713965
0.00072309
0.000732175
0.00074121
0.000750183
0.000759075
0.000767856
0.000776477
0.000784876
0.000792566
0.000800083
0.000807486
0.00081478
0.000821961
0.000829021
0.000835957
0.000842761
0.000849429
0.000855954
0.00086233
0.000868551
0.000874613
0.00088051
0.000886236
0.000891787
0.000897157
0.000902341
0.000907336
0.000912137
0.000916739
0.000921138
0.000925332
0.000929316
0.000933087
0.000936643
0.000939979
0.000943094
0.000945985
0.000948649
0.000951086
0.000953293
0.000955269
0.000957012
0.000958523
0.000959801
0.000960845
0.000961655
0.000962232
0.000962577
0.00096269
0.000962572
0.000962226
0.000961654
0.000960857
0.000959838
0.000958601
0.000957148
0.000955484
0.000953612
0.000951537
0.000949263
0.000946794
0.00094414
0.000941303
0.000938288
0.000935108
0.000931763
0.000928263
0.000924623
0.000920827
0.00091692
0.000912894
0.000908711
0.000904284
0.000899164
0.000892002
0.000883996
0.000875723
0.000867318
0.000858821
0.000850252
0.00084162
0.000832933
0.000824196
0.00081541
0.000806574
0.000797676
0.000788697
0.000779564
0.000770191
0.000759621
0.000739786
4.29883e-06
5.42139e-05
0.000112596
0.000160223
0.000197663
0.000226046
0.000247616
0.0002645
0.000278471
0.000290898
0.000302685
0.000314287
0.000325795
0.000337053
0.000347787
0.000357699
0.000366541
0.000374156
0.000380507
0.000385671
0.000389837
0.000393328
0.00039667
0.000400515
0.000405187
0.000410346
0.000417694
0.000425326
0.000433855
0.000444458
0.000455315
0.000466834
0.000478963
0.000492236
0.000505856
0.000520463
0.000535226
0.000550035
0.000564865
0.0005797
0.000594534
0.000609367
0.000624205
0.000639059
0.000653943
0.000668871
0.000683861
0.000698928
0.000714087
0.000729352
0.000744738
0.000760255
0.000775914
0.000791723
0.000807691
0.000823821
0.000840119
0.000856587
0.000873225
0.000890035
0.000907013
0.000924158
0.000941466
0.000958931
0.000976547
0.000994309
0.00101221
0.00103024
0.00104838
0.00106664
0.001085
0.00110344
0.00112197
0.00114056
0.00115921
0.0011779
0.00119663
0.00121538
0.00123413
0.00125288
0.00127162
0.00129033
0.001309
0.00132763
0.00134619
0.00136468
0.00138308
0.00140138
0.00141957
0.00143763
0.00145554
0.00147328
0.00149082
0.00150813
0.00152516
0.00154189
0.00155803
0.00157368
0.00158903
0.00160415
0.00161903
0.00163367
0.00164805
0.00166216
0.00167599
0.00168953
0.00170276
0.00171568
0.00172828
0.00174053
0.00175243
0.00176397
0.00177515
0.00178593
0.00179633
0.00180633
0.00181592
0.00182509
0.00183384
0.00184215
0.00185002
0.00185745
0.00186442
0.00187094
0.00187699
0.00188257
0.00188768
0.00189231
0.00189646
0.00190013
0.00190331
0.00190601
0.00190822
0.00190994
0.00191117
0.00191192
0.00191218
0.00191196
0.00191126
0.00191008
0.00190843
0.00190631
0.00190372
0.00190068
0.00189718
0.00189325
0.00188887
0.00188407
0.00187886
0.00187323
0.00186721
0.00186081
0.00185403
0.0018469
0.00183942
0.00183162
0.00182352
0.00181511
0.00180643
0.00179749
0.00178821
0.00177841
0.00176766
0.00175509
0.00174141
0.0017272
0.00171268
0.00169793
0.001683
0.00166793
0.00165273
0.00163742
0.001622
0.00160647
0.00159081
0.00157495
0.00155872
0.00154166
0.00152197
0.00149159
6.57923e-06
7.19022e-05
0.000144748
0.000203337
0.000248696
0.000283401
0.000309983
0.000330661
0.000347342
0.000361576
0.000374501
0.000386838
0.000398946
0.000410914
0.000422677
0.000434113
0.000445123
0.000455683
0.000465867
0.000475841
0.000485847
0.000496178
0.000507154
0.000519066
0.00053206
0.000546105
0.000561241
0.00057738
0.000594491
0.00061254
0.000631354
0.000650874
0.000671005
0.000691678
0.00071269
0.000733925
0.000755196
0.000776434
0.000797625
0.000818774
0.000839893
0.000861
0.000882113
0.000903255
0.000924447
0.000945712
0.000967074
0.000988551
0.00101017
0.00103193
0.00105388
0.001076
0.00109832
0.00112085
0.0011436
0.00116657
0.00118976
0.00121318
0.00123683
0.0012607
0.0012848
0.00130911
0.00133363
0.00135835
0.00138326
0.00140836
0.00143362
0.00145905
0.00148461
0.00151031
0.00153611
0.00156202
0.00158801
0.00161406
0.00164017
0.0016663
0.00169245
0.0017186
0.00174473
0.00177082
0.00179686
0.00182283
0.00184871
0.00187448
0.00190013
0.00192564
0.00195099
0.00197616
0.00200113
0.00202587
0.00205038
0.00207461
0.00209853
0.00212212
0.00214534
0.00216815
0.00219035
0.00221209
0.00223347
0.00225452
0.00227522
0.00229558
0.00231558
0.0023352
0.00235443
0.00237325
0.00239164
0.00240959
0.00242709
0.00244411
0.00246065
0.00247669
0.00249221
0.0025072
0.00252165
0.00253555
0.00254888
0.00256163
0.00257379
0.00258536
0.00259632
0.00260666
0.00261637
0.00262545
0.00263389
0.00264168
0.00264881
0.00265529
0.0026611
0.00266625
0.00267072
0.00267452
0.00267764
0.00268009
0.00268186
0.00268295
0.00268337
0.00268311
0.00268219
0.00268059
0.00267834
0.00267543
0.00267187
0.00266766
0.00266282
0.00265736
0.00265128
0.00264459
0.00263732
0.00262946
0.00262103
0.00261206
0.00260255
0.00259254
0.00258203
0.00257104
0.00255961
0.00254775
0.00253545
0.00252273
0.00250952
0.00249568
0.0024809
0.00246475
0.00244757
0.00242971
0.0024114
0.00239275
0.00237383
0.00235468
0.00233534
0.00231583
0.00229616
0.00227635
0.00225638
0.00223616
0.00221547
0.00219372
0.002169
0.00213546
9.14982e-06
8.5739e-05
0.000170485
0.000238442
0.000291028
0.000331438
0.000362526
0.000386746
0.000406181
0.000422538
0.000437128
0.000450867
0.000464322
0.000477786
0.000491377
0.000505123
0.000519037
0.000533165
0.000547606
0.000562511
0.000578061
0.00059444
0.000611808
0.000630274
0.000649868
0.000670547
0.000692243
0.000714877
0.000738351
0.000762561
0.000787397
0.000812753
0.000838516
0.000864574
0.000890801
0.000917092
0.000943366
0.000969584
0.000995739
0.00102184
0.00104791
0.00107396
0.00110003
0.00112614
0.00115232
0.00117859
0.00120498
0.00123152
0.00125822
0.0012851
0.00131219
0.00133949
0.00136703
0.0013948
0.00142283
0.00145111
0.00147964
0.00150844
0.00153749
0.0015668
0.00159635
0.00162614
0.00165616
0.00168641
0.00171686
0.0017475
0.00177833
0.00180932
0.00184045
0.00187171
0.00190308
0.00193454
0.00196608
0.00199766
0.00202926
0.00206088
0.00209248
0.00212405
0.00215556
0.00218699
0.00221833
0.00224955
0.00228062
0.00231154
0.00234227
0.00237281
0.00240312
0.00243318
0.00246298
0.00249249
0.00252168
0.00255053
0.00257901
0.00260711
0.00263478
0.00266192
0.00268851
0.00271464
0.00274035
0.00276567
0.00279058
0.00281508
0.00283914
0.00286275
0.0028859
0.00290856
0.00293071
0.00295235
0.00297344
0.00299398
0.00301394
0.00303331
0.00305208
0.00307022
0.00308772
0.00310457
0.00312075
0.00313625
0.00315106
0.00316516
0.00317854
0.0031912
0.00320311
0.00321428
0.0032247
0.00323434
0.00324322
0.00325131
0.00325862
0.00326514
0.00327086
0.00327578
0.0032799
0.00328321
0.00328572
0.00328742
0.00328832
0.00328842
0.00328771
0.0032862
0.00328389
0.0032808
0.00327692
0.00327227
0.00326684
0.00326066
0.00325373
0.00324605
0.00323766
0.00322855
0.00321874
0.00320826
0.00319711
0.00318533
0.00317293
0.00315993
0.00314635
0.00313222
0.00311753
0.00310229
0.00308645
0.00306993
0.00305253
0.00303406
0.00301466
0.00299454
0.00297388
0.00295278
0.00293133
0.00290957
0.00288757
0.00286534
0.00284293
0.00282036
0.00279762
0.00277467
0.0027513
0.00272696
0.00270004
0.00266681
1.16242e-05
9.7467e-05
0.000191718
0.000267843
0.000327138
0.000372965
0.000408434
0.000436215
0.000458558
0.000477312
0.00049393
0.000509486
0.000524715
0.000540074
0.000555828
0.00057212
0.000589038
0.000606661
0.000625076
0.000644382
0.00066468
0.000686055
0.00070856
0.000732203
0.000756947
0.000782715
0.000809409
0.000836922
0.000865137
0.000893939
0.000923215
0.000952857
0.000982761
0.00101283
0.00104298
0.00107314
0.00110325
0.00113331
0.00116331
0.00119326
0.00122317
0.00125308
0.00128301
0.00131299
0.00134304
0.0013732
0.00140349
0.00143394
0.00146456
0.00149538
0.00152642
0.00155769
0.0015892
0.00162097
0.001653
0.0016853
0.00171787
0.00175071
0.00178381
0.00181717
0.0018508
0.00188466
0.00191876
0.00195309
0.00198762
0.00202234
0.00205724
0.00209229
0.00212749
0.00216279
0.0021982
0.00223367
0.0022692
0.00230476
0.00234031
0.00237585
0.00241135
0.00244678
0.00248211
0.00251733
0.00255242
0.00258734
0.00262208
0.00265662
0.00269092
0.00272498
0.00275877
0.00279226
0.00282543
0.00285827
0.00289075
0.00292285
0.00295454
0.00298581
0.00301662
0.00304685
0.00307655
0.00310579
0.0031346
0.00316296
0.00319088
0.00321835
0.00324534
0.00327184
0.00329783
0.00332329
0.00334821
0.00337255
0.0033963
0.00341945
0.00344197
0.00346385
0.00348507
0.00350561
0.00352545
0.00354458
0.00356298
0.00358064
0.00359754
0.00361367
0.00362902
0.00364358
0.00365732
0.00367025
0.00368235
0.00369361
0.00370402
0.00371358
0.00372227
0.00373009
0.00373704
0.00374311
0.0037483
0.00375259
0.003756
0.00375851
0.00376013
0.00376086
0.0037607
0.00375964
0.0037577
0.00375488
0.00375118
0.0037466
0.00374116
0.00373486
0.00372772
0.00371973
0.00371092
0.00370131
0.00369089
0.00367969
0.00366773
0.00365502
0.0036416
0.00362747
0.00361266
0.00359719
0.00358106
0.00356428
0.00354683
0.00352864
0.00350963
0.00348969
0.0034689
0.00344738
0.00342526
0.00340263
0.00337957
0.00335614
0.0033324
0.00330841
0.00328421
0.00325984
0.00323534
0.00321069
0.00318575
0.00316011
0.00313254
0.00310078
1.38857e-05
0.000106972
0.000209115
0.000292499
0.000357973
0.000408978
0.000448792
0.000480233
0.000505675
0.000527077
0.000546006
0.000563658
0.000580902
0.000598327
0.000616312
0.00063509
0.000654801
0.000675537
0.000697365
0.000720335
0.000744478
0.000769804
0.000796296
0.000823902
0.000852545
0.000882122
0.000912521
0.000943623
0.000975308
0.00100746
0.00103998
0.00107276
0.00110571
0.00113875
0.00117183
0.0012049
0.00123791
0.00127087
0.00130378
0.00133663
0.00136946
0.00140229
0.00143514
0.00146804
0.00150102
0.0015341
0.00156732
0.00160069
0.00163424
0.00166799
0.00170196
0.00173616
0.0017706
0.0018053
0.00184026
0.00187549
0.00191098
0.00194675
0.00198277
0.00201906
0.0020556
0.00209238
0.00212938
0.00216661
0.00220403
0.00224164
0.00227942
0.00231734
0.00235538
0.00239353
0.00243176
0.00247005
0.00250837
0.0025467
0.00258502
0.00262329
0.00266149
0.00269961
0.0027376
0.00277546
0.00281314
0.00285064
0.00288792
0.00292497
0.00296175
0.00299825
0.00303445
0.00307033
0.00310586
0.00314103
0.00317581
0.00321019
0.00324414
0.00327764
0.00331065
0.00334309
0.00337504
0.00340652
0.00343756
0.00346815
0.00349828
0.00352793
0.00355709
0.00358575
0.00361387
0.00364144
0.00366845
0.00369486
0.00372065
0.00374582
0.00377034
0.00379418
0.00381734
0.00383979
0.00386151
0.00388249
0.0039027
0.00392214
0.00394079
0.00395862
0.00397564
0.00399182
0.00400715
0.00402163
0.00403523
0.00404795
0.00405978
0.0040707
0.00408071
0.0040898
0.00409797
0.00410522
0.00411152
0.00411688
0.00412129
0.00412476
0.00412728
0.00412885
0.00412946
0.00412912
0.00412783
0.00412559
0.00412242
0.0041183
0.00411324
0.00410726
0.00410036
0.00409254
0.00408381
0.00407421
0.00406372
0.00405238
0.00404019
0.00402718
0.00401336
0.00399876
0.00398338
0.00396725
0.00395038
0.00393277
0.00391442
0.0038953
0.00387536
0.00385457
0.00383296
0.0038106
0.0037876
0.00376402
0.00373995
0.00371546
0.0036906
0.00366545
0.00364007
0.00361453
0.0035889
0.0035632
0.00353738
0.00351115
0.00348365
0.00345349
1.57738e-05
0.000114529
0.000223257
0.000312904
0.000383955
0.000439846
0.000483926
0.000519093
0.000547789
0.000572039
0.000593487
0.000613422
0.000632809
0.00065234
0.000672484
0.000693541
0.000715695
0.000739046
0.000763647
0.00078951
0.000816622
0.000844942
0.000874406
0.00090493
0.00093641
0.000968733
0.00100178
0.00103543
0.00106956
0.00110408
0.00113888
0.00117387
0.00120898
0.00124415
0.00127932
0.00131447
0.00134957
0.0013846
0.00141959
0.00145453
0.00148945
0.00152436
0.00155929
0.00159427
0.00162932
0.00166448
0.00169975
0.00173518
0.00177078
0.00180657
0.00184256
0.00187878
0.00191524
0.00195195
0.0019889
0.00202612
0.00206359
0.00210133
0.00213932
0.00217756
0.00221605
0.00225477
0.00229372
0.00233287
0.00237222
0.00241175
0.00245143
0.00249125
0.0025312
0.00257124
0.00261135
0.00265151
0.0026917
0.00273189
0.00277205
0.00281216
0.0028522
0.00289213
0.00293193
0.00297157
0.00301103
0.00305029
0.00308932
0.00312809
0.00316658
0.00320478
0.00324266
0.0032802
0.00331738
0.00335419
0.0033906
0.0034266
0.00346217
0.00349728
0.00353186
0.00356595
0.00359957
0.00363274
0.00366547
0.00369776
0.00372959
0.00376094
0.0037918
0.00382215
0.00385197
0.00388123
0.00390991
0.003938
0.00396547
0.0039923
0.00401846
0.00404395
0.00406874
0.00409281
0.00411613
0.0041387
0.00416048
0.00418147
0.00420165
0.004221
0.00423951
0.00425716
0.00427394
0.00428984
0.00430485
0.00431895
0.00433212
0.00434436
0.00435566
0.00436601
0.00437542
0.00438386
0.00439133
0.00439782
0.00440333
0.00440785
0.00441139
0.00441395
0.00441551
0.00441607
0.00441563
0.00441422
0.00441182
0.00440841
0.00440401
0.00439864
0.00439229
0.00438498
0.00437671
0.00436749
0.00435734
0.00434627
0.00433429
0.00432141
0.00430766
0.00429305
0.00427759
0.0042613
0.00424419
0.00422628
0.00420756
0.00418802
0.00416765
0.00414644
0.00412441
0.00410162
0.00407813
0.00405401
0.00402935
0.00400419
0.00397863
0.00395274
0.00392659
0.00390029
0.00387393
0.00384758
0.00382126
0.00379481
0.00376762
0.00373879
1.72294e-05
0.000120454
0.000234433
0.000329343
0.000405329
0.000465746
0.000513938
0.000552813
0.000584833
0.00061205
0.000636146
0.000658465
0.00068004
0.000701636
0.00072379
0.000746857
0.000771056
0.000796503
0.000823244
0.000851275
0.000880554
0.000911014
0.000942565
0.000975104
0.00100852
0.00104268
0.00107748
0.00111281
0.00114854
0.00118458
0.00122085
0.00125726
0.00129375
0.00133027
0.00136678
0.00140325
0.00143967
0.00147603
0.00151233
0.00154859
0.00158482
0.00162104
0.00165727
0.00169354
0.00172988
0.0017663
0.00180284
0.00183952
0.00187635
0.00191337
0.00195057
0.00198799
0.00202564
0.00206352
0.00210164
0.00214001
0.00217864
0.00221751
0.00225664
0.00229601
0.00233563
0.00237547
0.00241554
0.00245581
0.00249628
0.00253693
0.00257775
0.0026187
0.00265978
0.00270096
0.00274222
0.00278354
0.00282489
0.00286624
0.00290758
0.00294887
0.00299009
0.00303121
0.0030722
0.00311304
0.0031537
0.00319415
0.00323438
0.00327434
0.00331403
0.00335342
0.00339249
0.00343121
0.00346958
0.00350757
0.00354518
0.00358237
0.00361913
0.00365543
0.00369126
0.00372664
0.00376159
0.00379613
0.00383024
0.00386393
0.00389717
0.00392994
0.00396224
0.00399403
0.00402529
0.004056
0.00408614
0.00411569
0.00414463
0.00417292
0.00420055
0.00422751
0.00425376
0.00427929
0.00430407
0.00432809
0.00435132
0.00437374
0.00439535
0.00441611
0.00443602
0.00445507
0.00447323
0.0044905
0.00450687
0.0045223
0.0045368
0.00455034
0.00456293
0.00457456
0.00458521
0.0045949
0.00460358
0.00461126
0.00461794
0.0046236
0.00462826
0.00463194
0.00463456
0.00463616
0.00463673
0.00463628
0.00463481
0.00463231
0.0046288
0.00462427
0.00461872
0.00461218
0.00460463
0.00459609
0.00458657
0.00457608
0.00456462
0.00455222
0.00453888
0.00452462
0.00450944
0.00449337
0.00447641
0.00445858
0.00443988
0.00442032
0.00439988
0.00437859
0.00435645
0.00433352
0.00430985
0.00428549
0.00426052
0.00423501
0.00420904
0.00418269
0.00415607
0.00412929
0.00410247
0.00407572
0.00404911
0.00402259
0.00399572
0.00396788
1.83236e-05
0.000124777
0.000242781
0.000342021
0.0004223
0.000486832
0.000538898
0.000581369
0.000616684
0.000646886
0.000673664
0.000698384
0.000722118
0.000745677
0.000769648
0.00079443
0.000820272
0.000847313
0.000875604
0.000905138
0.000935865
0.000967705
0.00100056
0.00103432
0.00106887
0.00110408
0.00113985
0.00117607
0.00121262
0.00124943
0.00128642
0.00132351
0.00136064
0.00139778
0.0014349
0.00147196
0.00150896
0.0015459
0.00158277
0.00161959
0.00165638
0.00169314
0.00172992
0.00176672
0.00180357
0.0018405
0.00187753
0.00191468
0.00195198
0.00198944
0.00202709
0.00206494
0.00210301
0.0021413
0.00217984
0.00221861
0.00225764
0.00229692
0.00233645
0.00237623
0.00241626
0.00245653
0.00249703
0.00253775
0.00257869
0.00261982
0.00266113
0.00270261
0.00274423
0.00278597
0.00282782
0.00286976
0.00291174
0.00295376
0.00299579
0.00303779
0.00307975
0.00312163
0.0031634
0.00320504
0.00324651
0.00328779
0.00332886
0.00336968
0.00341023
0.00345049
0.00349045
0.00353007
0.00356934
0.00360824
0.00364676
0.00368489
0.0037226
0.0037599
0.0037968
0.00383331
0.00386943
0.00390517
0.00394052
0.00397546
0.00400998
0.00404405
0.00407765
0.00411076
0.00414336
0.00417543
0.00420693
0.00423784
0.00426815
0.00429782
0.00432684
0.00435519
0.00438283
0.00440976
0.00443594
0.00446135
0.00448597
0.00450978
0.00453277
0.00455491
0.00457619
0.0045966
0.00461613
0.00463476
0.00465248
0.00466926
0.00468508
0.00469994
0.00471383
0.00472675
0.00473869
0.00474966
0.00475962
0.00476855
0.00477645
0.00478333
0.00478919
0.00479403
0.00479782
0.00480056
0.00480227
0.00480294
0.00480256
0.00480114
0.00479867
0.00479517
0.00479063
0.00478505
0.00477844
0.00477081
0.00476215
0.00475249
0.00474181
0.00473015
0.00471749
0.00470386
0.00468925
0.0046737
0.00465719
0.00463976
0.00462139
0.0046021
0.0045819
0.0045608
0.00453882
0.004516
0.00449238
0.00446803
0.004443
0.00441737
0.00439122
0.00436466
0.00433778
0.00431072
0.00428363
0.00425664
0.00422988
0.00420333
0.00417669
0.00414949
1.90838e-05
0.000127649
0.000248537
0.000351208
0.000435123
0.000503304
0.000558922
0.000604774
0.000643245
0.000676342
0.000705731
0.000732777
0.000758563
0.000783925
0.000809483
0.000835666
0.000862756
0.000890912
0.000920202
0.000950628
0.000982143
0.00101467
0.00104811
0.00108236
0.0011173
0.00115282
0.00118882
0.00122518
0.00126182
0.00129865
0.00133561
0.00137263
0.00140967
0.00144669
0.00148365
0.00152055
0.00155738
0.00159412
0.00163079
0.0016674
0.00170397
0.00174051
0.00177704
0.00181359
0.00185018
0.00188684
0.00192359
0.00196045
0.00199746
0.00203463
0.00207197
0.00210952
0.00214729
0.00218529
0.00222353
0.00226203
0.00230078
0.00233981
0.00237911
0.00241868
0.00245852
0.00249863
0.002539
0.00257963
0.00262051
0.00266162
0.00270295
0.00274449
0.00278622
0.00282812
0.00287016
0.00291233
0.00295461
0.00299696
0.00303936
0.00308178
0.00312419
0.00316657
0.00320888
0.00325108
0.00329315
0.00333506
0.00337678
0.00341827
0.00345952
0.00350049
0.00354117
0.00358153
0.00362155
0.00366123
0.00370054
0.00373946
0.00377806
0.00381632
0.00385425
0.00389185
0.00392911
0.00396602
0.00400257
0.00403874
0.0040745
0.00410984
0.00414474
0.00417915
0.00421307
0.00424646
0.0042793
0.00431157
0.00434323
0.00437427
0.00440467
0.00443439
0.00446341
0.00449173
0.0045193
0.0045461
0.00457211
0.00459731
0.00462167
0.00464519
0.00466785
0.00468963
0.00471053
0.00473052
0.00474963
0.00476776
0.00478493
0.00480114
0.00481637
0.00483061
0.00484387
0.00485614
0.0048674
0.00487763
0.00488683
0.004895
0.00490214
0.00490824
0.0049133
0.00491731
0.00492026
0.00492217
0.00492302
0.00492281
0.00492154
0.00491922
0.00491585
0.00491141
0.00490592
0.00489938
0.0048918
0.00488316
0.00487349
0.00486278
0.00485103
0.00483827
0.00482449
0.0048097
0.0047939
0.00477712
0.00475935
0.0047406
0.00472089
0.00470023
0.00467864
0.00465615
0.00463282
0.00460868
0.0045838
0.00455827
0.00453215
0.00450556
0.00447861
0.00445145
0.00442424
0.00439714
0.00437028
0.00434372
0.00431722
0.00429039
1.95444e-05
0.000129257
0.000251994
0.000357232
0.000444101
0.000515404
0.000574163
0.000623075
0.000664446
0.000700226
0.000732042
0.000761231
0.000788872
0.000815805
0.000842665
0.000869906
0.000897832
0.000926626
0.000956377
0.000987102
0.00101877
0.00105131
0.00108464
0.00111865
0.00115325
0.00118833
0.00122378
0.00125952
0.00129547
0.00133154
0.00136769
0.00140385
0.00143998
0.00147606
0.00151206
0.00154798
0.0015838
0.00161952
0.00165516
0.00169073
0.00172625
0.00176173
0.0017972
0.00183269
0.00186822
0.00190381
0.00193951
0.00197532
0.00201128
0.00204742
0.00208375
0.00212031
0.0021571
0.00219415
0.00223147
0.00226908
0.00230699
0.00234521
0.00238375