/*--------------------------------*- C++ -*----------------------------------*\
  =========                 |
  \\      /  F ield         | OpenFOAM: The Open Source CFD Toolbox
   \\    /   O peration     | Website:  https://openfoam.org
    \\  /    A nd           | Version:  12
     \\/     M anipulation  |
\*---------------------------------------------------------------------------*/
FoamFile
{
    format      ascii;
    class       volScalarField;
    location    "0.11";
    object      p;
}
// * * * * * * * * * * * * * * * * * * * * * * * * * * * * * * * * * * * * * //

dimensions      [0 2 -2 0 0 0 0];

internalField   nonuniform List<scalar> 
12225
(
-1.22222
-3.50511
-4.66733
-4.97512
-5.14289
-5.30196
-5.42573
-5.51315
-5.58152
-5.64103
-5.69336
-5.73823
-5.77575
-5.8049
-5.82408
-5.82153
-5.80694
-5.67563
-4.68974
-5.39174
-5.48171
-5.34627
-5.3057
-5.37235
-5.45231
-5.51718
-5.57298
-5.6249
-5.67263
-5.7149
-5.75127
-5.78054
-5.80202
-5.80748
-5.81132
-5.78101
-4.8945
-4.79144
-4.94797
-5.06972
-5.17659
-5.29828
-5.40579
-5.4875
-5.55353
-5.61195
-5.66434
-5.71038
-5.75009
-5.78296
-5.80928
-5.82532
-5.8471
-5.87264
-4.75722
-4.67899
-4.95481
-5.13317
-5.22713
-5.32366
-5.41802
-5.49465
-5.55812
-5.61496
-5.66659
-5.71256
-5.75291
-5.78764
-5.81778
-5.84325
-5.87737
-5.92742
-4.76422
-4.78137
-5.02122
-5.17076
-5.24632
-5.33044
-5.41932
-5.4945
-5.5574
-5.61383
-5.66544
-5.71197
-5.75361
-5.79089
-5.82535
-5.85891
-5.90149
-5.96107
-4.82596
-4.86832
-5.04587
-5.17625
-5.25378
-5.33575
-5.42136
-5.49536
-5.55797
-5.61426
-5.66602
-5.71324
-5.75629
-5.79605
-5.83439
-5.8739
-5.92173
-5.98427
-4.88576
-4.92518
-5.06136
-5.18323
-5.26518
-5.34436
-5.42538
-5.49744
-5.55958
-5.61567
-5.66754
-5.71543
-5.75984
-5.80185
-5.84336
-5.88699
-5.9377
-5.99972
-4.93899
-4.97379
-5.08387
-5.19618
-5.27832
-5.35371
-5.43005
-5.5
-5.56155
-5.61742
-5.66939
-5.71791
-5.76356
-5.80748
-5.85143
-5.89767
-5.94948
-6.0092
-4.98888
-5.02053
-5.11111
-5.21161
-5.29129
-5.36329
-5.43548
-5.50317
-5.56393
-5.61949
-5.67148
-5.72051
-5.7672
-5.8126
-5.85823
-5.90584
-5.9575
-6.01422
-5.03637
-5.06491
-5.13989
-5.22851
-5.30454
-5.3735
-5.44191
-5.50714
-5.56684
-5.62195
-5.67384
-5.72321
-5.77063
-5.81703
-5.86362
-5.91165
-5.96234
-6.01593
-5.08129
-5.1065
-5.16912
-5.24693
-5.31849
-5.38438
-5.44928
-5.51193
-5.57033
-5.62483
-5.67647
-5.72594
-5.77377
-5.8207
-5.86763
-5.9154
-5.96466
-6.01524
-5.11997
-5.14223
-5.19591
-5.26495
-5.33192
-5.39486
-5.45674
-5.51701
-5.57406
-5.62783
-5.67909
-5.72844
-5.77634
-5.82336
-5.87015
-5.91726
-5.96501
-6.01305
-5.15586
-5.17559
-5.22198
-5.2833
-5.34562
-5.40555
-5.4646
-5.52255
-5.57814
-5.63107
-5.68182
-5.73086
-5.77858
-5.82541
-5.87176
-5.91796
-5.96414
-6.0099
-5.19364
-5.21089
-5.25056
-5.30438
-5.36152
-5.41797
-5.47398
-5.52938
-5.58321
-5.63502
-5.685
-5.73348
-5.78073
-5.82701
-5.87257
-5.91754
-5.96192
-6.00534
-5.23209
-5.24695
-5.2807
-5.32759
-5.37934
-5.43195
-5.48476
-5.53744
-5.58924
-5.63963
-5.68855
-5.73614
-5.78256
-5.82793
-5.87232
-5.91577
-5.95822
-5.99934
-5.26929
-5.28201
-5.31082
-5.35166
-5.39823
-5.44688
-5.49644
-5.54636
-5.59595
-5.64463
-5.69219
-5.73857
-5.78381
-5.82791
-5.87085
-5.91258
-5.95303
-5.99197
-5.30238
-5.31337
-5.33834
-5.37434
-5.41643
-5.46142
-5.50793
-5.55522
-5.60258
-5.64942
-5.69539
-5.74032
-5.78411
-5.82669
-5.86798
-5.90791
-5.94641
-5.98333
-5.32701
-5.33683
-5.35924
-5.39197
-5.43089
-5.47313
-5.51725
-5.56239
-5.60784
-5.65298
-5.69738
-5.7408
-5.78307
-5.82407
-5.86371
-5.90191
-5.9386
-5.97372
-5.33623
-5.34562
-5.36716
-5.39881
-5.43666
-5.47786
-5.52093
-5.56502
-5.6094
-5.65346
-5.69673
-5.73895
-5.77995
-5.81959
-5.85781
-5.89454
-5.92975
-5.96341
-5.32195
-5.33206
-5.35515
-5.38896
-5.42897
-5.47184
-5.51604
-5.56089
-5.60575
-5.65001
-5.69321
-5.73514
-5.77566
-5.81469
-5.85218
-5.8881
-5.92243
-5.95522
-5.29624
-5.30748
-5.3334
-5.37132
-5.41534
-5.46122
-5.50764
-5.55428
-5.6005
-5.64563
-5.68931
-5.73143
-5.77196
-5.81084
-5.84805
-5.8836
-5.91752
-5.94986
-5.26164
-5.27408
-5.30426
-5.34896
-5.39874
-5.44821
-5.49736
-5.54652
-5.59475
-5.64117
-5.68561
-5.72818
-5.76893
-5.80785
-5.84496
-5.88033
-5.914
-5.94606
-5.22129
-5.23395
-5.26948
-5.3243
-5.38172
-5.43509
-5.48708
-5.53896
-5.58928
-5.63705
-5.68237
-5.72555
-5.76665
-5.80572
-5.84284
-5.87812
-5.91166
-5.94356
-5.17763
-5.18927
-5.23181
-5.29867
-5.36368
-5.42169
-5.47803
-5.53321
-5.58527
-5.63394
-5.67994
-5.72362
-5.76501
-5.80418
-5.84128
-5.87648
-5.90991
-5.94167
-5.1309
-5.13873
-5.19994
-5.27997
-5.34542
-5.40547
-5.46781
-5.52788
-5.5822
-5.63185
-5.67854
-5.72271
-5.76432
-5.80353
-5.84056
-5.87566
-5.90897
-5.94066
-5.08304
-5.05946
-5.17042
-5.2796
-5.34049
-5.39496
-5.45883
-5.52169
-5.57752
-5.62812
-5.67563
-5.72039
-5.76234
-5.80169
-5.83878
-5.87386
-5.90714
-5.93877
-5.07378
-4.92953
-5.08873
-5.25517
-5.33997
-5.40136
-5.46659
-5.52823
-5.58251
-5.63223
-5.67925
-5.72358
-5.76507
-5.80397
-5.84064
-5.87533
-5.9083
-5.93972
-5.21921
-4.93547
-4.97037
-5.10107
-5.22095
-5.32833
-5.4228
-5.49904
-5.5618
-5.6176
-5.66894
-5.71616
-5.75961
-5.79989
-5.83752
-5.87289
-5.90649
-5.93895
-5.15602
-5.65578
-5.66606
-5.50705
-5.42638
-5.45094
-5.50549
-5.55535
-5.60097
-5.64608
-5.69031
-5.73236
-5.77187
-5.80904
-5.84404
-5.87699
-5.90813
-5.93932
-1.81736
-3.68799
-4.75942
-5.0527
-5.18784
-5.32494
-5.43726
-5.51771
-5.58117
-5.63774
-5.68962
-5.7369
-5.78014
-5.82008
-5.85713
-5.89129
-5.92222
-5.94814
-6.88412
-6.88332
-6.88312
-6.88363
-6.88459
-6.8858
-6.8871
-6.88855
-6.89019
-6.89207
-6.8943
-6.89699
-6.90023
-6.90411
-6.90874
-6.9142
-6.92059
-6.92799
-6.93646
-6.94609
-6.95696
-6.96901
-6.98202
-6.9963
-7.01286
-7.03093
-7.0495
-7.07048
-7.09441
-7.12039
-7.15039
-7.1815
-7.19939
-7.21222
-7.23428
-7.26023
-7.28751
-7.31541
-7.34402
-7.37315
-7.40267
-7.43249
-7.46251
-7.49266
-7.52289
-7.55314
-7.58335
-7.61347
-7.64345
-7.67322
-7.70275
-7.73195
-7.76076
-7.78911
-7.81691
-7.84408
-7.87053
-7.89615
-7.92083
-7.94447
-7.96694
-7.98811
-8.00785
-8.02602
-8.04248
-8.05707
-8.06964
-8.08002
-8.08806
-8.09357
-8.0964
-8.09637
-8.0933
-8.08701
-8.07732
-8.06406
-8.04704
-8.02608
-8.001
-7.97163
-7.93779
-7.8993
-7.856
-7.80772
-7.75429
-7.69555
-7.63136
-7.56155
-7.48598
-7.40453
-7.31706
-7.22346
-7.1236
-7.01744
-6.90496
-6.78615
-6.6608
-6.52881
-6.38968
-6.24363
-6.09069
-5.9309
-5.76426
-5.59077
-5.41047
-5.2234
-5.02961
-4.82918
-4.62218
-4.40873
-4.18895
-3.96296
-3.73094
-3.49304
-3.24945
-3.00036
-2.746
-2.48659
-2.22237
-1.95359
-1.68052
-1.40344
-1.12263
-0.838401
-0.551044
-0.260876
0.0317828
0.326608
0.623272
0.921442
1.22078
1.52097
1.82166
2.12252
2.42323
2.72347
3.02291
3.32125
3.61818
3.91342
4.20667
4.49767
4.78615
5.07187
5.35461
5.63414
5.91025
6.18278
6.45154
6.71638
6.97717
7.23379
7.48613
7.73412
7.97768
8.21676
8.45133
8.68136
8.90686
9.12785
9.34436
9.55644
9.76412
9.96733
10.166
10.3602
10.55
10.7356
10.9169
11.0941
11.2671
11.436
11.601
11.7619
11.9192
12.0731
12.2249
12.3762
12.5381
12.713
-6.88403
-6.88345
-6.88324
-6.88368
-6.88432
-6.88478
-6.88498
-6.88495
-6.88492
-6.88513
-6.88581
-6.8871
-6.88906
-6.89175
-6.89519
-6.89941
-6.90446
-6.91037
-6.9172
-6.92503
-6.93388
-6.94373
-6.9549
-6.96797
-6.9824
-6.99757
-7.01483
-7.03397
-7.05332
-7.07331
-7.09264
-7.10829
-7.13322
-7.16931
-7.20331
-7.23456
-7.2639
-7.29312
-7.32248
-7.35197
-7.38162
-7.41139
-7.44127
-7.47122
-7.50122
-7.53121
-7.56115
-7.59102
-7.62075
-7.6503
-7.67962
-7.70864
-7.73729
-7.76551
-7.79321
-7.82031
-7.84672
-7.87234
-7.89705
-7.92075
-7.94332
-7.96463
-7.98454
-8.00292
-8.01962
-8.0345
-8.04739
-8.05814
-8.06658
-8.07254
-8.07586
-8.07635
-8.07385
-8.06817
-8.05914
-8.04657
-8.03029
-8.01012
-7.98588
-7.95739
-7.92447
-7.88696
-7.84468
-7.79746
-7.74516
-7.6876
-7.62463
-7.55611
-7.48189
-7.40184
-7.31582
-7.22373
-7.12543
-7.0208
-6.90973
-6.79213
-6.66771
-6.53629
-6.39843
-6.2539
-6.1026
-5.94448
-5.77954
-5.60778
-5.42922
-5.24389
-5.05184
-4.85314
-4.64788
-4.43616
-4.2181
-3.99382
-3.76347
-3.52723
-3.28527
-3.03779
-2.78499
-2.52711
-2.26438
-1.99705
-1.72538
-1.44965
-1.17014
-0.88714
-0.600963
-0.311914
-0.0203114
0.273523
0.569263
0.866578
1.16514
1.4646
1.76465
2.06494
2.36515
2.66496
2.96405
3.2621
3.55882
3.85391
4.14708
4.43806
4.72659
5.01242
5.29532
5.57507
5.85146
6.1243
6.39342
6.65866
6.91989
7.17698
7.42982
7.67833
7.92243
8.16207
8.39722
8.62784
8.85393
9.07552
9.29262
9.50529
9.71354
9.91729
10.1165
10.3112
10.5016
10.6876
10.8694
11.0471
11.2206
11.39
11.5555
11.7172
11.8752
12.0302
12.1836
12.3367
12.5008
12.667
-6.88151
-6.8818
-6.88232
-6.88319
-6.88396
-6.88432
-6.8843
-6.88403
-6.88374
-6.88365
-6.88395
-6.88481
-6.88631
-6.88855
-6.89157
-6.89542
-6.90016
-6.90585
-6.91256
-6.92039
-6.92942
-6.93972
-6.95146
-6.96497
-6.98017
-6.99655
-7.01437
-7.03395
-7.05439
-7.07534
-7.09675
-7.11806
-7.14133
-7.16802
-7.19586
-7.22398
-7.25211
-7.28049
-7.3091
-7.33791
-7.36688
-7.39599
-7.42522
-7.45452
-7.48389
-7.51327
-7.54263
-7.57194
-7.60115
-7.6302
-7.65905
-7.68763
-7.71588
-7.74373
-7.77109
-7.79789
-7.82403
-7.84941
-7.87392
-7.89746
-7.9199
-7.94112
-7.96098
-7.97936
-7.9961
-8.01105
-8.02407
-8.03498
-8.04364
-8.04987
-8.05351
-8.05438
-8.0523
-8.0471
-8.0386
-8.02663
-8.011
-7.99153
-7.96805
-7.94038
-7.90834
-7.87177
-7.83049
-7.78433
-7.73314
-7.67676
-7.61502
-7.54779
-7.47492
-7.39627
-7.3117
-7.2211
-7.12434
-7.02131
-6.91185
-6.79578
-6.67324
-6.54391
-6.40795
-6.26529
-6.1159
-5.95973
-5.79675
-5.62698
-5.45042
-5.2671
-5.07708
-4.88042
-4.67719
-4.4675
-4.25146
-4.02919
-3.80084
-3.56657
-3.32656
-3.08099
-2.83009
-2.57405
-2.31312
-2.04755
-1.77759
-1.50351
-1.2256
-0.944144
-0.659441
-0.371798
-0.0815298
0.211043
0.505596
0.801802
1.09933
1.39785
1.69703
1.99654
2.29606
2.59526
2.89382
3.19143
3.48779
3.7826
4.07557
4.36644
4.65493
4.94079
5.2238
5.50372
5.78035
6.05349
6.32296
6.58861
6.8503
7.10788
7.36127
7.61035
7.85505
8.09532
8.3311
8.56237
8.78911
9.01133
9.22904
9.44227
9.65102
9.85531
10.0551
10.2505
10.4416
10.6283
10.8107
10.989
11.1631
11.3332
11.4994
11.6618
11.8208
11.977
12.132
12.2863
12.4519
12.6057
-6.87573
-6.87752
-6.87935
-6.88106
-6.88227
-6.88291
-6.8831
-6.883
-6.88283
-6.88278
-6.88305
-6.8838
-6.88516
-6.88723
-6.89011
-6.89385
-6.89854
-6.90423
-6.91102
-6.91899
-6.92823
-6.9388
-6.95081
-6.96436
-6.97946
-6.99596
-7.0138
-7.03297
-7.05327
-7.07447
-7.09648
-7.11931
-7.14323
-7.16841
-7.19451
-7.22119
-7.24828
-7.27574
-7.30349
-7.33149
-7.35971
-7.3881
-7.41664
-7.4453
-7.47405
-7.50285
-7.53168
-7.56048
-7.58922
-7.61785
-7.64631
-7.67453
-7.70246
-7.73003
-7.75714
-7.78373
-7.80968
-7.83492
-7.85932
-7.88279
-7.90519
-7.9264
-7.9463
-7.96474
-7.98157
-7.99667
-8.00985
-8.02098
-8.02989
-8.03641
-8.04037
-8.0416
-8.03993
-8.03518
-8.02716
-8.01572
-8.00065
-7.9818
-7.95897
-7.93199
-7.9007
-7.86491
-7.82445
-7.77916
-7.72888
-7.67345
-7.61271
-7.54651
-7.4747
-7.39715
-7.31371
-7.22427
-7.12869
-7.02685
-6.91863
-6.8039
-6.68265
-6.55479
-6.42031
-6.27914
-6.13124
-5.97659
-5.81515
-5.64692
-5.47192
-5.29018
-5.10173
-4.90664
-4.705
-4.49688
-4.2824
-4.06169
-3.83489
-3.60215
-3.36364
-3.11957
-2.87012
-2.61552
-2.35599
-2.09178
-1.82315
-1.55036
-1.27369
-0.993431
-0.709874
-0.423327
-0.1341
0.157487
0.451113
0.746451
1.04317
1.34095
1.63945
1.93835
2.23731
2.53602
2.83416
3.13142
3.42748
3.72207
4.01488
4.30564
4.59409
4.87997
5.16305
5.44309
5.71989
5.99326
6.263
6.52896
6.79099
7.04896
7.30275
7.55227
7.79743
8.03817
8.27444
8.5062
8.73346
8.95619
9.1744
9.38809
9.59724
9.80188
10.0021
10.1979
10.3894
10.5765
10.7594
10.938
11.1126
11.2831
11.4497
11.6127
11.7723
11.9291
12.0846
12.2385
12.402
12.5419
-6.86721
-6.87061
-6.87433
-6.87742
-6.87953
-6.88084
-6.88156
-6.88193
-6.88216
-6.88246
-6.88303
-6.88406
-6.88568
-6.88802
-6.89119
-6.89528
-6.90036
-6.90652
-6.91383
-6.92237
-6.93219
-6.94337
-6.95594
-6.96993
-6.98531
-7.00201
-7.01997
-7.03908
-7.05925
-7.08034
-7.10228
-7.12507
-7.14875
-7.1733
-7.19858
-7.22442
-7.25069
-7.27733
-7.30431
-7.33157
-7.35908
-7.38681
-7.41473
-7.44282
-7.47103
-7.49934
-7.52771
-7.55609
-7.58445
-7.61273
-7.64088
-7.66883
-7.69653
-7.72389
-7.75083
-7.77728
-7.80313
-7.82829
-7.85264
-7.87609
-7.8985
-7.91975
-7.93971
-7.95824
-7.9752
-7.99044
-8.0038
-8.01513
-8.02426
-8.03103
-8.03527
-8.0368
-8.03546
-8.03107
-8.02345
-8.01241
-7.99779
-7.9794
-7.95707
-7.93062
-7.89988
-7.86467
-7.82483
-7.78018
-7.73056
-7.67582
-7.6158
-7.55035
-7.47931
-7.40256
-7.31995
-7.23134
-7.13663
-7.03568
-6.92839
-6.81466
-6.69441
-6.56759
-6.43415
-6.29403
-6.14719
-5.99359
-5.83321
-5.66606
-5.49213
-5.31146
-5.1241
-4.93009
-4.72952
-4.52247
-4.30906
-4.08941
-3.86365
-3.63195
-3.39447
-3.1514
-2.90294
-2.64931
-2.39073
-2.12744
-1.85971
-1.58778
-1.31195
-1.0325
-0.749717
-0.463909
-0.175385
0.115537
0.408536
0.703287
0.999463
1.29674
1.59477
1.89325
2.19184
2.49022
2.78808
3.08509
3.38096
3.67538
3.96808
4.25876
4.54718
4.83307
5.11618
5.39631
5.67322
5.94673
6.21665
6.48281
6.74507
7.00329
7.25735
7.50715
7.75261
7.99367
8.23027
8.46238
8.68997
8.91302
9.13154
9.34549
9.55487
9.75972
9.96014
10.1562
10.3478
10.5351
10.7182
10.8971
11.0718
11.2426
11.4094
11.5726
11.7324
11.8892
12.0443
12.1966
12.3563
12.4834
-6.85755
-6.86259
-6.86828
-6.87296
-6.87623
-6.87845
-6.87997
-6.88106
-6.88196
-6.8829
-6.8841
-6.88573
-6.88797
-6.89095
-6.89478
-6.89957
-6.90539
-6.91232
-6.92043
-6.92976
-6.94037
-6.95227
-6.96548
-6.97999
-6.99574
-7.01269
-7.03076
-7.04987
-7.06991
-7.09082
-7.11253
-7.13499
-7.15819
-7.18208
-7.2066
-7.23166
-7.25717
-7.28308
-7.30936
-7.33596
-7.36285
-7.39001
-7.41739
-7.44498
-7.47274
-7.50063
-7.52862
-7.55667
-7.58473
-7.61275
-7.64067
-7.66843
-7.69597
-7.7232
-7.75005
-7.77642
-7.80223
-7.82738
-7.85175
-7.87523
-7.89769
-7.91903
-7.93909
-7.95774
-7.97484
-7.99024
-8.00378
-8.0153
-8.02465
-8.03165
-8.03614
-8.03794
-8.03688
-8.03278
-8.02547
-8.01477
-8.00049
-7.98247
-7.96052
-7.93447
-7.90414
-7.86936
-7.82997
-7.78579
-7.73666
-7.68242
-7.62292
-7.558
-7.48752
-7.41134
-7.32932
-7.24132
-7.14724
-7.04694
-6.94032
-6.82729
-6.70777
-6.58168
-6.44896
-6.30956
-6.16344
-6.01055
-5.8509
-5.68446
-5.51125
-5.33131
-5.14466
-4.95137
-4.75151
-4.54517
-4.33247
-4.11351
-3.88845
-3.65744
-3.42063
-3.17823
-2.93043
-2.67743
-2.41948
-2.15681
-1.88967
-1.61832
-1.34305
-1.06414
-0.781876
-0.496564
-0.208513
0.0819591
0.374533
0.668885
0.964688
1.26161
1.55933
1.85752
2.15585
2.45399
2.75164
3.04847
3.34419
3.63849
3.93109
4.22171
4.51008
4.79596
5.07908
5.35923
5.6362
5.90978
6.1798
6.44607
6.70845
6.96681
7.22103
7.471
7.71665
7.95789
8.19469
8.42698
8.65475
8.87797
9.09664
9.31072
9.52021
9.72517
9.92567
10.1218
10.3135
10.5009
10.6841
10.8631
11.0379
11.2087
11.3756
11.5388
11.6985
11.855
12.0093
12.1594
12.3153
12.431
-6.84868
-6.85512
-6.86257
-6.86873
-6.87319
-6.87642
-6.87886
-6.88081
-6.88254
-6.8843
-6.8863
-6.88874
-6.8918
-6.89561
-6.90029
-6.90594
-6.91263
-6.92043
-6.92939
-6.93953
-6.95089
-6.96345
-6.97722
-6.99215
-7.00821
-7.02534
-7.04346
-7.06251
-7.08241
-7.1031
-7.12453
-7.14664
-7.1694
-7.19278
-7.21672
-7.24117
-7.26608
-7.29141
-7.31712
-7.34319
-7.36958
-7.39626
-7.42322
-7.45042
-7.47782
-7.5054
-7.53311
-7.56092
-7.58877
-7.61662
-7.64441
-7.67206
-7.69952
-7.72671
-7.75353
-7.77992
-7.80575
-7.83095
-7.85538
-7.87895
-7.90152
-7.92298
-7.94317
-7.96198
-7.97924
-7.99481
-8.00853
-8.02025
-8.0298
-8.03701
-8.04172
-8.04375
-8.04293
-8.03907
-8.03201
-8.02157
-8.00756
-7.98981
-7.96815
-7.94238
-7.91235
-7.87788
-7.8388
-7.79494
-7.74615
-7.69225
-7.63311
-7.56856
-7.49846
-7.42267
-7.34105
-7.25347
-7.15981
-7.05995
-6.95379
-6.84123
-6.72218
-6.59656
-6.46431
-6.32538
-6.17971
-6.02729
-5.86808
-5.7021
-5.52934
-5.34984
-5.16364
-4.9708
-4.77138
-4.56549
-4.35323
-4.13471
-3.91009
-3.6795
-3.44313
-3.20115
-2.95376
-2.70118
-2.44363
-2.18135
-1.9146
-1.64363
-1.36873
-1.09017
-0.808255
-0.523275
-0.235544
0.0546219
0.346904
0.640978
0.936517
1.2332
1.53069
1.82866
2.12679
2.42475
2.72223
3.01892
3.31451
3.6087
3.9012
4.19174
4.48004
4.76587
5.04896
5.32909
5.60605
5.87964
6.14967
6.41597
6.6784
6.93681
7.19109
7.44113
7.68685
7.92817
8.16504
8.39741
8.62525
8.84853
9.06723
9.28135
9.49089
9.69587
9.8964
10.0925
10.2843
10.4717
10.6549
10.8339
11.0087
11.1796
11.3464
11.5095
11.6689
11.8248
11.9779
12.1257
12.278
12.3839
-6.84213
-6.84958
-6.85835
-6.86574
-6.87125
-6.87545
-6.87879
-6.88163
-6.88424
-6.88687
-6.88974
-6.89307
-6.897
-6.9017
-6.90726
-6.91378
-6.92133
-6.92996
-6.9397
-6.95056
-6.96256
-6.97568
-6.98989
-7.00516
-7.02145
-7.03869
-7.05683
-7.0758
-7.09556
-7.11604
-7.13719
-7.15899
-7.18139
-7.20435
-7.22785
-7.25185
-7.2763
-7.30119
-7.32647
-7.35214
-7.37816
-7.40451
-7.43116
-7.45808
-7.48525
-7.51262
-7.54017
-7.56784
-7.59559
-7.62336
-7.6511
-7.67874
-7.70621
-7.73343
-7.76031
-7.78676
-7.81269
-7.83799
-7.86255
-7.88625
-7.90897
-7.93058
-7.95094
-7.96991
-7.98734
-8.00309
-8.017
-8.0289
-8.03864
-8.04604
-8.05093
-8.05315
-8.05252
-8.04885
-8.04198
-8.03173
-8.01791
-8.00035
-7.97887
-7.9533
-7.92346
-7.88918
-7.8503
-7.80664
-7.75805
-7.70437
-7.64544
-7.58111
-7.51123
-7.43568
-7.3543
-7.26697
-7.17357
-7.07397
-6.96809
-6.8558
-6.73702
-6.61167
-6.47968
-6.341
-6.19558
-6.0434
-5.88443
-5.71869
-5.54617
-5.36691
-5.18094
-4.98834
-4.78916
-4.58351
-4.37148
-4.15321
-3.92883
-3.69848
-3.46235
-3.22061
-2.97346
-2.72112
-2.4638
-2.20176
-1.93525
-1.66451
-1.38984
-1.11151
-0.829812
-0.54505
-0.257532
0.0324276
0.324508
0.618386
0.913737
1.21023
1.50755
1.80536
2.10333
2.40114
2.69848
2.99503
3.29049
3.58456
3.87696
4.1674
4.45561
4.74135
5.02436
5.30442
5.58132
5.85486
6.12484
6.39111
6.65351
6.9119
7.16615
7.41618
7.66188
7.90319
8.14004
8.37239
8.60021
8.82346
9.04213
9.25622
9.46572
9.67069
9.87118
10.0673
10.259
10.4464
10.6295
10.8085
10.9833
11.154
11.3207
11.4835
11.6426
11.7977
11.9495
12.0948
12.2439
12.3414
-6.83871
-6.84678
-6.8564
-6.86464
-6.87098
-6.87598
-6.88014
-6.88379
-6.88723
-6.89069
-6.8944
-6.89856
-6.90333
-6.90884
-6.91521
-6.92252
-6.93081
-6.94014
-6.95053
-6.96198
-6.97448
-6.98802
-7.00256
-7.01807
-7.0345
-7.05181
-7.06993
-7.08883
-7.10845
-7.12874
-7.14968
-7.17121
-7.19333
-7.21598
-7.23916
-7.26282
-7.28696
-7.31154
-7.33654
-7.36194
-7.38773
-7.41386
-7.44034
-7.46711
-7.49416
-7.52145
-7.54893
-7.57658
-7.60432
-7.63212
-7.6599
-7.68761
-7.71516
-7.74249
-7.76949
-7.79607
-7.82215
-7.8476
-7.87233
-7.8962
-7.91909
-7.94087
-7.96141
-7.98055
-7.99816
-8.01409
-8.02816
-8.04023
-8.05012
-8.05768
-8.06272
-8.06508
-8.06458
-8.06104
-8.05429
-8.04415
-8.03044
-8.01298
-7.9916
-7.96613
-7.93638
-7.9022
-7.8634
-7.81983
-7.77133
-7.71773
-7.65889
-7.59465
-7.52488
-7.44942
-7.36815
-7.28093
-7.18764
-7.08817
-6.9824
-6.87022
-6.75154
-6.62628
-6.49438
-6.35578
-6.21044
-6.05833
-5.89944
-5.73377
-5.56132
-5.38213
-5.19624
-5.00371
-4.80462
-4.59905
-4.38711
-4.16893
-3.94465
-3.7144
-3.47838
-3.23675
-2.98971
-2.73748
-2.48029
-2.21838
-1.95199
-1.68139
-1.40685
-1.12866
-0.847103
-0.562482
-0.275106
0.014709
0.306645
0.600378
0.895583
1.19193
1.48911
1.78677
2.0846
2.38227
2.67947
2.97588
3.27121
3.56514
3.85741
4.14772
4.43581
4.72142
5.00432
5.28427
5.56106
5.83449
6.10437
6.37054
6.63283
6.89113
7.14529
7.39522
7.64083
7.88205
8.11881
8.35107
8.57879
8.80195
9.02053
9.23452
9.44393
9.64882
9.84923
10.0452
10.2369
10.4242
10.6073
10.7861
10.9608
11.1314
11.2979
11.4603
11.6188
11.7731
11.9234
12.0664
12.2126
12.3027
-6.83875
-6.84705
-6.85703
-6.86573
-6.87261
-6.87821
-6.88301
-6.88734
-6.89147
-6.89565
-6.90008
-6.90496
-6.91043
-6.91663
-6.92366
-6.93158
-6.94046
-6.95033
-6.96119
-6.97306
-6.98591
-6.99973
-7.01449
-7.03014
-7.04665
-7.06397
-7.08205
-7.10087
-7.12037
-7.14051
-7.16128
-7.18262
-7.20454
-7.22698
-7.24995
-7.27342
-7.29736
-7.32177
-7.34661
-7.37189
-7.39756
-7.42362
-7.45004
-7.47679
-7.50384
-7.53115
-7.55869
-7.5864
-7.61424
-7.64215
-7.67006
-7.69791
-7.72562
-7.75311
-7.78028
-7.80705
-7.83331
-7.85895
-7.88386
-7.90791
-7.93099
-7.95295
-7.97365
-7.99297
-8.01073
-8.0268
-8.04101
-8.0532
-8.06321
-8.07086
-8.076
-8.07843
-8.078
-8.07452
-8.06781
-8.05771
-8.04402
-8.02658
-8.00521
-7.97973
-7.94998
-7.91579
-7.87698
-7.83339
-7.78487
-7.73125
-7.67239
-7.60814
-7.53835
-7.46288
-7.3816
-7.29437
-7.20108
-7.10159
-6.99579
-6.88358
-6.76486
-6.63956
-6.50761
-6.36895
-6.22356
-6.0714
-5.91245
-5.74672
-5.57422
-5.39498
-5.20905
-5.01648
-4.81736
-4.61176
-4.39981
-4.18162
-3.95733
-3.7271
-3.49109
-3.24948
-3.00248
-2.75029
-2.49315
-2.23129
-1.96497
-1.69444
-1.41998
-1.14188
-0.860419
-0.575899
-0.288633
0.00106727
0.292883
0.586491
0.881566
1.17778
1.47481
1.77232
2.07
2.36752
2.66457
2.96082
3.25599
3.54976
3.84186
4.13201
4.41994
4.70539
4.98812
5.26791
5.54453
5.8178
6.08751
6.35352
6.61565
6.87378
7.12779
7.37756
7.62301
7.86407
8.10068
8.33278
8.56034
8.78334
9.00177
9.21561
9.42489
9.62965
9.82994
10.0258
10.2173
10.4045
10.5875
10.7662
10.9407
11.1111
11.2773
11.4393
11.5972
11.7504
11.8993
12.0399
12.1835
12.2675
-6.84211
-6.85029
-6.86021
-6.869
-6.87613
-6.88208
-6.88732
-6.89213
-6.89678
-6.9015
-6.90648
-6.9119
-6.91791
-6.92461
-6.93211
-6.94047
-6.94974
-6.95995
-6.97112
-6.98323
-6.99629
-7.01025
-7.02511
-7.04081
-7.05733
-7.07462
-7.09266
-7.11139
-7.13079
-7.15083
-7.17147
-7.1927
-7.2145
-7.23684
-7.25971
-7.28309
-7.30696
-7.33132
-7.35614
-7.38141
-7.40711
-7.43321
-7.4597
-7.48654
-7.5137
-7.54114
-7.56882
-7.59669
-7.6247
-7.65279
-7.6809
-7.70895
-7.73686
-7.76455
-7.79193
-7.8189
-7.84536
-7.87119
-7.89629
-7.92052
-7.94376
-7.96587
-7.98672
-8.00615
-8.02403
-8.04019
-8.05448
-8.06674
-8.07679
-8.08448
-8.08962
-8.09206
-8.09161
-8.0881
-8.08135
-8.07119
-8.05743
-8.03992
-8.01846
-7.99289
-7.96304
-7.92874
-7.88982
-7.84612
-7.79748
-7.74375
-7.68478
-7.62041
-7.55051
-7.47494
-7.39355
-7.30622
-7.21281
-7.11319
-7.00725
-6.89489
-6.77602
-6.65056
-6.51846
-6.37965
-6.2341
-6.08178
-5.92268
-5.7568
-5.58417
-5.4048
-5.21874
-5.02606
-4.82683
-4.62115
-4.40911
-4.19085
-3.9665
-3.73622
-3.50018
-3.25855
-3.01154
-2.75935
-2.50223
-2.2404
-1.97412
-1.70364
-1.42925
-1.15121
-0.869841
-0.585424
-0.29827
-0.00869063
0.282995
0.576465
0.871394
1.16745
1.46432
1.76166
2.05916
2.3565
2.65336
2.94942
3.24439
3.53796
3.82985
4.11979
4.4075
4.69273
4.97524
5.25481
5.53121
5.80425
6.07374
6.33952
6.60143
6.85933
7.11311
7.36266
7.6079
7.84874
8.08512
8.31701
8.54436
8.76715
8.98538
9.19903
9.40813
9.61272
9.81285
10.0086
10.1999
10.387
10.5697
10.7483
10.9226
11.0927
11.2585
11.4201
11.5772
11.7294
11.8767
12.0152
12.1563
12.2351
-6.84835
-6.85613
-6.86562
-6.87418
-6.88128
-6.88735
-6.89279
-6.89787
-6.90284
-6.90789
-6.91322
-6.91899
-6.92531
-6.93232
-6.94009
-6.94869
-6.95816
-6.96854
-6.97983
-6.99204
-7.00514
-7.01914
-7.03399
-7.04967
-7.06614
-7.08337
-7.10133
-7.11999
-7.13932
-7.15929
-7.17987
-7.20106
-7.22282
-7.24515
-7.26802
-7.29142
-7.31535
-7.33977
-7.36469
-7.39007
-7.4159
-7.44215
-7.46881
-7.49583
-7.52319
-7.55084
-7.57874
-7.60684
-7.63508
-7.66341
-7.69174
-7.72002
-7.74815
-7.77606
-7.80364
-7.8308
-7.85744
-7.88344
-7.90868
-7.93304
-7.9564
-7.97861
-7.99953
-8.01902
-8.03693
-8.05311
-8.06739
-8.07962
-8.08963
-8.09725
-8.10232
-8.10465
-8.10409
-8.10045
-8.09355
-8.08324
-8.06932
-8.05163
-8.02999
-8.00423
-7.97419
-7.93969
-7.90058
-7.85668
-7.80785
-7.75393
-7.69476
-7.6302
-7.56012
-7.48436
-7.40279
-7.31527
-7.22164
-7.1218
-7.01563
-6.90303
-6.78392
-6.65823
-6.52589
-6.38685
-6.24108
-6.08854
-5.92924
-5.76316
-5.59034
-5.41079
-5.22457
-5.03174
-4.83237
-4.62656
-4.41442
-4.19607
-3.97164
-3.7413
-3.50521
-3.26356
-3.01654
-2.76437
-2.50727
-2.24548
-1.97925
-1.70884
-1.43453
-1.15659
-0.87533
-0.59104
-0.304025
-0.014597
0.276925
0.570221
0.864964
1.16083
1.45748
1.75461
2.05189
2.34899
2.6456
2.94141
3.23612
3.52943
3.82105
4.11072
4.39815
4.6831
4.96533
5.24461
5.52072
5.79347
6.06267
6.32816
6.58978
6.8474
7.10089
7.35016
7.59511
7.83567
8.07179
8.3034
8.53049
8.75303
8.971
9.18442
9.39331
9.59769
9.79762
9.99314
10.1843
10.3712
10.5537
10.732
10.9061
11.0759
11.2414
11.4024
11.5587
11.7098
11.8556
11.992
12.1308
12.2053
-6.85683
-6.86402
-6.87283
-6.8809
-6.88773
-6.89368
-6.89909
-6.90421
-6.90927
-6.91444
-6.91989
-6.92578
-6.93222
-6.93932
-6.94716
-6.9558
-6.9653
-6.97566
-6.98692
-6.99907
-7.01211
-7.02602
-7.04078
-7.05636
-7.07274
-7.08989
-7.10777
-7.12637
-7.14565
-7.16559
-7.18617
-7.20738
-7.22919
-7.25159
-7.27456
-7.29809
-7.32216
-7.34675
-7.37186
-7.39745
-7.4235
-7.45
-7.4769
-7.50418
-7.5318
-7.55971
-7.58787
-7.61623
-7.64471
-7.67327
-7.70184
-7.73032
-7.75865
-7.78673
-7.81447
-7.84177
-7.86852
-7.89461
-7.91992
-7.94433
-7.9677
-7.98991
-8.0108
-8.03024
-8.04808
-8.06416
-8.07832
-8.09041
-8.10025
-8.10769
-8.11256
-8.11469
-8.11389
-8.11001
-8.10287
-8.0923
-8.07812
-8.06016
-8.03825
-8.01222
-7.9819
-7.94714
-7.90775
-7.86359
-7.8145
-7.76032
-7.7009
-7.63611
-7.56579
-7.4898
-7.40797
-7.32016
-7.22624
-7.1261
-7.01964
-6.90675
-6.78735
-6.66138
-6.52876
-6.38946
-6.24344
-6.09066
-5.93113
-5.76485
-5.59183
-5.4121
-5.22572
-5.03274
-4.83325
-4.62733
-4.41509
-4.19667
-3.97219
-3.74181
-3.50571
-3.26407
-3.01707
-2.76494
-2.5079
-2.24619
-1.98006
-1.70977
-1.43559
-1.15781
-0.876712
-0.592605
-0.305788
-0.0165742
0.27472
0.567774
0.862264
1.15786
1.45424
1.75108
2.04806
2.34485
2.64115
2.93663
3.23101
3.52398
3.81527
4.10458
4.39166
4.67626
4.95813
5.23705
5.51281
5.7852
6.05404
6.31917
6.58044
6.8377
7.09085
7.33977
7.58438
7.82461
8.0604
8.2917
8.51847
8.74071
8.9584
9.17155
9.38018
9.58432
9.78402
9.97933
10.1703
10.3569
10.5393
10.7173
10.8911
11.0606
11.2256
11.386
11.5415
11.6915
11.8358
11.9702
12.1068
12.1778
-6.86691
-6.87341
-6.88138
-6.88877
-6.89512
-6.90073
-6.90588
-6.91081
-6.91571
-6.92076
-6.92611
-6.93189
-6.93823
-6.94521
-6.95292
-6.96142
-6.97076
-6.98096
-6.99204
-7.00401
-7.01687
-7.0306
-7.04519
-7.06062
-7.07687
-7.09391
-7.11171
-7.13026
-7.14952
-7.16948
-7.19011
-7.2114
-7.23333
-7.25588
-7.27903
-7.30276
-7.32706
-7.3519
-7.37727
-7.40313
-7.42947
-7.45625
-7.48344
-7.511
-7.53888
-7.56706
-7.59546
-7.62404
-7.65273
-7.68148
-7.7102
-7.73882
-7.76725
-7.79541
-7.8232
-7.85052
-7.87727
-7.90332
-7.92857
-7.95288
-7.97613
-7.99819
-8.01891
-8.03815
-8.05577
-8.07161
-8.08551
-8.09731
-8.10686
-8.11399
-8.11854
-8.12033
-8.11919
-8.11497
-8.10748
-8.09655
-8.08202
-8.06371
-8.04146
-8.0151
-7.98445
-7.94936
-7.90967
-7.86521
-7.81582
-7.76136
-7.70168
-7.63663
-7.56604
-7.48976
-7.4076
-7.31946
-7.22521
-7.12474
-7.01796
-6.90476
-6.78507
-6.65881
-6.52592
-6.38636
-6.2401
-6.08711
-5.92737
-5.7609
-5.58771
-5.40784
-5.22133
-5.02825
-4.82867
-4.62269
-4.41042
-4.19198
-3.9675
-3.73716
-3.5011
-3.25953
-3.01264
-2.76063
-2.50373
-2.24217
-1.97622
-1.70613
-1.43217
-1.15462
-0.873782
-0.589946
-0.303417
-0.0145072
0.276468
0.569189
0.863332
1.15857
1.45458
1.75104
2.04763
2.34402
2.63991
2.93498
3.22894
3.52149
3.81234
4.10122
4.38787
4.67203
4.95347
5.23195
5.50727
5.77922
6.04764
6.31234
6.57318
6.83003
7.08277
7.33129
7.5755
7.81535
8.05075
8.28169
8.50811
8.73001
8.94738
9.16023
9.36858
9.57245
9.77191
9.96697
10.1577
10.3441
10.5262
10.704
10.8775
11.0465
11.2111
11.3709
11.5255
11.6744
11.8172
11.9497
12.0842
12.1524
-6.87805
-6.88382
-6.89089
-6.89749
-6.90318
-6.90822
-6.91287
-6.91736
-6.92185
-6.92651
-6.9315
-6.93695
-6.94295
-6.9496
-6.95699
-6.96516
-6.97418
-6.98406
-6.99483
-7.0065
-7.01907
-7.03255
-7.04691
-7.06214
-7.07822
-7.09513
-7.11285
-7.13136
-7.15063
-7.17064
-7.19137
-7.21279
-7.23489
-7.25764
-7.28102
-7.305
-7.32957
-7.35469
-7.38034
-7.40649
-7.4331
-7.46015
-7.48758
-7.51537
-7.54347
-7.57182
-7.60037
-7.62907
-7.65784
-7.68664
-7.71537
-7.74397
-7.77235
-7.80042
-7.82809
-7.85525
-7.88181
-7.90765
-7.93265
-7.95669
-7.97964
-8.00138
-8.02176
-8.04064
-8.05788
-8.07332
-8.08681
-8.0982
-8.10733
-8.11403
-8.11814
-8.11949
-8.11792
-8.11327
-8.10535
-8.09401
-8.07907
-8.06037
-8.03773
-8.011
-7.98001
-7.94458
-7.90457
-7.85981
-7.81014
-7.75542
-7.69548
-7.63015
-7.55925
-7.48261
-7.40011
-7.31163
-7.21705
-7.11627
-7.00918
-6.8957
-6.77574
-6.64923
-6.51612
-6.37636
-6.22991
-6.07675
-5.91688
-5.75029
-5.57701
-5.39707
-5.21052
-5.01742
-4.81785
-4.6119
-4.39968
-4.18132
-3.95696
-3.72674
-3.49085
-3.24946
-3.00277
-2.75098
-2.49434
-2.23306
-1.9674
-1.69762
-1.424
-1.1468
-0.866336
-0.582888
-0.296765
-0.00827668
0.282263
0.574534
0.868214
1.16298
1.45851
1.75447
2.05056
2.34644
2.64182
2.93637
3.22981
3.52183
3.81215
4.1005
4.38662
4.67026
4.95117
5.22913
5.50393
5.77537
6.04328
6.30748
6.56783
6.8242
7.07646
7.32452
7.56829
7.8077
8.04268
8.27321
8.49925
8.72078
8.9378
9.15032
9.35836
9.56195
9.76114
9.95595
10.1464
10.3326
10.5144
10.692
10.8651
11.0338
11.1978
11.3569
11.5107
11.6584
11.7998
11.9305
12.0629
12.1291
-6.89032
-6.89543
-6.9016
-6.9073
-6.91214
-6.91636
-6.92022
-6.92393
-6.92769
-6.93166
-6.93599
-6.9408
-6.9462
-6.95228
-6.95911
-6.96675
-6.97524
-6.98463
-6.99493
-7.00616
-7.01833
-7.03144
-7.04548
-7.06043
-7.0763
-7.09304
-7.11066
-7.12911
-7.14838
-7.16845
-7.18928
-7.21084
-7.23311
-7.25607
-7.27967
-7.30388
-7.32869
-7.35404
-7.37991
-7.40626
-7.43306
-7.46025
-7.48781
-7.51567
-7.54381
-7.57215
-7.60066
-7.62927
-7.65792
-7.68654
-7.71506
-7.7434
-7.77149
-7.79924
-7.82655
-7.85333
-7.87947
-7.90487
-7.92941
-7.95297
-7.97543
-7.99666
-8.01652
-8.03487
-8.05157
-8.06647
-8.07942
-8.09027
-8.09886
-8.10502
-8.10861
-8.10945
-8.10739
-8.10224
-8.09386
-8.08208
-8.06671
-8.04761
-8.0246
-7.99752
-7.96619
-7.93047
-7.89018
-7.84518
-7.79529
-7.74035
-7.68014
-7.6145
-7.54325
-7.46629
-7.38347
-7.2947
-7.19985
-7.09882
-6.9915
-6.87781
-6.75767
-6.63101
-6.49776
-6.35789
-6.21137
-6.05816
-5.89826
-5.73167
-5.55842
-5.37854
-5.19207
-4.99909
-4.79966
-4.59388
-4.38186
-4.16373
-3.93961
-3.70968
-3.47409
-3.23303
-2.9867
-2.7353
-2.47906
-2.21821
-1.953
-1.6837
-1.41057
-1.13389
-0.853949
-0.571048
-0.285487
0.00242581
0.292376
0.584045
0.877113
1.17126