/*--------------------------------*- C++ -*----------------------------------*\
  =========                 |
  \\      /  F ield         | OpenFOAM: The Open Source CFD Toolbox
   \\    /   O peration     | Website:  https://openfoam.org
    \\  /    A nd           | Version:  12
     \\/     M anipulation  |
\*---------------------------------------------------------------------------*/
FoamFile
{
    format      ascii;
    class       surfaceScalarField;
    location    "0.11";
    object      phi;
}
// * * * * * * * * * * * * * * * * * * * * * * * * * * * * * * * * * * * * * //

dimensions      [0 3 -1 0 0 0 0];

internalField   nonuniform List<scalar> 
24170
(
3.13359e-06
5.48115e-08
3.04825e-06
8.534e-08
2.97311e-06
7.51454e-08
2.90424e-06
6.88654e-08
2.83937e-06
6.48688e-08
2.7821e-06
5.72704e-08
2.73314e-06
4.896e-08
2.69155e-06
4.1598e-08
2.65602e-06
3.55296e-08
2.62538e-06
3.06338e-08
2.59867e-06
2.67136e-08
2.57506e-06
2.36095e-08
2.55385e-06
2.12101e-08
2.53433e-06
1.95204e-08
2.5158e-06
1.85323e-08
2.49624e-06
1.95532e-08
2.47428e-06
2.1964e-08
4.20882e-08
2.43219e-06
3.45361e-06
1.845e-08
3.45616e-06
8.27914e-08
3.4496e-06
8.16998e-08
3.43797e-06
8.05013e-08
3.42346e-06
7.93781e-08
3.40589e-06
7.48394e-08
3.38622e-06
6.86257e-08
3.36528e-06
6.25475e-08
3.34381e-06
5.69935e-08
3.32244e-06
5.20084e-08
3.30155e-06
4.76032e-08
3.28136e-06
4.37939e-08
3.26199e-06
4.05814e-08
3.24341e-06
3.81023e-08
3.22566e-06
3.62791e-08
3.20857e-06
3.66462e-08
3.19308e-06
3.74558e-08
4.97434e-08
3.18542e-06
3.66535e-06
1.56157e-08
3.67824e-06
6.98995e-08
3.68529e-06
7.46508e-08
3.68956e-06
7.6237e-08
3.69121e-06
7.77272e-08
3.69005e-06
7.60008e-08
3.68656e-06
7.21144e-08
3.68132e-06
6.77891e-08
3.67475e-06
6.35637e-08
3.66719e-06
5.956e-08
3.65894e-06
5.58588e-08
3.65019e-06
5.2546e-08
3.64108e-06
4.96869e-08
3.63172e-06
4.74593e-08
3.6221e-06
4.59059e-08
3.61267e-06
4.60765e-08
3.60303e-06
4.70969e-08
5.30855e-08
3.59968e-06
3.92465e-06
1.63582e-08
3.93579e-06
5.87563e-08
3.94252e-06
6.79208e-08
3.94798e-06
7.07806e-08
3.95236e-06
7.33406e-08
3.95525e-06
7.31126e-08
3.95676e-06
7.0601e-08
3.9572e-06
6.7355e-08
3.95674e-06
6.4022e-08
3.95553e-06
6.0765e-08
3.95371e-06
5.76825e-08
3.95137e-06
5.4884e-08
3.9486e-06
5.2464e-08
3.94546e-06
5.05919e-08
3.942e-06
4.93682e-08
3.93869e-06
4.93865e-08
3.93554e-06
5.02454e-08
5.30913e-08
3.93554e-06
4.20776e-06
1.57213e-08
4.21599e-06
5.05337e-08
4.22164e-06
6.22718e-08
4.22655e-06
6.58694e-08
4.23122e-06
6.86686e-08
4.23514e-06
6.91896e-08
4.2382e-06
6.75469e-08
4.24052e-06
6.50353e-08
4.24221e-06
6.23281e-08
4.24336e-06
5.96132e-08
4.24405e-06
5.6997e-08
4.24433e-06
5.45975e-08
4.24428e-06
5.25204e-08
4.24396e-06
5.09096e-08
4.24346e-06
4.98637e-08
4.24317e-06
4.96781e-08
4.24331e-06
5.01124e-08
5.12448e-08
4.24515e-06
4.51044e-06
1.43721e-08
4.51685e-06
4.41211e-08
4.52214e-06
5.69764e-08
4.52678e-06
6.12321e-08
4.53137e-06
6.40838e-08
4.53552e-06
6.50339e-08
4.53906e-06
6.40059e-08
4.54206e-06
6.20429e-08
4.54458e-06
5.98046e-08
4.54669e-06
5.75024e-08
4.54844e-06
5.52487e-08
4.54987e-06
5.31612e-08
4.55105e-06
5.13443e-08
4.55205e-06
4.99102e-08
4.55298e-06
4.89299e-08
4.55414e-06
4.85202e-08
4.55577e-06
4.84826e-08
4.85617e-08
4.55845e-06
4.83412e-06
1.29749e-08
4.83957e-06
3.86723e-08
4.8448e-06
5.17413e-08
4.84937e-06
5.66649e-08
4.85385e-06
5.96037e-08
4.85804e-06
6.08418e-08
4.86176e-06
6.0285e-08
4.86504e-06
5.8761e-08
4.86795e-06
5.68965e-08
4.87053e-06
5.4925e-08
4.87281e-06
5.29638e-08
4.87485e-06
5.1125e-08
4.87669e-06
4.95039e-08
4.87842e-06
4.81827e-08
4.88015e-06
4.71997e-08
4.8821e-06
4.65708e-08
4.88447e-06
4.61147e-08
4.55312e-08
4.8875e-06
5.1809e-06
1.16589e-08
5.18569e-06
3.38783e-08
5.19081e-06
4.66243e-08
5.19536e-06
5.21099e-08
5.1998e-06
5.51707e-08
5.20402e-06
5.66194e-08
5.20786e-06
5.64465e-08
5.21132e-06
5.52992e-08
5.21446e-06
5.37544e-08
5.21732e-06
5.20627e-08
5.21994e-06
5.03466e-08
5.22236e-06
4.87102e-08
5.22462e-06
4.72372e-08
5.22682e-06
4.59843e-08
5.22906e-06
4.4963e-08
5.23149e-06
4.41393e-08
5.23425e-06
4.33532e-08
4.23571e-08
5.23742e-06
5.5526e-06
1.03996e-08
5.55684e-06
2.96395e-08
5.56174e-06
4.17245e-08
5.56628e-06
4.7567e-08
5.5707e-06
5.0745e-08
5.57497e-06
5.23494e-08
5.57893e-06
5.24951e-08
5.58254e-06
5.16823e-08
5.58587e-06
5.0424e-08
5.58896e-06
4.89796e-08
5.59183e-06
4.74763e-08
5.59453e-06
4.60099e-08
5.59711e-06
4.46519e-08
5.59965e-06
4.34407e-08
5.60225e-06
4.23708e-08
5.605e-06
4.13899e-08
5.60798e-06
4.03663e-08
3.91243e-08
5.61122e-06
5.95098e-06
9.19357e-09
5.95474e-06
2.58785e-08
5.95938e-06
3.70867e-08
5.96389e-06
4.30569e-08
5.96832e-06
4.63186e-08
5.97263e-06
4.80327e-08
5.97669e-06
4.84345e-08
5.98046e-06
4.79157e-08
5.98397e-06
4.69167e-08
5.98725e-06
4.56953e-08
5.99035e-06
4.43813e-08
5.9933e-06
4.30626e-08
5.99615e-06
4.17997e-08
5.99897e-06
4.06194e-08
6.00183e-06
3.95087e-08
6.00481e-06
3.84152e-08
6.00793e-06
3.72384e-08
3.58673e-08
6.01119e-06
6.37795e-06
8.05435e-09
6.38131e-06
2.25178e-08
6.38568e-06
3.27194e-08
6.39013e-06
3.86039e-08
6.39455e-06
4.18966e-08
6.39891e-06
4.36783e-08
6.40307e-06
4.42736e-08
6.40698e-06
4.40037e-08
6.41066e-06
4.32362e-08
6.41414e-06
4.22157e-08
6.41745e-06
4.10719e-08
6.42063e-06
3.98854e-08
6.42372e-06
3.87078e-08
6.42678e-06
3.75596e-08
6.42986e-06
3.64273e-08
6.43301e-06
3.52683e-08
6.43624e-06
3.40114e-08
3.2595e-08
6.43951e-06
5.74175e-06
7.14293e-09
5.74432e-06
1.99422e-08
5.74781e-06
2.92343e-08
5.75151e-06
3.48982e-08
5.75524e-06
3.81658e-08
5.75895e-06
3.99756e-08
5.76253e-06
4.0688e-08
5.76595e-06
4.05898e-08
5.76919e-06
3.99948e-08
5.77227e-06
3.91278e-08
5.77523e-06
3.8115e-08
5.77809e-06
3.70316e-08
5.78087e-06
3.5924e-08
5.78362e-06
3.48098e-08
5.78637e-06
3.3679e-08
5.78914e-06
3.24996e-08
5.79193e-06
3.12216e-08
2.98157e-08
5.7947e-06
6.99913e-06
6.169e-09
7.00185e-06
1.72184e-08
7.00562e-06
2.54633e-08
7.00977e-06
3.07538e-08
7.01402e-06
3.39135e-08
7.01829e-06
3.57091e-08
7.02247e-06
3.65079e-08
7.02649e-06
3.65645e-08
7.03035e-06
3.61379e-08
7.03405e-06
3.54271e-08
7.03761e-06
3.45508e-08
7.04107e-06
3.35788e-08
7.04444e-06
3.25523e-08
7.04776e-06
3.14889e-08
7.05106e-06
3.03838e-08
7.05434e-06
2.92179e-08
7.0576e-06
2.79609e-08
2.66086e-08
7.0608e-06
8.53187e-06
5.1416e-09
8.53472e-06
1.43723e-08
8.53875e-06
2.14323e-08
8.54333e-06
2.61757e-08
8.54813e-06
2.91152e-08
8.553e-06
3.0833e-08
8.55784e-06
3.16699e-08
8.56256e-06
3.18484e-08
8.56712e-06
3.15749e-08
8.57153e-06
3.10164e-08
8.5758e-06
3.02797e-08
8.57995e-06
2.94283e-08
8.58401e-06
2.84997e-08
8.58798e-06
2.75117e-08
8.5919e-06
2.64669e-08
8.59576e-06
2.53582e-08
8.59955e-06
2.41718e-08
2.29203e-08
8.60324e-06
1.04003e-05
4.07101e-09
1.04032e-05
1.14206e-08
1.04075e-05
1.71585e-08
1.04125e-05
2.11679e-08
1.04179e-05
2.37462e-08
1.04234e-05
2.52981e-08
1.0429e-05
2.61062e-08
1.04345e-05
2.6357e-08
1.04398e-05
2.62084e-08
1.04451e-05
2.57911e-08
1.04502e-05
2.51952e-08
1.04551e-05
2.44764e-08
1.04599e-05
2.36681e-08
1.04647e-05
2.27893e-08
1.04693e-05
2.18483e-08
1.04738e-05
2.08478e-08
1.04782e-05
1.97856e-08
1.86837e-08
1.04824e-05
1.26779e-05
2.96231e-09
1.2681e-05
8.35333e-09
1.26855e-05
1.26309e-08
1.26909e-05
1.57157e-08
1.26969e-05
1.77678e-08
1.27032e-05
1.90394e-08
1.27096e-05
1.97344e-08
1.27159e-05
1.99938e-08
1.27222e-05
1.99303e-08
1.27283e-05
1.96372e-08
1.27344e-05
1.91828e-08
1.27402e-05
1.8612e-08
1.27459e-05
1.79531e-08
1.27515e-05
1.72244e-08
1.27569e-05
1.64374e-08
1.27622e-05
1.56003e-08
1.27672e-05
1.47173e-08
1.38139e-08
1.27721e-05
1.54543e-05
1.8036e-09
1.54576e-05
5.11746e-09
1.54624e-05
7.77883e-09
1.54684e-05
9.74421e-09
1.54751e-05
1.109e-08
1.54822e-05
1.19473e-08
1.54895e-05
1.2432e-08
1.54968e-05
1.26293e-08
1.55042e-05
1.26065e-08
1.55114e-05
1.24191e-08
1.55184e-05
1.21098e-08
1.55254e-05
1.17079e-08
1.55321e-05
1.12339e-08
1.55386e-05
1.07021e-08
1.55449e-05
1.01233e-08
1.5551e-05
9.50683e-09
1.55569e-05
8.85851e-09
8.20249e-09
1.55625e-05
1.88389e-05
5.52321e-10
1.88424e-05
1.57887e-09
1.88478e-05
2.41139e-09
1.88545e-05
3.04194e-09
1.88621e-05
3.494e-09
1.88702e-05
3.79791e-09
1.88787e-05
3.97664e-09
1.88873e-05
4.04891e-09
1.88959e-05
4.03265e-09
1.89043e-05
3.94363e-09
1.89126e-05
3.79413e-09
1.89208e-05
3.59359e-09
1.89286e-05
3.34967e-09
1.89363e-05
3.069e-09
1.89436e-05
2.75753e-09
1.89507e-05
2.42152e-09
1.89575e-05
2.06507e-09
1.70754e-09
1.8964e-05
2.29648e-05
-9.00169e-10
2.29689e-05
-2.56773e-09
2.29753e-05
-3.91413e-09
2.29832e-05
-4.89451e-09
2.29922e-05
-5.52428e-09
2.30019e-05
-5.88941e-09
2.3012e-05
-6.08289e-09
2.30222e-05
-6.1634e-09
2.30324e-05
-6.16794e-09
2.30424e-05
-6.12812e-09
2.30523e-05
-6.06959e-09
2.30619e-05
-6.00896e-09
2.30712e-05
-5.95544e-09
2.30802e-05
-5.914e-09
2.30888e-05
-5.88694e-09
2.30971e-05
-5.8741e-09
2.31051e-05
-5.87542e-09
-5.87833e-09
2.31127e-05
1.68119e-05
-2.05114e-09
1.68151e-05
-5.81786e-09
1.68201e-05
-8.86696e-09
1.68262e-05
-1.10525e-08
1.68331e-05
-1.24222e-08
1.68404e-05
-1.32097e-08
1.6848e-05
-1.36185e-08
1.68556e-05
-1.3757e-08
1.68631e-05
-1.37002e-08
1.68705e-05
-1.35189e-08
1.68777e-05
-1.32684e-08
1.68847e-05
-1.29833e-08
1.68914e-05
-1.26843e-08
1.68979e-05
-1.2385e-08
1.69041e-05
-1.20936e-08
1.691e-05
-1.18141e-08
1.69157e-05
-1.1549e-08
-1.12899e-08
1.69211e-05
1.46357e-05
-3.16571e-09
1.46389e-05
-8.99323e-09
1.46437e-05
-1.37167e-08
1.46496e-05
-1.69692e-08
1.46561e-05
-1.88961e-08
1.46629e-05
-1.99715e-08
1.46697e-05
-2.04976e-08
1.46766e-05
-2.06085e-08
1.46833e-05
-2.04241e-08
1.46899e-05
-2.00611e-08
1.46962e-05
-1.95986e-08
1.47023e-05
-1.90823e-08
1.47081e-05
-1.85413e-08
1.47138e-05
-1.79957e-08
1.47191e-05
-1.74583e-08
1.47242e-05
-1.69359e-08
1.47291e-05
-1.64324e-08
-1.59421e-08
1.47338e-05
1.27412e-05
-4.21948e-09
1.27444e-05
-1.22193e-08
1.27494e-05
-1.8699e-08
1.27552e-05
-2.27965e-08
1.27614e-05
-2.50511e-08
1.27677e-05
-2.63073e-08
1.27741e-05
-2.6869e-08
1.27803e-05
-2.68632e-08
1.27864e-05
-2.64815e-08
1.27922e-05
-2.58954e-08
1.27978e-05
-2.52e-08
1.28032e-05
-2.4445e-08
1.28083e-05
-2.36648e-08
1.28132e-05
-2.28843e-08
1.28179e-05
-2.21183e-08
1.28223e-05
-2.13744e-08
1.28265e-05
-2.06565e-08
-1.99604e-08
1.28305e-05
1.10918e-05
-5.10178e-09
1.10951e-05
-1.55556e-08
1.11005e-05
-2.40169e-08
1.11063e-05
-2.86081e-08
1.11122e-05
-3.09294e-08
1.11181e-05
-3.22699e-08
1.1124e-05
-3.27776e-08
1.11297e-05
-3.25717e-08
1.11352e-05
-3.1944e-08
1.11404e-05
-3.11108e-08
1.11454e-05
-3.01696e-08
1.11501e-05
-2.91717e-08
1.11546e-05
-2.81568e-08
1.11589e-05
-2.71525e-08
1.11629e-05
-2.61737e-08
1.11668e-05
-2.52272e-08
1.11704e-05
-2.43162e-08
-2.34369e-08
1.11739e-05
9.65583e-06
-5.72031e-09
9.65937e-06
-1.90925e-08
9.66499e-06
-2.9638e-08
9.6707e-06
-3.4318e-08
9.67637e-06
-3.6601e-08
9.68205e-06
-3.79438e-08
9.68752e-06
-3.82553e-08
9.69271e-06
-3.7755e-08
9.69761e-06
-3.68505e-08
9.70227e-06
-3.57642e-08
9.70667e-06
-3.4576e-08
9.71084e-06
-3.33374e-08
9.71478e-06
-3.20934e-08
9.7185e-06
-3.08732e-08
9.72201e-06
-2.96912e-08
9.72534e-06
-2.85531e-08
9.72848e-06
-2.74601e-08
-2.64073e-08
9.73145e-06
8.40544e-06
-5.80435e-09
8.40982e-06
-2.34782e-08
8.41534e-06
-3.51584e-08
8.42056e-06
-3.95312e-08
8.42601e-06
-4.20593e-08
8.43152e-06
-4.34479e-08
8.43671e-06
-4.34428e-08
8.44151e-06
-4.25558e-08
8.44598e-06
-4.13229e-08
8.45016e-06
-3.99442e-08
8.45406e-06
-3.84771e-08
8.4577e-06
-3.69737e-08
8.46108e-06
-3.54818e-08
8.46424e-06
-3.40305e-08
8.46718e-06
-3.26334e-08
8.46993e-06
-3.12964e-08
8.47249e-06
-3.00201e-08
-2.88006e-08
8.47488e-06
7.31506e-06
-3.58104e-09
7.32196e-06
-3.03724e-08
7.32742e-06
-4.06228e-08
7.33221e-06
-4.43185e-08
7.33754e-06
-4.73949e-08
7.34294e-06
-4.88496e-08
7.34794e-06
-4.84357e-08
7.35245e-06
-4.70713e-08
7.35653e-06
-4.54036e-08
7.3602e-06
-4.36112e-08
7.36348e-06
-4.1753e-08
7.36639e-06
-3.98925e-08
7.36899e-06
-3.80792e-08
7.3713e-06
-3.63391e-08
7.37335e-06
-3.46839e-08
7.37517e-06
-3.31182e-08
7.37679e-06
-3.1639e-08
-3.02399e-08
7.37823e-06
6.36222e-06
4.26115e-09
6.37296e-06
-4.1105e-08
6.38009e-06
-4.7761e-08
6.38629e-06
-5.05139e-08
6.39228e-06
-5.3383e-08
6.39759e-06
-5.41587e-08
6.40197e-06
-5.28189e-08
6.40557e-06
-5.06751e-08
6.40851e-06
-4.83413e-08
6.41083e-06
-4.59299e-08
6.41259e-06
-4.35084e-08
6.41385e-06
-4.11548e-08
6.41469e-06
-3.89174e-08
6.41516e-06
-3.68159e-08
6.41534e-06
-3.48569e-08
6.41526e-06
-3.30416e-08
6.41498e-06
-3.13616e-08
-2.97965e-08
6.41454e-06
5.53608e-06
1.36439e-08
5.54776e-06
-5.27847e-08
5.55746e-06
-5.74568e-08
5.56604e-06
-5.90948e-08
5.57282e-06
-6.01648e-08
5.57726e-06
-5.85966e-08
5.57942e-06
-5.4985e-08
5.57988e-06
-5.11312e-08
5.57905e-06
-4.751e-08
5.57721e-06
-4.4093e-08
5.57459e-06
-4.08875e-08
5.57137e-06
-3.79314e-08
5.56769e-06
-3.52382e-08
5.56367e-06
-3.27994e-08
5.55942e-06
-3.06008e-08
5.55501e-06
-2.86391e-08
5.55056e-06
-2.69054e-08
-2.53385e-08
5.5461e-06
4.85751e-06
-1.62568e-08
4.86091e-06
-5.61893e-08
4.86151e-06
-5.80557e-08
4.85885e-06
-5.64362e-08
4.85486e-06
-5.61687e-08
4.84818e-06
-5.19157e-08
4.83894e-06
-4.57486e-08
4.82771e-06
-3.98997e-08
4.81512e-06
-3.49229e-08
4.80177e-06
-3.07407e-08
4.7881e-06
-2.72174e-08
4.77442e-06
-2.42497e-08
4.76093e-06
-2.17469e-08
4.74776e-06
-1.96297e-08
4.73499e-06
-1.78352e-08
4.7227e-06
-1.63535e-08
4.71101e-06
-1.52112e-08
-1.49013e-08
4.70057e-06
4.18642e-06
4.13023e-06
4.07217e-06
4.01574e-06
3.95957e-06
3.90765e-06
3.86191e-06
3.82201e-06
3.78708e-06
3.75634e-06
3.72912e-06
3.70487e-06
3.68313e-06
3.6635e-06
3.64566e-06
3.62931e-06
3.6141e-06
3.5992e-06
1.12077e-08
-1.12077e-08
2.70793e-08
-1.58717e-08
4.17419e-08
-1.46626e-08
5.26502e-08
-1.09083e-08
5.84927e-08
-5.84253e-09
5.86867e-08
-1.93916e-10
5.33778e-08
5.30887e-09
4.30802e-08
1.02976e-08
2.85927e-08
1.44875e-08
1.08005e-08
1.77922e-08
-9.46479e-09
2.02653e-08
-3.15547e-08
2.20899e-08
-5.50403e-08
2.34856e-08
-7.96804e-08
2.46401e-08
-1.05373e-07
2.56929e-08
-1.321e-07
2.6727e-08
-1.59883e-07
2.77829e-08
-1.88757e-07
2.88738e-08
-2.1875e-07
2.99934e-08
-2.49876e-07
3.11252e-08
-2.8217e-07
3.22944e-08
-3.15759e-07
3.35885e-08
-3.5062e-07
3.48619e-08
-3.861e-07
3.54796e-08
-4.21788e-07
3.56878e-08
-4.59702e-07
3.79141e-08
-4.9951e-07
3.98078e-08
-5.38565e-07
3.90555e-08
-5.79434e-07
4.08681e-08
-6.22683e-07
4.32495e-08
-6.66015e-07
4.33318e-08
-7.12567e-07
4.65526e-08
-7.59722e-07
4.71543e-08
-8.03845e-07
4.41232e-08
-8.45833e-07
4.19878e-08
-8.86777e-07
4.09446e-08
-9.28885e-07
4.2108e-08
-9.71269e-07
4.23832e-08
-1.01363e-06
4.2358e-08
-1.05579e-06
4.21627e-08
-1.09767e-06
4.18804e-08
-1.13923e-06
4.15632e-08
-1.18047e-06
4.12415e-08
-1.22141e-06
4.09327e-08
-1.26205e-06
4.06455e-08
-1.30244e-06
4.03834e-08
-1.34258e-06
4.01464e-08
-1.38252e-06
3.99325e-08
-1.42225e-06
3.97383e-08
-1.46181e-06
3.95595e-08
-1.5012e-06
3.93915e-08
-1.54043e-06
3.92294e-08
-1.5795e-06
3.90683e-08
-1.61841e-06
3.89037e-08
-1.65714e-06
3.87308e-08
-1.69568e-06
3.85455e-08
-1.73403e-06
3.83438e-08
-1.77215e-06
3.8122e-08
-1.81002e-06
3.78769e-08
-1.84763e-06
3.76053e-08
-1.88493e-06
3.73046e-08
-1.92191e-06
3.69725e-08
-1.95851e-06
3.66068e-08
-1.99472e-06
3.62058e-08
-2.03049e-06
3.57679e-08
-2.06578e-06
3.5292e-08
-2.10056e-06
3.47769e-08
-2.13478e-06
3.42219e-08
-2.1684e-06
3.36266e-08
-2.2014e-06
3.29903e-08
-2.23371e-06
3.23129e-08
-2.2653e-06
3.15944e-08
-2.29614e-06
3.08348e-08
-2.32617e-06
3.00343e-08
-2.35536e-06
2.91932e-08
-2.38368e-06
2.83118e-08
-2.41107e-06
2.73907e-08
-2.4375e-06
2.64303e-08
-2.46293e-06
2.54311e-08
-2.48732e-06
2.43936e-08
-2.51064e-06
2.33182e-08
-2.53285e-06
2.22054e-08
-2.5539e-06
2.10554e-08
-2.57377e-06
1.98683e-08
-2.59241e-06
1.86439e-08
-2.6098e-06
1.73818e-08
-2.62588e-06
1.6081e-08
-2.64062e-06
1.47402e-08
-2.65397e-06
1.33569e-08
-2.6659e-06
1.19281e-08
-2.67635e-06
1.0449e-08
-2.68526e-06
8.91227e-09
-2.69257e-06
7.30792e-09
-2.69819e-06
5.62121e-09
-2.70203e-06
3.84183e-09
-2.70401e-06
1.97751e-09
-2.70396e-06
-4.92274e-11
-2.70228e-06
-1.67946e-09
-2.69904e-06
-3.24434e-09
-2.69426e-06
-4.77858e-09
-2.68795e-06
-6.30549e-09
-2.68011e-06
-7.83947e-09
-2.67073e-06
-9.38328e-09
-2.65979e-06
-1.0937e-08
-2.6473e-06
-1.2499e-08
-2.63323e-06
-1.40675e-08
-2.61759e-06
-1.56404e-08
-2.60037e-06
-1.72156e-08
-2.58158e-06
-1.87907e-08
-2.56122e-06
-2.03635e-08
-2.53929e-06
-2.1932e-08
-2.51579e-06
-2.34937e-08
-2.49075e-06
-2.50464e-08
-2.46416e-06
-2.65878e-08
-2.43604e-06
-2.81157e-08
-2.40641e-06
-2.96277e-08
-2.37529e-06
-3.11215e-08
-2.3427e-06
-3.2595e-08
-2.30865e-06
-3.40458e-08
-2.27318e-06
-3.54719e-08
-2.23631e-06
-3.68709e-08
-2.19807e-06
-3.8241e-08
-2.15849e-06
-3.95798e-08
-2.1176e-06
-4.08856e-08
-2.07545e-06
-4.21561e-08
-2.03206e-06
-4.33894e-08
-1.98747e-06
-4.45837e-08
-1.94174e-06
-4.57371e-08
-1.89489e-06
-4.6848e-08
-1.84697e-06
-4.79149e-08
-1.79804e-06
-4.89364e-08
-1.74813e-06
-4.99111e-08
-1.69729e-06
-5.08377e-08
-1.64557e-06
-5.17151e-08
-1.59303e-06
-5.25423e-08
-1.53971e-06
-5.33188e-08
-1.48567e-06
-5.40439e-08
-1.43095e-06
-5.47174e-08
-1.37561e-06
-5.53388e-08
-1.3197e-06
-5.59083e-08
-1.26328e-06
-5.64261e-08
-1.20639e-06
-5.68927e-08
-1.14908e-06
-5.73089e-08
-1.0914e-06
-5.76755e-08
-1.03341e-06
-5.79937e-08
-9.75142e-07
-5.82651e-08
-9.16651e-07
-5.84913e-08
-8.57977e-07
-5.86742e-08
-7.9916e-07
-5.88161e-08
-7.40241e-07
-5.89194e-08
-6.81254e-07
-5.89867e-08
-6.22234e-07
-5.90207e-08
-5.63209e-07
-5.90243e-08
-5.04209e-07
-5.90005e-08
-4.45257e-07
-5.89522e-08
-3.86375e-07
-5.88819e-08
-3.27583e-07
-5.87917e-08
-2.68899e-07
-5.86839e-08
-2.10342e-07
-5.8557e-08
-1.51929e-07
-5.84135e-08
-9.36719e-08
-5.82569e-08
-3.55901e-08
-5.80818e-08
2.23019e-08
-5.78921e-08
7.99996e-08
-5.76977e-08
1.37539e-07
-5.75395e-08
1.94973e-07
-5.74343e-08
2.52357e-07
-5.73837e-08
3.09733e-07
-5.73758e-08
3.67132e-07
-5.73989e-08
4.24572e-07
-5.74399e-08
4.82053e-07
-5.74812e-08
5.39549e-07
-5.74961e-08
5.9699e-07
-5.74406e-08
6.54228e-07
-5.72385e-08
7.1097e-07
-5.67423e-08
7.66631e-07
-5.56605e-08
8.19851e-07
-5.32205e-08
8.6745e-07
-4.75984e-08
9.0022e-07
-3.277e-08
1.24868e-08
8.87733e-07
1.49536e-08
-2.61612e-08
2.55464e-08
-2.64645e-08
3.01224e-08
-1.92386e-08
2.98872e-08
-1.06731e-08
2.57233e-08
-1.67873e-09
1.8223e-08
7.30638e-09
7.59222e-09
1.59397e-08
-6.05151e-09
2.39413e-08
-2.26416e-08
3.10776e-08
-4.20697e-08
3.72202e-08
-6.41821e-08
4.23778e-08
-8.87747e-08
4.66825e-08
-1.15632e-07
5.03434e-08
-1.44572e-07
5.35799e-08
-1.75459e-07
5.65796e-08
-2.08212e-07
5.94799e-08
-2.42796e-07
6.23667e-08
-2.79203e-07
6.52812e-08
-3.17435e-07
6.82254e-08
-3.57485e-07
7.11752e-08
-3.99303e-07
7.41122e-08
-4.42737e-07
7.70225e-08
-4.87647e-07
7.97717e-08
-5.34245e-07
8.20777e-08
-5.82552e-07
8.39949e-08
-6.30733e-07
8.60954e-08
-6.78885e-07
8.79595e-08
-7.28715e-07
8.88855e-08
-7.77644e-07
8.97975e-08
-8.25153e-07
9.0758e-08
-8.72782e-07
9.09609e-08
-9.17385e-07
9.11562e-08
-9.60874e-07
9.06431e-08
-1.00556e-06
8.88041e-08
-1.05041e-06
8.68392e-08
-1.09466e-06
8.5196e-08
-1.13673e-06
8.41836e-08
-1.17759e-06
8.32442e-08
-1.21756e-06
8.23252e-08
-1.25684e-06
8.14394e-08
-1.29555e-06
8.05972e-08
-1.3338e-06
7.98072e-08
-1.37163e-06
7.90742e-08
-1.4091e-06
7.83991e-08
-1.44623e-06
7.77795e-08
-1.48306e-06
7.72104e-08
-1.5196e-06
7.66851e-08
-1.55586e-06
7.61955e-08
-1.59186e-06
7.57332e-08
-1.62759e-06
7.5289e-08
-1.66305e-06
7.48542e-08
-1.69824e-06
7.44199e-08
-1.73315e-06
7.39777e-08
-1.76776e-06
7.35198e-08
-1.80207e-06
7.30386e-08
-1.83605e-06
7.25273e-08
-1.86969e-06
7.19795e-08
-1.90296e-06
7.13896e-08
-1.93583e-06
7.07524e-08
-1.96829e-06
7.00633e-08
-2.0003e-06
6.93182e-08
-2.03185e-06
6.85136e-08
-2.06288e-06
6.76464e-08
-2.09339e-06
6.67141e-08
-2.12334e-06
6.57144e-08
-2.15269e-06
6.46456e-08
-2.18142e-06
6.35064e-08
-2.2095e-06
6.22956e-08
-2.23688e-06
6.10125e-08
-2.26355e-06
5.96568e-08
-2.28946e-06
5.82281e-08
-2.3146e-06
5.67266e-08
-2.33891e-06
5.51524e-08
-2.36239e-06
5.3506e-08
-2.38498e-06
5.1788e-08
-2.40667e-06
4.99991e-08
-2.42742e-06
4.81401e-08
-2.4472e-06
4.62117e-08
-2.46598e-06
4.4215e-08
-2.48374e-06
4.21507e-08
-2.50044e-06
4.00198e-08
-2.51606e-06
3.7823e-08
-2.53056e-06
3.55611e-08
-2.54393e-06
3.32346e-08
-2.55613e-06
3.08439e-08
-2.56714e-06
2.8389e-08
-2.57693e-06
2.58701e-08
-2.58547e-06
2.32865e-08
-2.59275e-06
2.0638e-08
-2.59875e-06
1.79238e-08
-2.60344e-06
1.51439e-08
-2.60683e-06
1.22986e-08
-2.60891e-06
9.39047e-09
-2.60972e-06
6.4258e-09
-2.60929e-06
3.41784e-09
-2.60776e-06
4.384e-10
-2.6052e-06
-2.60156e-09
-2.60135e-06
-5.5319e-09
-2.5961e-06
-8.49153e-09
-2.5894e-06
-1.14817e-08
-2.58121e-06
-1.44982e-08
-2.57151e-06
-1.75408e-08
-2.56028e-06
-2.06072e-08
-2.54752e-06
-2.36944e-08
-2.53323e-06
-2.67985e-08
-2.51738e-06
-2.99155e-08
-2.49998e-06
-3.3041e-08
-2.48102e-06
-3.61708e-08
-2.46051e-06
-3.93003e-08
-2.43845e-06
-4.24253e-08
-2.41484e-06
-4.55412e-08
-2.38969e-06
-4.86436e-08
-2.36301e-06
-5.1728e-08
-2.33481e-06
-5.47899e-08
-2.3051e-06
-5.78247e-08
-2.2739e-06
-6.08279e-08
-2.24122e-06
-6.3795e-08
-2.2071e-06
-6.67213e-08
-2.17154e-06
-6.96026e-08
-2.13458e-06
-7.24345e-08
-2.09624e-06
-7.52126e-08
-2.05654e-06
-7.79328e-08
-2.01553e-06
-8.0591e-08
-1.97324e-06
-8.31831e-08
-1.92969e-06
-8.57051e-08
-1.88492e-06
-8.81531e-08
-1.83898e-06
-9.05232e-08
-1.79191e-06
-9.28119e-08
-1.74374e-06
-9.5016e-08
-1.69452e-06
-9.71323e-08
-1.6443e-06
-9.9158e-08
-1.59312e-06
-1.0109e-07
-1.54103e-06
-1.02927e-07
-1.48808e-06
-1.04665e-07
-1.43432e-06
-1.06304e-07
-1.3798e-06
-1.07841e-07
-1.32457e-06
-1.09275e-07
-1.26868e-06
-1.10606e-07
-1.21219e-06
-1.11834e-07
-1.15514e-06
-1.12957e-07
-1.09758e-06
-1.13978e-07
-1.03958e-06
-1.14896e-07
-9.81178e-07
-1.15713e-07
-9.22423e-07
-1.1643e-07
-8.63365e-07
-1.17051e-07
-8.04052e-07
-1.17578e-07
-7.44528e-07
-1.18015e-07
-6.84838e-07
-1.18365e-07
-6.25022e-07
-1.18632e-07
-5.65119e-07
-1.18822e-07
-5.05166e-07
-1.1894e-07
-4.45196e-07
-1.1899e-07
-3.8524e-07
-1.1898e-07
-3.25326e-07
-1.18915e-07
-2.65476e-07
-1.18801e-07
-2.05714e-07
-1.18644e-07
-1.46057e-07
-1.18448e-07
-8.65217e-08
-1.18219e-07
-2.71195e-08
-1.17959e-07
3.21375e-08
-1.17671e-07
9.1241e-08
-1.1736e-07
1.50193e-07
-1.17033e-07
2.0901e-07
-1.16709e-07
2.67723e-07
-1.1641e-07
3.26353e-07
-1.1617e-07
3.84932e-07
-1.16013e-07
4.43488e-07
-1.1594e-07
5.02053e-07
-1.1594e-07
5.60651e-07
-1.15997e-07
6.19297e-07
-1.16086e-07
6.7799e-07
-1.16174e-07
7.36701e-07
-1.16207e-07
7.95357e-07
-1.16097e-07
8.5381e-07
-1.15691e-07
9.11771e-07
-1.14703e-07
9.68699e-07
-1.12589e-07
1.02353e-06
-1.08049e-07
1.07443e-06
-9.84989e-08
1.11797e-06
-7.63144e-08
-2.29792e-08
1.15344e-06
8.89824e-09
-3.50595e-08
9.98568e-09
-2.75519e-08
6.23849e-09
-1.54914e-08
-9.76293e-10
-3.45828e-09
-1.09293e-08
8.27426e-09
-2.32457e-08
1.96228e-08
-3.77612e-08
3.04552e-08
-5.444e-08
4.062e-08
-7.3336e-08
4.99736e-08
-9.454e-08
5.84243e-08
-1.18126e-07
6.59638e-08
-1.44116e-07
7.26726e-08
-1.72471e-07
7.86981e-08
-2.03105e-07
8.42143e-08
-2.35911e-07
8.93849e-08
-2.70769e-07
9.4338e-08
-3.07557e-07
9.91549e-08
-3.46142e-07
1.03866e-07
-3.86372e-07
1.08455e-07
-4.28063e-07
1.12866e-07
-4.70974e-07
1.17024e-07
-5.14791e-07
1.2084e-07
-5.59208e-07
1.24188e-07
-6.04068e-07
1.26938e-07
-6.49148e-07
1.29075e-07
-6.93758e-07
1.30705e-07
-7.3762e-07
1.31822e-07
-7.81039e-07
1.32304e-07
-8.2355e-07
1.32309e-07
-8.64731e-07
1.31939e-07
-9.04894e-07
1.31125e-07
-9.43676e-07
1.29937e-07
-9.81396e-07
1.28364e-07
-1.01898e-06
1.26391e-07
-1.05644e-06
1.24297e-07
-1.09356e-06
1.22317e-07
-1.12993e-06
1.20551e-07
-1.16564e-06
1.18952e-07
-1.20081e-06
1.17495e-07
-1.23553e-06
1.16163e-07
-1.26988e-06
1.14945e-07
-1.3039e-06
1.13832e-07
-1.33765e-06
1.12816e-07
-1.37113e-06
1.11886e-07
-1.40438e-06
1.11032e-07
-1.43742e-06
1.10244e-07
-1.47024e-06
1.09508e-07
-1.50286e-06
1.08813e-07
-1.53527e-06
1.08147e-07
-1.56748e-06
1.07496e-07
-1.59947e-06
1.06849e-07
-1.63125e-06
1.06195e-07
-1.66279e-06
1.05523e-07
-1.6941e-06
1.04821e-07
-1.72514e-06
1.04081e-07
-1.7559e-06
1.03294e-07
-1.78638e-06
1.02451e-07
-1.81653e-06
1.01545e-07
-1.84635e-06
1.00569e-07
-1.8758e-06
9.95179e-08
-1.90487e-06
9.83856e-08
-1.93352e-06
9.71678e-08
-1.96174e-06
9.58603e-08
-1.98948e-06
9.44598e-08
-2.01673e-06
9.29632e-08
-2.04345e-06
9.13682e-08
-2.06962e-06
8.9673e-08
-2.0952e-06
8.7876e-08
-2.12017e-06
8.59762e-08
-2.14448e-06
8.39729e-08
-2.16812e-06
8.18659e-08
-2.19105e-06
7.9655e-08
-2.21324e-06
7.73406e-08
-2.23465e-06
7.49232e-08
-2.25527e-06
7.24035e-08
-2.27505e-06
6.97824e-08
-2.29397e-06
6.7061e-08
-2.312e-06
6.42404e-08
-2.32911e-06
6.1322e-08
-2.34527e-06
5.83071e-08
-2.36044e-06
5.51971e-08
-2.37461e-06
5.19934e-08
-2.38775e-06
4.86972e-08
-2.39982e-06
4.53099e-08
-2.41081e-06
4.18328e-08
-2.42069e-06
3.82671e-08
-2.42944e-06
3.46139e-08
-2.43702e-06
3.08747e-08
-2.44344e-06
2.70509e-08
-2.44866e-06
2.31449e-08
-2.45267e-06
1.91598e-08
-2.45548e-06
1.51003e-08
-2.45706e-06
1.09735e-08
-2.45742e-06
6.78929e-09
-2.45657e-06
2.56343e-09
-2.45445e-06
-1.68342e-09
-2.45108e-06
-5.96418e-09
-2.44634e-06
-1.02704e-08
-2.44021e-06
-1.46294e-08
-2.43265e-06
-1.90415e-08
-2.42364e-06
-2.35026e-08
-2.41318e-06
-2.80073e-08
-2.40123e-06
-3.25498e-08
-2.3878e-06
-3.71241e-08
-2.37288e-06
-4.1724e-08
-2.35645e-06
-4.63433e-08
-2.33852e-06
-5.09754e-08
-2.31907e-06
-5.5614e-08
-2.29812e-06
-6.02524e-08
-2.27566e-06
-6.4884e-08
-2.2517e-06
-6.95024e-08
-2.22624e-06
-7.41009e-08
-2.1993e-06
-7.86728e-08
-2.17088e-06
-8.32115e-08
-2.14099e-06
-8.77102e-08
-2.10966e-06
-9.21622e-08
-2.07689e-06
-9.65608e-08
-2.04271e-06
-1.00899e-07
-2.00715e-06
-1.05171e-07
-1.97021e-06
-1.09369e-07
-1.93194e-06
-1.13488e-07
-1.89235e-06
-1.17521e-07
-1.85148e-06
-1.21462e-07
-1.80935e-06
-1.25305e-07
-1.76601e-06
-1.29044e-07
-1.72149e-06
-1.32674e-07
-1.67583e-06
-1.36188e-07
-1.62906e-06
-1.39581e-07
-1.58123e-06
-1.42849e-07
-1.53237e-06
-1.45986e-07
-1.48254e-06
-1.48988e-07
-1.43178e-06
-1.51852e-07
-1.38013e-06
-1.54574e-07
-1.32765e-06
-1.5715e-07
-1.27438e-06
-1.59577e-07
-1.22036e-06
-1.61854e-07
-1.16566e-06
-1.63978e-07
-1.11032e-06
-1.65948e-07
-1.05439e-06
-1.67764e-07
-9.9792e-07
-1.69426e-07
-9.40965e-07
-1.70933e-07
-8.83572e-07
-1.72288e-07
-8.25793e-07
-1.73493e-07
-7.67674e-07
-1.74549e-07
-7.09264e-07
-1.75461e-07
-6.50609e-07
-1.76233e-07
-5.91753e-07
-1.7687e-07
-5.3274e-07
-1.77378e-07
-4.73611e-07
-1.77762e-07
-4.14403e-07
-1.7803e-07
-3.55152e-07
-1.7819e-07
-2.95892e-07
-1.78251e-07
-2.36652e-07
-1.7822e-07
-1.7746e-07
-1.78107e-07
-1.1834e-07
-1.77922e-07
-5.93116e-08
-1.77673e-07
-3.91399e-10
-1.77368e-07
5.84053e-08
-1.77016e-07
1.17068e-07
-1.76622e-07
1.75593e-07
-1.76195e-07
2.33981e-07
-1.75748e-07
2.92246e-07
-1.75299e-07
3.50418e-07
-1.74882e-07
4.08533e-07
-1.74525e-07
4.66604e-07
-1.74242e-07
5.24645e-07
-1.74054e-07
5.82676e-07
-1.7397e-07
6.40717e-07
-1.73982e-07
6.98789e-07
-1.74069e-07
7.56904e-07
-1.74201e-07
8.15059e-07
-1.74329e-07
8.73225e-07
-1.74373e-07
9.31334e-07
-1.74205e-07
9.89247e-07
-1.73604e-07
1.04672e-06
-1.72173e-07
1.10331e-06
-1.69177e-07
1.15832e-06
-1.63062e-07
1.21074e-06
-1.50918e-07
1.26009e-06
-1.25664e-07
-7.36017e-08
1.31071e-06
-1.15004e-09
-3.39094e-08
-8.34845e-09
-2.03535e-08
-1.84655e-08
-5.3744e-09
-3.07003e-08
8.77662e-09
-4.47556e-08
2.23295e-08
-6.0497e-08
3.53642e-08
-7.78982e-08
4.78564e-08
-9.70047e-08
5.97266e-08
-1.17914e-07
7.0883e-08
-1.40747e-07
8.12571e-08
-1.65611e-07
9.08278e-08
-1.9257e-07
9.96312e-08
-2.21622e-07
1.07751e-07
-2.52702e-07
1.15295e-07
-2.85686e-07
1.22369e-07
-3.20403e-07
1.29054e-07
-3.56642e-07
1.35395e-07
-3.94164e-07
1.41388e-07
-4.32699e-07
1.4699e-07
-4.71961e-07
1.52128e-07
-5.11648e-07
1.56711e-07
-5.51457e-07
1.60648e-07
-5.91125e-07
1.63857e-07
-6.30472e-07
1.66285e-07
-6.69345e-07
1.67948e-07
-7.07549e-07
1.68909e-07
-7.44944e-07
1.69217e-07
-7.8156e-07
1.6892e-07
-8.1737e-07
1.68119e-07
-8.52329e-07
1.66898e-07
-8.8652e-07
1.65316e-07
-9.20032e-07
1.63449e-07
-9.53015e-07
1.61347e-07
-9.85705e-07
1.59081e-07
-1.01819e-06
1.56781e-07
-1.05044e-06
1.54569e-07
-1.0824e-06
1.5251e-07
-1.11406e-06
1.50615e-07
-1.14545e-06
1.48882e-07
-1.17659e-06
1.47301e-07
-1.2075e-06
1.45861e-07
-1.23822e-06
1.44549e-07
-1.26876e-06
1.43352e-07
-1.29913e-06
1.42256e-07
-1.32934e-06
1.41246e-07
-1.3594e-06
1.40308e-07
-1.38932e-06
1.39426e-07
-1.41909e-06
1.38584e-07
-1.44871e-06
1.37768e-07
-1.47818e-06
1.36963e-07
-1.50749e-06
1.36154e-07
-1.53662e-06
1.35327e-07
-1.56556e-06
1.34469e-07
-1.59431e-06
1.33569e-07
-1.62284e-06
1.32614e-07
-1.65114e-06
1.31594e-07
-1.67919e-06
1.30499e-07
-1.70697e-06
1.2932e-07
-1.73445e-06
1.28049e-07
-1.76161e-06
1.26679e-07
-1.78843e-06
1.25204e-07
-1.81488e-06
1.23616e-07
-1.84093e-06
1.21913e-07
-1.86656e-06
1.20088e-07
-1.89174e-06
1.1814e-07
-1.91643e-06
1.16064e-07
-1.94062e-06
1.13858e-07
-1.96426e-06
1.11521e-07
-1.98733e-06
1.0905e-07
-2.00981e-06
1.06446e-07
-2.03165e-06
1.03707e-07
-2.05283e-06
1.00834e-07
-2.07331e-06
9.78271e-08
-2.09308e-06
9.46864e-08
-2.11209e-06
9.1413e-08
-2.13031e-06
8.80081e-08
-2.14773e-06
8.44731e-08
-2.16429e-06
8.08094e-08
-2.17999e-06
7.70189e-08
-2.19479e-06
7.31033e-08
-2.20865e-06
6.90646e-08
-2.22157e-06
6.49048e-08
-2.23349e-06
6.06259e-08
-2.24441e-06
5.62301e-08
-2.2543e-06
5.17194e-08
-2.26313e-06
4.70961e-08
-2.27088e-06
4.23625e-08
-2.27753e-06
3.75212e-08
-2.28305e-06
3.25752e-08
-2.28743e-06
2.75282e-08
-2.29066e-06
2.23846e-08
-2.29271e-06
1.71503e-08
-2.29357e-06
1.18322e-08
-2.29322e-06
6.4387e-09
-2.29163e-06
9.79208e-10
-2.28878e-06
-4.53929e-09
-2.28462e-06
-1.01187e-08
-2.27913e-06
-1.57649e-08
-2.27227e-06
-2.14862e-08
-2.26403e-06
-2.72796e-08
-2.2544e-06
-3.31391e-08
-2.24335e-06
-3.90573e-08
-2.23087e-06
-4.50262e-08
-2.21696e-06
-5.10375e-08
-2.2016e-06
-5.70829e-08
-2.18479e-06
-6.3154e-08
-2.16652e-06
-6.92422e-08
-2.14679e-06
-7.53389e-08
-2.12561e-06
-8.14357e-08
-2.10297e-06
-8.75238e-08
-2.07888e-06
-9.35947e-08
-2.05334e-06
-9.96395e-08
-2.02636e-06
-1.0565e-07
-1.99796e-06
-1.11616e-07
-1.96814e-06
-1.17531e-07
-1.93692e-06
-1.23384e-07
-1.90431e-06
-1.29167e-07
-1.87034e-06
-1.34872e-07