/*--------------------------------*- C++ -*----------------------------------*\
  =========                 |
  \\      /  F ield         | OpenFOAM: The Open Source CFD Toolbox
   \\    /   O peration     | Website:  https://openfoam.org
    \\  /    A nd           | Version:  12
     \\/     M anipulation  |
\*---------------------------------------------------------------------------*/
FoamFile
{
    format      ascii;
    class       volVectorField;
    location    "0.11";
    object      U;
}
// * * * * * * * * * * * * * * * * * * * * * * * * * * * * * * * * * * * * * //

dimensions      [0 1 -1 0 0 0 0];

internalField   nonuniform List<vector> 
12225
(
(9.86107 -0.874316 0)
(9.67245 -0.700186 0)
(9.45888 -0.387581 0)
(9.2245 -0.188462 0)
(9.00321 -0.0843742 0)
(8.80999 -0.0328508 0)
(8.64454 -0.0075178 0)
(8.50334 0.00506733 0)
(8.38291 0.0113913 0)
(8.27972 0.0145432 0)
(8.19036 0.0160601 0)
(8.11195 0.0167609 0)
(8.04203 0.0170938 0)
(7.97873 0.0173669 0)
(7.91891 0.0177778 0)
(7.86358 0.019227 0)
(7.7899 0.0223627 0)
(7.76318 0.0341361 0)
(10.0547 0.263072 0)
(10.1201 0.36075 0)
(10.118 0.273837 0)
(10.0825 0.187114 0)
(10.0404 0.131197 0)
(9.99373 0.0969725 0)
(9.93984 0.075617 0)
(9.87999 0.0618271 0)
(9.81728 0.0524437 0)
(9.75418 0.0456559 0)
(9.69212 0.0405244 0)
(9.63191 0.0365948 0)
(9.5739 0.0336209 0)
(9.5185 0.0316116 0)
(9.46478 0.030423 0)
(9.41552 0.0320471 0)
(9.36274 0.0338093 0)
(9.33904 0.0572189 0)
(9.99919 0.0460911 0)
(10.0244 0.0342236 0)
(10.0538 0.0149742 0)
(10.0707 0.021849 0)
(10.0777 0.0367249 0)
(10.0781 0.0460773 0)
(10.0719 0.0500376 0)
(10.0599 0.0512535 0)
(10.0434 0.051192 0)
(10.0238 0.0505174 0)
(10.0021 0.0496055 0)
(9.9788 0.0487108 0)
(9.95432 0.0479948 0)
(9.92912 0.0477247 0)
(9.90308 0.0479963 0)
(9.87734 0.0503489 0)
(9.85092 0.0538827 0)
(9.83092 0.0674254 0)
(9.99679 0.00643342 0)
(10.0085 0.025036 0)
(10.0342 0.0389688 0)
(10.0527 0.0503484 0)
(10.0643 0.0571724 0)
(10.0729 0.0592508 0)
(10.0787 0.0589659 0)
(10.0812 0.0580796 0)
(10.081 0.0571159 0)
(10.0788 0.0561543 0)
(10.0749 0.0552531 0)
(10.0695 0.0545093 0)
(10.063 0.0540275 0)
(10.0554 0.0540354 0)
(10.047 0.0547002 0)
(10.0383 0.0570443 0)
(10.0299 0.0607237 0)
(10.0245 0.0687274 0)
(9.99922 0.00674487 0)
(10.0081 0.0335974 0)
(10.0271 0.0460846 0)
(10.0417 0.0509058 0)
(10.0523 0.0539976 0)
(10.062 0.0556136 0)
(10.0705 0.0559936 0)
(10.077 0.0558509 0)
(10.0817 0.0555348 0)
(10.085 0.0551408 0)
(10.0872 0.0547501 0)
(10.0883 0.0544779 0)
(10.0886 0.0544497 0)
(10.0881 0.0548702 0)
(10.0871 0.0559246 0)
(10.086 0.0581952 0)
(10.0856 0.0614976 0)
(10.0874 0.0664588 0)
(10.0002 0.0090837 0)
(10.0078 0.0321546 0)
(10.0225 0.0419627 0)
(10.0349 0.0457408 0)
(10.0447 0.0492284 0)
(10.054 0.051798 0)
(10.0627 0.0529771 0)
(10.0701 0.0533788 0)
(10.0761 0.0534817 0)
(10.0812 0.0534547 0)
(10.0855 0.0533967 0)
(10.089 0.0534262 0)
(10.0919 0.0536694 0)
(10.0943 0.0542951 0)
(10.0963 0.0554549 0)
(10.0986 0.0574423 0)
(10.1015 0.0600933 0)
(10.106 0.0632674 0)
(10.0003 0.00881244 0)
(10.0068 0.0275544 0)
(10.0189 0.0371451 0)
(10.0302 0.0418315 0)
(10.0394 0.0457853 0)
(10.048 0.0486491 0)
(10.0563 0.0501065 0)
(10.0637 0.0507578 0)
(10.0701 0.0510928 0)
(10.0757 0.0512885 0)
(10.0807 0.0514387 0)
(10.0852 0.0516536 0)
(10.0891 0.0520482 0)
(10.0928 0.0527521 0)
(10.0963 0.0538681 0)
(10.1 0.0555143 0)
(10.1044 0.0575163 0)
(10.1099 0.0595241 0)
(10.0004 0.0078518 0)
(10.0057 0.0237383 0)
(10.016 0.0334428 0)
(10.0263 0.0386943 0)
(10.035 0.0426277 0)
(10.0431 0.0454665 0)
(10.0509 0.0470746 0)
(10.0581 0.0479204 0)
(10.0644 0.0484324 0)
(10.0702 0.0487892 0)
(10.0755 0.0490847 0)
(10.0803 0.0494196 0)
(10.0848 0.0498936 0)
(10.0891 0.0506 0)
(10.0933 0.0515954 0)
(10.0978 0.0528975 0)
(10.1027 0.0543276 0)
(10.1084 0.0555371 0)
(10.0004 0.00696822 0)
(10.0049 0.0207584 0)
(10.0136 0.0301208 0)
(10.0229 0.0355251 0)
(10.0311 0.0393534 0)
(10.0387 0.0421648 0)
(10.0461 0.0439157 0)
(10.053 0.0449345 0)
(10.0593 0.0455895 0)
(10.065 0.0460668 0)
(10.0704 0.0464642 0)
(10.0754 0.0468721 0)
(10.0801 0.0473728 0)
(10.0847 0.0480295 0)
(10.0893 0.0488638 0)
(10.0941 0.0498416 0)
(10.0992 0.0507973 0)
(10.1048 0.0514546 0)
(10.0004 0.00618391 0)
(10.0042 0.0181804 0)
(10.0115 0.0268957 0)
(10.0199 0.0322799 0)
(10.0276 0.0360377 0)
(10.0348 0.0388243 0)
(10.0418 0.040675 0)
(10.0485 0.0418262 0)
(10.0546 0.0425912 0)
(10.0603 0.0431572 0)
(10.0656 0.0436234 0)
(10.0707 0.0440687 0)
(10.0755 0.0445589 0)
(10.0803 0.0451343 0)
(10.085 0.0457939 0)
(10.0899 0.0464834 0)
(10.095 0.0470627 0)
(10.1004 0.0473371 0)
(10.0003 0.00544958 0)
(10.0036 0.0158651 0)
(10.0098 0.0238219 0)
(10.0172 0.0290679 0)
(10.0244 0.0327397 0)
(10.0312 0.0354655 0)
(10.0379 0.0373561 0)
(10.0443 0.0385948 0)
(10.0502 0.0394398 0)
(10.0558 0.0400677 0)
(10.0611 0.0405756 0)
(10.0662 0.0410316 0)
(10.0711 0.0414868 0)
(10.0759 0.0419658 0)
(10.0807 0.0424561 0)
(10.0856 0.0429019 0)
(10.0906 0.0431932 0)
(10.0957 0.0432049 0)
(10.0003 0.00479938 0)
(10.0031 0.0139267 0)
(10.0085 0.0211588 0)
(10.0152 0.0261764 0)
(10.0218 0.0297255 0)
(10.0283 0.0323614 0)
(10.0346 0.0342432 0)
(10.0408 0.0355237 0)
(10.0466 0.0364143 0)
(10.0521 0.0370754 0)
(10.0573 0.0375992 0)
(10.0624 0.0380451 0)
(10.0673 0.0384534 0)
(10.0721 0.0388396 0)
(10.0769 0.0391877 0)
(10.0817 0.0394495 0)
(10.0865 0.0395421 0)
(10.0914 0.0393907 0)
(10.0003 0.00419507 0)
(10.0027 0.0121659 0)
(10.0074 0.0186552 0)
(10.0134 0.0233534 0)
(10.0196 0.0267368 0)
(10.0257 0.0292585 0)
(10.0317 0.0310966 0)
(10.0376 0.0323859 0)
(10.0433 0.0332978 0)
(10.0487 0.0339725 0)
(10.0538 0.0344955 0)
(10.0588 0.0349189 0)
(10.0637 0.0352747 0)
(10.0685 0.0355733 0)
(10.0732 0.0357993 0)
(10.0779 0.035915 0)
(10.0826 0.0358601 0)
(10.0872 0.0355971 0)
(10.0003 0.00356545 0)
(10.0024 0.0103344 0)
(10.0064 0.0159739 0)
(10.0117 0.0202219 0)
(10.0173 0.0233518 0)
(10.0231 0.0257005 0)
(10.0288 0.0274428 0)
(10.0344 0.0286981 0)
(10.0398 0.0295998 0)
(10.0451 0.0302636 0)
(10.0502 0.0307649 0)
(10.0551 0.0311486 0)
(10.0599 0.0314399 0)
(10.0646 0.0316462 0)
(10.0692 0.0317562 0)
(10.0738 0.0317443 0)
(10.0783 0.0315718 0)
(10.0827 0.0312292 0)
(10.0002 0.00290881 0)
(10.002 0.00843064 0)
(10.0055 0.0131246 0)
(10.0101 0.0167872 0)
(10.0152 0.0195537 0)
(10.0205 0.0216513 0)
(10.0259 0.0232305 0)
(10.0312 0.0243931 0)
(10.0365 0.025239 0)
(10.0416 0.0258572 0)
(10.0465 0.0263096 0)
(10.0513 0.0266336 0)
(10.0561 0.0268495 0)
(10.0606 0.0269635 0)
(10.0651 0.0269702 0)
(10.0695 0.0268558 0)
(10.0738 0.0265994 0)
(10.078 0.0262105 0)
(10.0002 0.0022252 0)
(10.0017 0.00645469 0)
(10.0047 0.0101109 0)
(10.0087 0.0130487 0)
(10.0134 0.0153228 0)
(10.0183 0.01707 0)
(10.0233 0.0184016 0)
(10.0283 0.0193971 0)
(10.0333 0.0201269 0)
(10.0382 0.0206538 0)
(10.043 0.021024 0)
(10.0477 0.0212667 0)
(10.0523 0.0213979 0)
(10.0567 0.0214241 0)
(10.0611 0.0213449 0)
(10.0653 0.0211563 0)
(10.0693 0.0208494 0)
(10.0733 0.0204445 0)
(10.0002 0.00151112 0)
(10.0015 0.00438877 0)
(10.0041 0.00690858 0)
(10.0077 0.00898009 0)
(10.0118 0.0106194 0)
(10.0164 0.0118973 0)
(10.021 0.0128813 0)
(10.0258 0.0136229 0)
(10.0306 0.0141656 0)
(10.0353 0.0145478 0)
(10.0399 0.0147989 0)
(10.0445 0.0149386 0)
(10.0489 0.0149782 0)
(10.0532 0.0149237 0)
(10.0573 0.0147777 0)
(10.0613 0.0145416 0)
(10.0652 0.0142136 0)
(10.0689 0.0138174 0)
(10.0001 0.000748343 0)
(10.0013 0.00217532 0)
(10.0037 0.00343561 0)
(10.0069 0.00448953 0)
(10.0108 0.00534071 0)
(10.015 0.00601465 0)
(10.0195 0.00653689 0)
(10.024 0.00692783 0)
(10.0286 0.00720519 0)
(10.0331 0.0073845 0)
(10.0376 0.00747765 0)
(10.042 0.0074926 0)
(10.0462 0.00743432 0)
(10.0503 0.00730603 0)
(10.0543 0.00710998 0)
(10.0582 0.00684897 0)
(10.0618 0.00652348 0)
(10.0654 0.00615564 0)
(10.0001 -0.000110515 0)
(10.0013 -0.000319903 0)
(10.0035 -0.000500768 0)
(10.0067 -0.000639247 0)
(10.0104 -0.000731825 0)
(10.0146 -0.000791707 0)
(10.0189 -0.000837778 0)
(10.0233 -0.00088381 0)
(10.0278 -0.000938652 0)
(10.0322 -0.00100991 0)
(10.0366 -0.00110473 0)
(10.0408 -0.00122888 0)
(10.0449 -0.00138652 0)
(10.0489 -0.00158032 0)
(10.0528 -0.00181176 0)
(10.0565 -0.00208058 0)
(10.06 -0.00238753 0)
(10.0634 -0.00271593 0)
(10.0001 -0.000937681 0)
(10.0014 -0.00272994 0)
(10.0038 -0.00430928 0)
(10.0071 -0.00559262 0)
(10.0111 -0.00657295 0)
(10.0154 -0.00731133 0)
(10.0199 -0.00787453 0)
(10.0244 -0.00830782 0)
(10.0289 -0.00864593 0)
(10.0333 -0.00892124 0)
(10.0377 -0.00916077 0)
(10.0419 -0.00938374 0)
(10.046 -0.00960326 0)
(10.0499 -0.00982863 0)
(10.0537 -0.0100663 0)
(10.0573 -0.0103199 0)
(10.0608 -0.0105927 0)
(10.0641 -0.0108736 0)
(10.0002 -0.00165498 0)
(10.0015 -0.00484345 0)
(10.0042 -0.00764925 0)
(10.008 -0.00986825 0)
(10.0123 -0.0115153 0)
(10.0169 -0.0127469 0)
(10.0216 -0.0136805 0)
(10.0263 -0.0143756 0)
(10.031 -0.0148866 0)
(10.0355 -0.0152728 0)
(10.0399 -0.0155815 0)
(10.0442 -0.0158435 0)
(10.0483 -0.0160788 0)
(10.0522 -0.016302 0)
(10.0559 -0.016523 0)
(10.0595 -0.0167483 0)
(10.0629 -0.0169824 0)
(10.0662 -0.017218 0)
(10.0002 -0.00234032 0)
(10.0017 -0.00694231 0)
(10.0049 -0.0110022 0)
(10.0093 -0.0140614 0)
(10.0141 -0.0162133 0)
(10.0191 -0.0177954 0)
(10.0241 -0.0189878 0)
(10.0291 -0.0198549 0)
(10.0339 -0.020469 0)
(10.0386 -0.0209129 0)
(10.0431 -0.0212484 0)
(10.0474 -0.021514 0)
(10.0515 -0.0217363 0)
(10.0554 -0.0219349 0)
(10.0592 -0.0221232 0)
(10.0628 -0.0223094 0)
(10.0662 -0.0224989 0)
(10.0694 -0.022687 0)
(10.0002 -0.00297913 0)
(10.0019 -0.00906087 0)
(10.0056 -0.0144 0)
(10.0109 -0.0182108 0)
(10.0164 -0.0207957 0)
(10.0218 -0.0226547 0)
(10.0271 -0.0239823 0)
(10.0324 -0.0248844 0)
(10.0375 -0.0254987 0)
(10.0423 -0.025937 0)
(10.0469 -0.0262596 0)
(10.0512 -0.0265018 0)
(10.0554 -0.0266926 0)
(10.0593 -0.0268551 0)
(10.0631 -0.0270042 0)
(10.0667 -0.0271487 0)
(10.07 -0.027294 0)
(10.0733 -0.0274371 0)
(10.0001 -0.00355816 0)
(10.0019 -0.0115006 0)
(10.0065 -0.017868 0)
(10.0127 -0.0219681 0)
(10.019 -0.0249233 0)
(10.0249 -0.0271949 0)
(10.0306 -0.0287073 0)
(10.0361 -0.02959 0)
(10.0414 -0.0301201 0)
(10.0463 -0.0304757 0)
(10.051 -0.030723 0)
(10.0555 -0.0308944 0)
(10.0597 -0.0310196 0)
(10.0636 -0.0311221 0)
(10.0674 -0.0312159 0)
(10.0709 -0.0313082 0)
(10.0743 -0.0314025 0)
(10.0774 -0.031495 0)
(9.99997 -0.00368086 0)
(10.0018 -0.0151524 0)
(10.0076 -0.0226038 0)
(10.0148 -0.0259135 0)
(10.0215 -0.0284552 0)
(10.0278 -0.0308952 0)
(10.0342 -0.0326507 0)
(10.0402 -0.0336664 0)
(10.0457 -0.0342436 0)
(10.0509 -0.0345914 0)
(10.0557 -0.0347931 0)
(10.0601 -0.0348979 0)
(10.0643 -0.034948 0)
(10.0682 -0.0349734 0)
(10.0718 -0.0349904 0)
(10.0752 -0.0350078 0)
(10.0784 -0.0350289 0)
(10.0813 -0.0350517 0)
(9.99898 -0.00130256 0)
(10 -0.0179535 0)
(10.0085 -0.029034 0)
(10.0174 -0.0326426 0)
(10.0245 -0.0340496 0)
(10.0313 -0.0352585 0)
(10.0384 -0.0361874 0)
(10.0451 -0.0368114 0)
(10.051 -0.0372433 0)
(10.0562 -0.0375233 0)
(10.061 -0.0376662 0)
(10.0652 -0.0377081 0)
(10.069 -0.0376905 0)
(10.0723 -0.0376429 0)
(10.0753 -0.0375837 0)
(10.0779 -0.0375243 0)
(10.0803 -0.0374682 0)
(10.0823 -0.0374147 0)
(9.99528 0.0038736 0)
(9.99335 -0.0102981 0)
(10.0071 -0.0270803 0)
(10.0213 -0.0388916 0)
(10.0312 -0.0448167 0)
(10.0393 -0.0464096 0)
(10.0467 -0.0459123 0)
(10.0532 -0.0449412 0)
(10.0583 -0.0440516 0)
(10.0624 -0.0432648 0)
(10.0655 -0.0425373 0)
(10.0679 -0.0418665 0)
(10.0695 -0.0412588 0)
(10.0705 -0.0407139 0)
(10.071 -0.0402296 0)
(10.0711 -0.0398049 0)
(10.0708 -0.0394304 0)
(10.0702 -0.0390793 0)
(9.99144 -0.0172903 0)
(9.99189 0.000375165 0)
(10.01 0.0176818 0)
(10.0296 0.0116123 0)
(10.0442 -0.00507486 0)
(10.0542 -0.0187819 0)
(10.0601 -0.0271199 0)
(10.0624 -0.0319887 0)
(10.0619 -0.0348617 0)
(10.0593 -0.0364586 0)
(10.0552 -0.037227 0)
(10.0499 -0.0374921 0)
(10.0436 -0.0374668 0)
(10.0367 -0.0372808 0)
(10.0292 -0.0370179 0)
(10.0213 -0.0367392 0)
(10.0133 -0.0365003 0)
(10.0052 -0.03627 0)
(10.0235 -0.206005 0)
(10.0684 -0.312332 0)
(10.0789 -0.25558 0)
(10.0704 -0.18416 0)
(10.0606 -0.134879 0)
(10.0499 -0.102698 0)
(10.0343 -0.0811322 0)
(10.0131 -0.0665806 0)
(9.988 -0.0565837 0)
(9.96082 -0.0494228 0)
(9.93266 -0.0440606 0)
(9.90422 -0.0399074 0)
(9.876 -0.0366051 0)
(9.84832 -0.0339209 0)
(9.82142 -0.0317069 0)
(9.79542 -0.0298995 0)
(9.77057 -0.0284686 0)
(9.74688 -0.0277306 0)
(9.94226 0.671596 0)
(9.87997 0.567459 0)
(9.77448 0.338474 0)
(9.63246 0.18333 0)
(9.48777 0.0949179 0)
(9.35671 0.0470972 0)
(9.24121 0.0213153 0)
(9.13978 0.00709692 0)
(9.05091 -0.000959389 0)
(8.97301 -0.00559762 0)
(8.90433 -0.00828393 0)
(8.84335 -0.00984342 0)
(8.78881 -0.0107463 0)
(8.73973 -0.0112615 0)
(8.69528 -0.0115497 0)
(8.65476 -0.0117357 0)
(8.61731 -0.0119133 0)
(8.58256 -0.0124436 0)
(0.00460777 -0.00738819 -3.56174e-20)
(0.0173671 -0.016803 3.45447e-20)
(0.0309428 -0.0191374 0)
(0.0426578 -0.016566 0)
(0.0503774 -0.0109257 0)
(0.0532833 -0.0037461 -3.11902e-20)
(0.0509635 0.00372734 0)
(0.0438981 0.0104745 0)
(0.0327222 0.0159017 0)
(0.0181876 0.0198034 0)
(0.00106907 0.0222817 2.8601e-20)
(-0.0179243 0.0236897 0)
(-0.0383034 0.0244614 0)
(-0.0598069 0.0249567 0)
(-0.0822929 0.025412 0)
(-0.105718 0.0259492 2.50253e-20)
(-0.130093 0.0266145 0)
(-0.155448 0.0274172 0)
(-0.181811 0.0283445 0)
(-0.209213 0.0293842 0)
(-0.237729 0.0306667 0)
(-0.267395 0.0324677 0)
(-0.298018 0.0342759 0)
(-0.329495 0.0342037 2.20403e-20)
(-0.362174 0.0333535 -2.18056e-20)
(-0.395242 0.0390289 2.15728e-20)
(-0.429297 0.0431059 2.13642e-20)
(-0.465915 0.0388862 0)
(-0.502217 0.0441013 0)
(-0.5393 0.051281 -2.07096e-20)
(-0.579794 0.0521617 -2.04985e-20)
(-0.620151 0.0638108 0)
(-0.661987 0.0637721 0)
(-0.704563 0.0500023 -2.24879e-20)
(-0.743214 0.0395961 0)
(-0.781411 0.0335997 0)
(-0.818848 0.0355434 2.16651e-20)
(-0.857613 0.0357167 0)
(-0.896393 0.0355574 2.11529e-20)
(-0.935124 0.0351986 4.18198e-20)
(-0.973676 0.0347429 0)
(-1.012 0.0342513 0)
(-1.05008 0.0337583 0)
(-1.08793 0.0332831 0)
(-1.12556 0.032835 0)
(-1.16299 0.0324176 3.92372e-20)
(-1.20024 0.0320311 3.88522e-20)
(-1.23735 0.0316733 3.84775e-20)
(-1.27432 0.0313406 0)
(-1.31118 0.031029 -3.77555e-20)
(-1.34794 0.0307339 0)
(-1.3846 0.0304507 3.70649e-20)
(-1.42117 0.030175 3.67298e-20)
(-1.45765 0.0299025 0)
(-1.49403 0.0296291 0)
(-1.53031 0.0293513 0)
(-1.56646 0.0290656 3.54437e-20)
(-1.60248 0.0287692 0)
(-1.63835 0.0284594 0)
(-1.67404 0.0281339 0)
(-1.70952 0.0277909 0)
(-1.74478 0.0274288 0)
(-1.77977 0.0270461 0)
(-1.81448 0.026642 0)
(-1.84886 0.0262155 0)
(-1.88288 0.0257662 -3.27307e-20)
(-1.9165 0.0252938 0)
(-1.94969 0.024798 0)
(-1.98242 0.0242788 3.18368e-20)
(-2.01463 0.0237366 3.1536e-20)
(-2.04631 0.0231715 0)
(-2.07739 0.0225839 -3.09271e-20)
(-2.10786 0.0219745 3.06181e-20)
(-2.13766 0.0213436 0)
(-2.16677 0.020692 -2.99889e-20)
(-2.19513 0.0200204 0)
(-2.22272 0.0193293 0)
(-2.24949 0.0186195 2.90098e-20)
(-2.27542 0.0178917 0)
(-2.30045 0.0171462 -2.83283e-20)
(-2.32455 0.0163837 0)
(-2.3477 0.0156044 2.76199e-20)
(-2.36984 0.0148085 2.72545e-20)
(-2.39094 0.0139956 2.68812e-20)
(-2.41098 0.0131654 5.29989e-20)
(-2.4299 0.0123166 -5.22181e-20)
(-2.44767 0.0114477 0)
(-2.46426 0.010556 0)
(-2.47962 0.00963839 0)
(-2.4937 0.00869067 -4.89067e-20)
(-2.50647 0.00770852 -4.80288e-20)
(-2.51786 0.00668709 4.71298e-20)
(-2.52781 0.00562122 0)
(-2.53625 0.0045096 -4.52675e-20)
(-2.54312 0.00336291 -4.43041e-20)
(-2.5483 0.00221068 -4.3319e-20)
(-2.55166 0.00109525 0)
(-2.55314 7.59357e-05 0)
(-2.55331 -0.000788851 0)
(-2.55201 -0.00161747 -3.91142e-20)
(-2.54928 -0.00243079 0)
(-2.54511 -0.00323862 0)
(-2.5395 -0.00404291 3.56798e-20)
(-2.53242 -0.00484393 0)
(-2.52387 -0.00564114 0)
(-2.51382 -0.00643372 3.20016e-20)
(-2.50228 -0.00722077 0)
(-2.48923 -0.00800133 0)
(-2.47468 -0.00877446 -2.80787e-20)
(-2.4586 -0.00953921 -2.67172e-20)
(-2.44101 -0.0102946 0)
(-2.4219 -0.0110398 2.39151e-20)
(-2.40127 -0.0117738 0)
(-2.37914 -0.0124957 -2.10097e-20)
(-2.3555 -0.0132047 0)
(-2.33036 -0.0138998 -1.8005e-20)
(-2.30374 -0.0145802 -1.64669e-20)
(-2.27564 -0.015245 0)
(-2.24609 -0.0158934 0)
(-2.2151 -0.0165248 0)
(-2.18269 -0.0171383 0)
(-2.14888 -0.0177332 0)
(-2.1137 -0.0183088 0)
(-2.07717 -0.0188645 0)
(-2.03931 -0.0193996 -3.40582e-21)
(-2.00016 -0.0199135 1.69303e-21)
(-1.95975 -0.0204057 0)
(-1.91811 -0.0208755 0)
(-1.87527 -0.0213227 0)
(-1.83128 -0.0217467 0)
(-1.78617 -0.0221474 -1.41151e-20)
(-1.73999 -0.0225242 0)
(-1.69276 -0.0228771 2.124e-20)
(-1.64454 -0.0232057 -2.4818e-20)
(-1.59537 -0.0235101 0)
(-1.5453 -0.0237902 0)
(-1.49436 -0.0240461 0)
(-1.44261 -0.0242779 3.91635e-20)
(-1.39009 -0.0244858 4.27433e-20)
(-1.33684 -0.0246701 0)
(-1.28292 -0.0248313 4.98742e-20)
(-1.22838 -0.0249698 5.34192e-20)
(-1.17325 -0.0250862 -5.69469e-20)
(-1.11758 -0.0251812 0)
(-1.06143 -0.0252555 0)
(-1.00482 -0.0253102 -6.7397e-20)
(-0.947812 -0.0253461 0)
(-0.890437 -0.0253644 0)
(-0.832737 -0.0253661 0)
(-0.774748 -0.0253525 0)
(-0.716504 -0.0253249 8.42169e-20)
(-0.658036 -0.0252847 8.74708e-20)
(-0.599375 -0.0252331 0)
(-0.540546 -0.0251716 9.38534e-20)
(-0.481573 -0.0251015 0)
(-0.422476 -0.0250239 0)
(-0.363274 -0.0249396 1.03093e-19)
(-0.303984 -0.0248491 0)
(-0.24462 -0.0247511 1.09018e-19)
(-0.185197 -0.0246399 0)
(-0.125727 -0.0245119 0)
(-0.0662117 -0.0243632 1.17543e-19)
(-0.00668081 -0.0241519 0)
(0.0527951 -0.0238469 1.21492e-19)
(0.112327 -0.0235334 0)
(0.171947 -0.023255 0)
(0.231705 -0.0230077 0)
(0.291653 -0.0227829 -1.24938e-19)
(0.351835 -0.0225743 0)
(0.41228 -0.0223758 1.26254e-19)
(0.473003 -0.0221803 0)
(0.533996 -0.0219777 0)
(0.595219 -0.0217524 0)
(0.656562 -0.0214784 0)
(0.717835 -0.0211047 0)
(0.778471 -0.020534 0)
(0.83803 -0.0194952 0)
(0.891934 -0.0173218 -2.59262e-19)
(0.944415 -0.0119186 0)
(0.945943 0.00698211 0)
(0.00812872 -0.0374647 1.05514e-19)
(0.0200389 -0.0445812 -9.90897e-20)
(0.0256461 -0.0363891 0)
(0.0273205 -0.0242406 5.79058e-20)
(0.0253934 -0.0105785 0)
(0.0201928 0.00332996 2.68741e-20)
(0.0121795 0.0165816 -5.23228e-20)
(0.0013975 0.028487 -5.11427e-20)
(-0.0120744 0.0386106 0)
(-0.0281531 0.0467923 -4.86591e-20)
(-0.0467196 0.0531337 -2.37299e-20)
(-0.0676001 0.0579561 0)
(-0.0906029 0.0616928 0)
(-0.115551 0.0647505 0)
(-0.142304 0.0674418 0)
(-0.170773 0.0699744 -2.10277e-20)
(-0.200911 0.0724663 0)
(-0.232705 0.0749687 4.04245e-20)
(-0.266163 0.0774802 0)
(-0.301303 0.079968 0)
(-0.338092 0.082424 -3.88091e-20)
(-0.376363 0.0848831 0)
(-0.416029 0.0872172 3.81823e-20)
(-0.45745 0.0890101 -1.90035e-20)
(-0.500472 0.0902808 1.885e-20)
(-0.543642 0.0921198 -1.86864e-20)
(-0.587343 0.0940923 -1.85641e-20)
(-0.632133 0.0949452 0)
(-0.676383 0.0954658 0)
(-0.720423 0.0963401 1.80389e-20)
(-0.763595 0.0960615 -1.773e-20)
(-0.804992 0.0955569 0)
(-0.84559 0.0960155 0)
(-0.885574 0.09579 1.74805e-20)
(-0.926683 0.0950848 0)
(-0.967249 0.0941847 0)
(-1.00669 0.0934758 -1.68262e-20)
(-1.04468 0.0924409 0)
(-1.08174 0.0911673 1.63542e-20)
(-1.11814 0.0897917 -3.24966e-20)
(-1.15404 0.0883905 0)
(-1.18953 0.0870118 0)
(-1.22467 0.0856831 -6.2792e-20)
(-1.2595 0.0844179 -6.21566e-20)
(-1.29407 0.0832207 -6.15412e-20)
(-1.3284 0.0820899 3.03912e-20)
(-1.36252 0.0810199 -3.02631e-20)
(-1.39642 0.080003 -8.97791e-20)
(-1.43013 0.07903 5.92467e-20)
(-1.46365 0.0780915 2.94365e-20)
(-1.49698 0.0771776 0)
(-1.53011 0.0762791 -2.89146e-20)
(-1.56305 0.0753869 2.84948e-20)
(-1.59577 0.0744928 0)
(-1.62827 0.0735893 0)
(-1.66054 0.0726694 0)
(-1.69255 0.0717271 -2.76824e-20)
(-1.72428 0.0707571 0)
(-1.75573 0.0697547 5.42578e-20)
(-1.78685 0.0687162 0)
(-1.81763 0.0676383 5.33289e-20)
(-1.84805 0.0665183 0)
(-1.87807 0.0653542 -5.24086e-20)
(-1.90768 0.0641446 0)
(-1.93683 0.0628883 5.14908e-20)
(-1.96551 0.0615848 -2.54423e-20)
(-1.99368 0.0602339 0)
(-2.02131 0.0588357 -5.01062e-20)
(-2.04838 0.0573907 -2.48883e-20)
(-2.07486 0.0558996 -2.46514e-20)
(-2.1007 0.0543634 0)
(-2.12589 0.0527832 -2.40448e-20)
(-2.1504 0.0511605 -2.39254e-20)
(-2.17418 0.0494965 0)
(-2.19722 0.0477931 2.34252e-20)
(-2.21949 0.0460517 -4.62306e-20)
(-2.24094 0.0442741 0)
(-2.26157 0.0424621 -2.26436e-20)
(-2.28132 0.0406173 0)
(-2.30019 0.0387414 6.62068e-20)
(-2.31813 0.0368361 0)
(-2.33511 0.0349027 -6.4513e-20)
(-2.35113 0.0329426 -2.12359e-20)
(-2.36613 0.0309569 2.08731e-20)
(-2.3801 0.0289466 4.11453e-20)
(-2.393 0.0269122 -4.05306e-20)
(-2.40482 0.0248539 0)
(-2.41552 0.0227715 0)
(-2.42509 0.020664 0)
(-2.43349 0.0185299 1.13856e-19)
(-2.44071 0.0163675 3.72599e-20)
(-2.44673 0.0141745 -3.6537e-20)
(-2.45155 0.0119474 0)
(-2.45518 0.00968237 -3.50589e-20)
(-2.45764 0.00738504 3.42649e-20)
(-2.45902 0.00508791 3.34726e-20)
(-2.45939 0.00284795 0)
(-2.45884 0.000690314 0)
(-2.45693 -0.00136392 0)
(-2.45369 -0.00338035 3.00819e-20)
(-2.44906 -0.00537411 0)
(-2.44302 -0.0073538 -5.66847e-20)
(-2.43555 -0.0093205 -8.21779e-20)
(-2.42662 -0.0112732 5.29508e-20)
(-2.41624 -0.0132098 0)
(-2.40438 -0.015128 2.46353e-20)
(-2.39104 -0.0170252 0)
(-2.37621 -0.0188989 4.5034e-20)
(-2.35988 -0.0207467 -2.16082e-20)
(-2.34205 -0.0225661 -2.05628e-20)
(-2.32272 -0.0243547 0)
(-2.30188 -0.0261103 -5.46547e-20)
(-2.27955 -0.0278306 3.43264e-20)
(-2.25572 -0.0295133 1.58751e-20)
(-2.2304 -0.0311563 0)
(-2.2036 -0.0327576 1.35691e-20)
(-2.17532 -0.0343151 3.75576e-20)
(-2.1456 -0.0358269 0)
(-2.11443 -0.0372913 2.0406e-20)
(-2.08183 -0.0387065 1.7987e-20)
(-2.04783 -0.0400708 1.55433e-20)
(-2.01245 -0.0413829 0)
(-1.9757 -0.0426414 0)
(-1.93762 -0.0438448 0)
(-1.89823 -0.0449919 -3.0142e-21)
(-1.85756 -0.0460816 -1.25944e-21)
(-1.81564 -0.0471129 0)
(-1.7725 -0.0480848 2.12543e-21)
(-1.72819 -0.0489968 4.70951e-21)
(-1.68273 -0.0498482 0)
(-1.63616 -0.0506388 1.04356e-20)
(-1.58853 -0.0513681 2.50225e-20)
(-1.53987 -0.0520361 -1.56662e-20)
(-1.49022 -0.0526428 -1.71841e-20)
(-1.43964 -0.0531882 0)
(-1.38815 -0.053673 0)
(-1.33582 -0.0540976 0)
(-1.28268 -0.054463 -2.87275e-20)
(-1.22879 -0.05477 3.01831e-20)
(-1.17418 -0.0550197 6.66667e-20)
(-1.1189 -0.0552134 -3.64749e-20)
(-1.06301 -0.0553529 3.78846e-20)
(-1.00655 -0.0554398 4.15709e-20)
(-0.949554 -0.0554762 0)
(-0.892079 -0.055464 0)
(-0.834167 -0.0554058 -4.79342e-20)
(-0.775859 -0.0553041 0)
(-0.717197 -0.0551616 0)
(-0.658219 -0.0549812 1.11625e-19)
(-0.598962 -0.0547659 0)
(-0.539462 -0.0545189 5.9996e-20)
(-0.47975 -0.0542434 -6.3436e-20)
(-0.419855 -0.0539427 0)
(-0.359803 -0.05362 6.6901e-20)
(-0.299619 -0.0532785 0)
(-0.239322 -0.0529208 0)
(-0.178931 -0.0525491 -7.45879e-20)
(-0.118459 -0.0521635 1.52385e-19)
(-0.0579183 -0.0517642 -7.88177e-20)
(0.00268093 -0.0513505 0)
(0.0633317 -0.0509219 0)
(0.124037 -0.0504858 8.21736e-20)
(0.184802 -0.0500515 0)
(0.245643 -0.0496076 8.44121e-20)
(0.306615 -0.0491727 0)
(0.367739 -0.0487773 0)
(0.429049 -0.0484257 0)
(0.49058 -0.0481111 8.93612e-20)
(0.552367 -0.0478247 0)
(0.614435 -0.0475558 -9.10744e-20)
(0.676798 -0.04729 0)
(0.739446 -0.0470059 0)
(0.802338 -0.0466686 1.85818e-19)
(0.865365 -0.0462195 -1.87176e-19)
(0.928335 -0.0455455 0)
(0.990772 -0.0444333 0)
(1.05219 -0.0423214 0)
(1.10981 -0.038134 5.78011e-19)
(1.16611 -0.0279887 0)
(1.2 -0.00285314 -3.93908e-19)
(0.00580608 -0.0628589 -4.19315e-23)
(0.00999453 -0.0554994 1.27926e-19)
(0.00785332 -0.0358 0)
(0.00288104 -0.0156277 -1.07535e-19)
(-0.00474583 0.00405824 0)
(-0.0146663 0.0228893 0)
(-0.0266001 0.0405582 6.34619e-24)
(-0.0404704 0.0567508 4.4922e-20)
(-0.0562949 0.0711848 4.37118e-20)
(-0.0741495 0.083708 4.2654e-20)
(-0.0941172 0.0943551 0)
(-0.116246 0.103346 0)
(-0.140529 0.111025 -3.98213e-20)
(-0.166911 0.11777 -7.79245e-20)
(-0.195303 0.123918 7.63024e-20)
(-0.225608 0.129729 0)
(-0.25772 0.13537 7.33983e-20)
(-0.291531 0.140921 -3.608e-20)
(-0.326919 0.146381 0)
(-0.363746 0.151692 6.99267e-20)
(-0.401826 0.156772 3.44991e-20)
(-0.440884 0.161509 -6.80849e-20)
(-0.480642 0.165691 -3.36318e-20)
(-0.520974 0.169054 0)
(-0.561674 0.171586 6.55543e-20)
(-0.602176 0.173523 6.46864e-20)
(-0.64223 0.174784 0)
(-0.681837 0.174977 6.30185e-20)
(-0.720803 0.17456 0)
(-0.75881 0.173618 6.13113e-20)
(-0.795784 0.171878 3.02299e-20)
(-0.831661 0.1696 0)
(-0.866464 0.166344 0)
(-0.900782 0.162109 0)
(-0.935143 0.157796 0)
(-0.969337 0.153906 0)
(-1.00305 0.150568 0)
(-1.03613 0.14753 5.50276e-20)
(-1.06871 0.144708 -8.15512e-20)
(-1.1009 0.142065 0)
(-1.13276 0.139581 0)
(-1.16435 0.137247 0)
(-1.19572 0.135052 8.60835e-23)
(-1.22689 0.132987 5.1387e-20)
(-1.25788 0.131037 1.01591e-19)
(-1.28871 0.12919 -1.0053e-19)
(-1.31939 0.127431 -4.97003e-20)
(-1.34993 0.125743 4.92959e-20)
(-1.38033 0.124112 -1.01091e-22)
(-1.41059 0.122523 4.8225e-20)
(-1.4407 0.12096 0)
(-1.47067 0.119411 4.72939e-20)
(-1.50047 0.117862 -1.05808e-22)
(-1.53011 0.116303 0)
(-1.55957 0.114724 0)
(-1.58883 0.113114 -4.55241e-20)
(-1.61788 0.111466 0)
(-1.64669 0.109774 0)
(-1.67526 0.10803 4.41481e-20)
(-1.70355 0.106231 8.76764e-20)
(-1.73155 0.104372 -4.35295e-20)
(-1.75923 0.102449 0)
(-1.78657 0.100461 4.27063e-20)
(-1.81355 0.0984062 0)
(-1.84013 0.0962825 4.1687e-20)
(-1.86628 0.09409 4.14755e-20)
(-1.89199 0.0918284 -8.19363e-20)
(-1.91722 0.0894985 -4.04634e-20)
(-1.94195 0.0871011 0)
(-1.96614 0.0846374 7.94584e-20)
(-1.98977 0.082109 0)
(-2.01281 0.0795178 1.16752e-19)
(-2.03522 0.0768658 7.69268e-20)
(-2.05698 0.0741554 7.60661e-20)
(-2.07806 0.0713888 -7.51952e-20)
(-2.09843 0.0685687 1.11541e-19)
(-2.11806 0.0656976 0)
(-2.13692 0.0627781 0)
(-2.15499 0.0598128 -7.15895e-20)
(-2.17222 0.0568044 -1.06036e-19)
(-2.1886 0.0537554 0)
(-2.2041 0.0506681 3.44132e-20)
(-2.21869 0.0475449 0)
(-2.23234 0.044388 -1.00144e-19)
(-2.24502 0.0411993 -6.91575e-23)
(-2.25672 0.0379808 5.95926e-23)
(-2.2674 0.0347341 6.35975e-20)
(-2.27705 0.0314611 0)
(-2.28563 0.0281635 -6.13981e-20)
(-2.29314 0.0248438 -1.91035e-23)
(-2.29955 0.0215051 0)
(-2.30485 0.0181524 0)
(-2.30903 0.0147931 0)
(-2.31209 0.0114379 5.54664e-20)
(-2.31403 0.00810123 0)
(-2.31481 0.00480207 0)
(-2.31445 0.00156022 0)
(-2.31287 -0.00164367 0)
(-2.30997 -0.00484843 0)
(-2.30576 -0.00804519 4.74831e-20)
(-2.30019 -0.0112298 0)
(-2.29326 -0.0143986 4.44759e-20)
(-2.28493 -0.0175477 4.29802e-20)
(-2.27519 -0.0206732 -4.14579e-20)
(-2.26404 -0.0237709 0)
(-2.25145 -0.0268365 -3.83347e-20)
(-2.23742 -0.029866 0)
(-2.22194 -0.0328552 -3.51085e-20)
(-2.205 -0.0358 3.34578e-20)
(-2.1866 -0.0386965 9.57814e-20)
(-2.16675 -0.041541 0)
(-2.14543 -0.0443298 8.55643e-20)
(-2.12265 -0.0470591 2.71193e-20)
(-2.09841 -0.0497256 0)
(-2.07272 -0.0523259 4.66724e-20)
(-2.0456 -0.0548565 4.30787e-20)
(-2.01704 -0.0573144 -5.88746e-20)
(-1.98706 -0.0596965 0)
(-1.95568 -0.062 -1.57214e-20)
(-1.92291 -0.0642221 -1.38431e-20)
(-1.88877 -0.0663604 -3.65162e-20)
(-1.85327 -0.0684126 0)
(-1.81646 -0.0703765 0)
(-1.77833 -0.0722501 0)
(-1.73894 -0.0740314 -4.98439e-21)
(-1.69829 -0.0757188 0)
(-1.65643 -0.0773106 0)
(-1.61337 -0.0788056 -1.62234e-21)
(-1.56917 -0.0802029 -3.59123e-21)
(-1.52385 -0.0815016 0)
(-1.47745 -0.0827014 0)
(-1.43 -0.0838018 -1.90259e-20)
(-1.38156 -0.0848028 0)
(-1.33215 -0.0857045 2.69186e-20)
(-1.28182 -0.0865074 3.00094e-20)
(-1.23062 -0.0872122 0)
(-1.17859 -0.0878202 0)
(-1.12576 -0.0883327 -4.17341e-20)
(-1.0722 -0.0887514 -8.66274e-22)
(-1.01794 -0.0890781 -8.69075e-22)
(-0.963031 -0.0893151 0)
(-0.907516 -0.0894653 -1.15104e-19)
(-0.851442 -0.0895315 0)
(-0.794852 -0.0895169 0)
(-0.737793 -0.0894251 0)
(-0.680306 -0.08926 7.29351e-20)
(-0.622433 -0.0890258 0)
(-0.564215 -0.0887269 -1.58671e-19)
(-0.505689 -0.088368 -8.37714e-20)
(-0.446894 -0.087954 0)
(-0.387861 -0.0874901 -9.0791e-20)
(-0.328625 -0.0869816 0)
(-0.269212 -0.0864336 0)
(-0.20965 -0.0858515 -3.01292e-19)
(-0.149961 -0.0852401 2.06928e-19)
(-0.0901641 -0.0846039 0)
(-0.0302768 -0.0839476 2.19874e-19)
(0.0296881 -0.083275 -1.13476e-19)
(0.0897207 -0.0825884 0)
(0.149816 -0.0818905 0)
(0.209974 -0.0811853 0)
(0.270204 -0.0804824 -3.64249e-19)
(0.330529 -0.0798 0)
(0.390996 -0.0791542 -1.25804e-19)
(0.451632 -0.0785526 0)
(0.51245 -0.0780048 0)
(0.573472 -0.0775128 0)
(0.634722 -0.0770708 0)
(0.696229 -0.0766683 0)
(0.758013 -0.0762903 0)
(0.820087 -0.0759151 -2.74163e-19)
(0.88244 -0.0755089 0)
(0.945032 -0.0750173 -1.40607e-19)
(1.00776 -0.0743482 4.24606e-19)
(1.07046 -0.0733342 0)
(1.13272 -0.0716615 0)
(1.19419 -0.0686392 -2.90557e-19)
(1.25303 -0.0629326 -2.94544e-19)
(1.31186 -0.0510703 2.96928e-19)
(1.35863 -0.0256099 3.02537e-19)
(0.000524513 -0.0694271 -2.06319e-19)
(-0.00334853 -0.0480589 -1.86284e-19)
(-0.0115565 -0.0219247 -1.1024e-19)
(-0.0214404 0.00293471 -5.0115e-20)
(-0.0331045 0.0264953 0)
(-0.0463547 0.0488015 8.82097e-20)
(-0.0610955 0.0697633 -4.22577e-20)
(-0.077333 0.0892216 0)
(-0.0951385 0.107014 -3.97164e-20)
(-0.114619 0.123044 0)
(-0.135885 0.137326 7.57143e-20)
(-0.159021 0.15 0)
(-0.184058 0.1613 3.62625e-20)
(-0.210969 0.1715 7.10342e-20)
(-0.239669 0.180862 -6.96085e-20)
(-0.270027 0.189586 0)
(-0.301876 0.197796 -6.69678e-20)
(-0.335014 0.205525 0)
(-0.369218 0.212727 0)
(-0.404239 0.219294 -6.3523e-20)
(-0.439815 0.225084 0)
(-0.475665 0.229946 -1.61801e-23)
(-0.511531 0.233717 0)
(-0.547226 0.236279 0)
(-0.582604 0.237663 2.15749e-23)
(-0.617491 0.238014 -5.76476e-20)
(-0.651736 0.23736 -5.67511e-20)
(-0.685304 0.23573 -5.58279e-20)
(-0.718197 0.233351 0)
(-0.750364 0.230352 -1.0818e-19)
(-0.781831 0.22678 0)
(-0.812678 0.222787 -5.24369e-20)
(-0.843011 0.218376 0)
(-0.873019 0.213605 0)
(-0.902865 0.208782 5.01319e-20)
(-0.932568 0.20416 0)
(-0.962066 0.199866 -4.87355e-20)
(-0.991327 0.195879 -1.04147e-23)
(-1.02037 0.192171 9.49257e-20)
(-1.04921 0.188717 -9.37088e-20)
(-1.07788 0.185491 0)
(-1.10639 0.182474 0)
(-1.13478 0.179642 -4.51544e-20)
(-1.16305 0.176975 0)
(-1.19122 0.174452 -4.42056e-20)
(-1.21928 0.172052 4.3722e-20)
(-1.24726 0.169754 4.32517e-20)
(-1.27514 0.167538 0)
(-1.30293 0.165382 -4.23465e-20)
(-1.33063 0.16327 -4.19093e-20)
(-1.35822 0.161182 8.2864e-20)
(-1.3857 0.159103 -4.10614e-20)
(-1.41307 0.157016 -4.06489e-20)
(-1.4403 0.154909 0)
(-1.46739 0.152769 0)
(-1.49432 0.150584 3.9449e-20)
(-1.52107 0.148345 0)