/*--------------------------------*- C++ -*----------------------------------*\
  =========                 |
  \\      /  F ield         | OpenFOAM: The Open Source CFD Toolbox
   \\    /   O peration     | Website:  https://openfoam.org
    \\  /    A nd           | Version:  12
     \\/     M anipulation  |
\*---------------------------------------------------------------------------*/
FoamFile
{
    format      ascii;
    class       volScalarField;
    location    "15.58";
    object      p_rgh;
}
// * * * * * * * * * * * * * * * * * * * * * * * * * * * * * * * * * * * * * //

dimensions      [1 -1 -2 0 0 0 0];

internalField   nonuniform List<scalar> 
3829
(
3.76027
3.75895
3.75624
3.75211
3.74647
3.73926
3.73039
3.71976
3.70728
3.69284
3.67632
3.65762
3.63659
3.61312
3.58707
3.55832
3.52672
3.49215
3.45446
3.41354
3.36925
3.32146
3.27006
3.21556
3.15827
3.09801
3.03472
2.9683
2.89873
2.826
2.75018
2.67139
2.58979
2.5056
2.41909
2.33052
2.24023
2.14859
2.05594
1.96264
1.86908
1.77565
1.68278
1.59085
1.5003
1.41152
1.32493
1.24092
1.15987
1.08214
1.00806
0.93792
0.872009
0.810446
0.755615
0.706639
0.663393
0.625825
0.593884
0.567469
0.546456
0.530699
0.520005
0.514155
0.51288
0.515827
0.522879
0.532913
0.545714
0.560679
0.577173
0.594513
0.611978
0.628834
0.644333
0.657719
0.66826
0.675254
0.678036
0.676018
0.668705
0.655743
0.635978
0.609495
0.576366
0.53675
0.490913
0.439224
0.382159
0.320351
0.254608
0.185892
0.115312
0.0440716
-0.0264745
-0.0949471
-0.159928
-0.219982
-0.273738
-0.319901
-0.357297
-0.384938
-0.402092
-0.408285
-0.402169
-0.384502
-0.355946
-0.317298
-0.269587
-0.214221
-0.152938
-0.0877886
-0.0209629
0.0449877
0.10767
0.164625
0.213515
0.252224
0.278991
0.29253
0.292114
0.276185
0.246081
0.20312
0.148969
0.0858955
0.0167788
-0.0551093
-0.126131
-0.192377
-0.250375
-0.296761
-0.328751
-0.344328
-0.342384
-0.321837
-0.284386
-0.232145
-0.168132
-0.0960943
-0.020602
0.0524304
0.118388
0.172477
0.210632
0.229969
0.224589
0.197975
0.152126
0.0900597
0.0160258
-0.0670441
-0.146149
-0.21786
-0.27612
-0.315866
-0.333672
-0.326653
-0.297165
-0.248429
-0.185622
-0.114625
-0.0449312
0.016575
0.0629074
0.0887871
0.0914114
0.0699358
0.0281745
-0.028651
-0.0931147
-0.157005
-0.211253
-0.249418
-0.266924
-0.262436
-0.237998
-0.198797
-0.15189
-0.103935
-0.06748
-0.0461943
-0.043583
-0.0608343
-0.0921463
-0.131299
-0.178191
-0.206852
-0.219743
-0.213095
-0.187104
-0.14701
-0.100103
-0.0543804
-0.0179378
0.00506002
0.0139763
0.0121605
0.00545823
2.64498e-05
3.89208
3.89113
3.88916
3.88612
3.88192
3.87648
3.86969
3.86141
3.8515
3.8398
3.82616
3.81037
3.79225
3.77161
3.74826
3.722
3.69264
3.66001
3.62396
3.58437
3.54116
3.49429
3.44382
3.38915
3.33002
3.26693
3.19656
3.12022
3.03875
2.95275
2.86272
2.76908
2.67227
2.57269
2.47076
2.36689
2.26153
2.1551
2.04803
1.9407
1.83355
1.72704
1.62163
1.51787
1.41618
1.31708
1.22107
1.12864
1.04024
0.956344
0.877377
0.803785
0.735953
0.674369
0.61699
0.568227
0.52609
0.490665
0.461988
0.440046
0.424751
0.415946
0.413409
0.416809
0.425711
0.439615
0.45825
0.480442
0.505755
0.533434
0.562682
0.59265
0.622439
0.65114
0.677831
0.701578
0.721487
0.736698
0.746398
0.749852
0.746398
0.735549
0.716244
0.688576
0.652581
0.608397
0.556297
0.49671
0.430246
0.357737
0.280199
0.198839
0.115038
0.0302662
-0.0537152
-0.135232
-0.212535
-0.28385
-0.347477
-0.401811
-0.445388
-0.477002
-0.495712
-0.500749
-0.491419
-0.468181
-0.431619
-0.382645
-0.322588
-0.253238
-0.176758
-0.0956798
-0.0127128
0.0689485
0.146359
0.216503
0.276504
0.323773
0.356138
0.37197
0.370168
0.350047
0.312586
0.259114
0.191725
0.11336
0.0276191
-0.0614199
-0.149138
-0.230888
-0.302256
-0.359078
-0.397907
-0.416262
-0.412767
-0.386819
-0.339976
-0.274834
-0.195228
-0.105917
-0.0124883
0.0775414
0.158549
0.224613
0.270684
0.293081
0.286759
0.254485
0.198374
0.122336
0.0317806
-0.0700275
-0.166161
-0.25292
-0.322834
-0.369661
-0.389203
-0.3791
-0.341358
-0.279999
-0.20165
-0.113528
-0.0277639
0.0473511
0.103254
0.133587
0.135012
0.10764
0.0553641
-0.0148929
-0.0939213
-0.172482
-0.237559
-0.282298
-0.301286
-0.293008
-0.260463
-0.210095
-0.150792
-0.092065
-0.0472179
-0.0219498
-0.0204364
-0.0425842
-0.0823838
-0.131593
-0.189079
-0.224822
-0.241332
-0.23434
-0.202584
-0.154447
-0.0990012
-0.0459177
-0.00530142
0.0180996
0.0240061
0.0171425
0.00534944
-0.00327511
4.05652
4.05667
4.05697
4.05733
4.05762
4.05781
4.05738
4.05621
4.05396
4.05027
4.04475
4.03697
4.02652
4.01297
3.9959
3.97489
3.94951
3.91933
3.88393
3.84289
3.79584
3.74235
3.68202
3.6144
3.53903
3.45535
3.36984
3.28095
3.1872
3.08818
2.98384
2.87437
2.76009
2.64148
2.51886
2.39321
2.26519
2.13538
2.00451
1.87336
1.7427
1.61329
1.48584
1.36107
1.23967
1.12231
1.00964
0.902265
0.80079
0.705739
0.61763
0.536871
0.46392
0.39894
0.34224
0.294978
0.257508
0.229292
0.210033
0.199512
0.197519
0.203803
0.218031
0.239763
0.268447
0.303425
0.34394
0.389213
0.438095
0.489626
0.542733
0.596259
0.648976
0.699661
0.747072
0.789947
0.827077
0.857315
0.879582
0.892867
0.896327
0.889103
0.870324
0.840067
0.798296
0.745098
0.680821
0.606055
0.521674
0.428849
0.329008
0.223825
0.115215
0.00465671
-0.104454
-0.210383
-0.31073
-0.403083
-0.485121
-0.554661
-0.609757
-0.648754
-0.670205
-0.673432
-0.657828
-0.62373
-0.57178
-0.503191
-0.41985
-0.324224
-0.21928
-0.108393
0.004943
0.115901
0.220737
0.31539
0.396008
0.459028
0.501563
0.521446
0.517379
0.488949
0.43705
0.36339
0.27091
0.163665
0.046624
-0.0746513
-0.1937
-0.304387
-0.400607
-0.476816
-0.528399
-0.551852
-0.545122
-0.508449
-0.443505
-0.353786
-0.244724
-0.122791
0.00419445
0.125992
0.23509
0.323424
0.384174
0.412408
0.403634
0.359945
0.284029
0.181408
0.0596432
-0.0767324
-0.204805
-0.31962
-0.411087
-0.470828
-0.49346
-0.476891
-0.423124
-0.337747
-0.230025
-0.109847
0.005926
0.106246
0.179671
0.217896
0.216736
0.177396
0.104918
0.00937021
-0.0962501
-0.203544
-0.287738
-0.344317
-0.365658
-0.34992
-0.301678
-0.230144
-0.147575
-0.0683692
-0.00812646
0.0243396
0.0236201
-0.00847504
-0.064617
-0.133074
-0.209562
-0.258442
-0.281182
-0.274085
-0.230304
-0.167243
-0.0959068
-0.0290817
0.0190068
0.0426033
0.0422712
0.0254291
0.0036731
-0.0111534
4.24916
4.25189
4.25726
4.26516
4.27537
4.28757
4.30128
4.31598
4.33108
4.34593
4.3598
4.37195
4.3815
4.38758
4.38925
4.3856
4.37572
4.35875
4.33394
4.30062
4.25823
4.20619
4.14417
4.07206
3.99007
3.89889
3.79603
3.68298
3.55699
3.42082
3.27603
3.12397
2.96591
2.80308
2.63665
2.46771
2.29716
2.12591
1.95489
1.78506
1.61734
1.45267
1.29196
1.13613
0.985963
0.842323
0.706011
0.577744
0.458251
0.348173
0.248136
0.158714
0.080358
0.0137416
-0.0408168
-0.0827205
-0.113548
-0.132664
-0.139826
-0.135034
-0.1185
-0.0906725
-0.0521703
-0.00375209
0.0537411
0.119345
0.191978
0.270482
0.353423
0.439347
0.526771
0.614104
0.699666
0.781764
0.858706
0.928771
0.990308
1.04173
1.08153
1.10842
1.12127
1.11895
1.10044
1.0658
1.01491
0.947914
0.865277
0.767872
0.656969
0.534219
0.401605
0.261454
0.116411
-0.0308046
-0.176718
-0.318258
-0.452132
-0.575018
-0.683752
-0.775362
-0.847098
-0.896604
-0.92229
-0.922578
-0.897596
-0.847346
-0.772692
-0.675395
-0.558125
-0.424332
-0.278177
-0.124484
0.0338601
0.186782
0.331049
0.460964
0.57114
0.656823
0.713966
0.739544
0.731583
0.690588
0.617174
0.513774
0.384551
0.235169
0.0725287
-0.0958054
-0.260322
-0.412858
-0.545004
-0.649089
-0.718743
-0.749167
-0.737388
-0.684542
-0.592676
-0.466864
-0.314721
-0.145406
0.0302308
0.198134
0.347867
0.468291
0.550024
0.586327
0.573412
0.512339
0.406955
0.265293
0.0980035
-0.0881848
-0.262401
-0.4176
-0.539911
-0.618123
-0.644733
-0.618024
-0.540303
-0.419622
-0.268885
-0.102237
0.0570545
0.193438
0.291566
0.340485
0.334915
0.277125
0.17457
0.0412965
-0.105482
-0.247033
-0.361045
-0.434822
-0.45903
-0.431793
-0.360073
-0.257435
-0.141021
-0.0319056
0.0503454
0.0927036
0.0884085
0.0408761
-0.0396102
-0.13642
-0.239688
-0.307255
-0.33722
-0.322456
-0.267652
-0.184141
-0.0900151
-0.00299216
0.0553089
0.0782891
0.0680053
0.0357785
-0.00112025
-0.0253338
4.29078
4.29974
4.31738
4.34346
4.37738
4.41858
4.46627
4.51962
4.57722
4.63724
4.69771
4.75704
4.81302
4.86362
4.90682
4.94068
4.96336
4.97334
4.96835
4.94727
4.90908
4.8532
4.77919
4.68708
4.57692
4.44895
4.30382
4.14201
3.96744
3.78184
3.58627
3.38222
3.17116
2.95456
2.73386
2.51054
2.28626
2.06254
1.84071
1.62228
1.40842
1.2003
0.999047
0.805725
0.621359
0.446939
0.283339
0.131449
-0.00801177
-0.134263
-0.246775
-0.344951
-0.428588
-0.497599
-0.552088
-0.585016
-0.602401
-0.604564
-0.59147
-0.56321
-0.520044
-0.462476
-0.391232
-0.307254
-0.211671
-0.105787
0.00892928
0.130863
0.258438
0.389094
0.521079
0.652249
0.7803
0.902971
1.01798
1.12298
1.21572
1.29409
1.35611
1.40001
1.42421
1.42729
1.40855
1.36758
1.3041
1.21832
1.11095
0.983279
0.83709
0.674656
0.498711
0.312454
0.119495
-0.0762647
-0.27043
-0.45864
-0.636418
-0.799252
-0.942841
-1.06313
-1.15634
-1.21947
-1.25007
-1.24661
-1.20905
-1.13725
-1.03249
-0.89729
-0.735328
-0.551293
-0.350819
-0.140375
0.0738883
0.282317
0.478278
0.654135
0.802767
0.917599
0.993212
1.02571
1.0128
0.954637
0.85231
0.709373
0.531679
0.326846
0.104161
-0.126043
-0.350295
-0.557473
-0.73625
-0.876289
-0.968937
-1.00774
-0.989335
-0.914486
-0.786612
-0.612961
-0.404029
-0.172354
0.0669832
0.29518
0.497878
0.659913
0.768549
0.814655
0.795566
0.710765
0.565996
0.372584
0.145422
-0.105709
-0.340111
-0.547724
-0.709843
-0.811341
-0.84242
-0.801476
-0.691767
-0.524614
-0.31734
-0.0884443
0.127309
0.309958
0.439283
0.501086
0.488787
0.405728
0.26305
0.0802219
-0.11942
-0.307726
-0.45913
-0.554271
-0.581163
-0.537873
-0.434618
-0.290742
-0.129816
0.0183806
0.128998
0.183759
0.174071
0.105197
-0.00792401
-0.142337
-0.280179
-0.372049
-0.411354
-0.388495
-0.315814
-0.204701
-0.080813
0.0337285
0.104271
0.125175
0.100655
0.0471409
-0.0104656
-0.0474671
4.09146
4.10848
4.14306
4.1951
4.26368
4.35236
4.45987
4.58288
4.71705
4.85931
5.00471
5.15423
5.29434
5.42528
5.54343
5.64527
5.7274
5.78686
5.82097
5.82753
5.80486
5.75177
5.66771
5.55261
5.4072
5.23279
5.03108
4.80471
4.55855
4.29775
4.02351
3.73893
3.44681
3.15004
2.85116
2.55251
2.25617
1.964
1.67766
1.39866
1.1284
0.868156
0.619169
0.38242
0.159029
-0.050013
-0.243737
-0.421268
-0.581668
-0.724148
-0.84784
-0.952036
-1.0357
-1.09786
-1.13739
-1.16685
-1.17471
-1.16079
-1.12556
-1.06979
-0.994325
-0.900192
-0.788525
-0.660685
-0.518213
-0.362864
-0.196637
-0.02174
0.161184
0.34616
0.532304
0.716706
0.896318
1.06815
1.2292
1.37632
1.50666
1.61745
1.70594
1.76983
1.80718
1.8162
1.79614
1.74627
1.66624
1.55638
1.41772
1.25206
1.06176
0.849879
0.620103
0.376683
0.124423
-0.131443
-0.38515
-0.630904
-0.862718
-1.07463
-1.26091
-1.41618
-1.5357
-1.6155
-1.65206
-1.64363
-1.58994
-1.49107
-1.34883
-1.16667
-0.949496
-0.703508
-0.43619
-0.156123
0.12773
0.403948
0.663103
0.895121
1.09045
1.24068
1.33872
1.3793
1.35919
1.27918
1.14068
0.948691
0.711009
0.437821
0.14103
-0.167247
-0.46483
-0.738653
-0.974133
-1.15788
-1.27883
-1.32874
-1.3
-1.1968
-1.02374
-0.790542
-0.511252
-0.202496
0.115454
0.417776
0.685401
0.898168
1.03933
1.09684
1.06908
0.953792
0.759475
0.501613
0.20009
-0.129942
-0.438409
-0.710133
-0.920418
-1.04945
-1.08522
-1.02575
-0.875974
-0.651446
-0.374432
-0.0665828
0.217897
0.456119
0.622404
0.698605
0.677015
0.561786
0.368898
0.124704
-0.139753
-0.386022
-0.582445
-0.702611
-0.731516
-0.667148
-0.524148
-0.328863
-0.112901
0.0833872
0.228282
0.297438
0.280217
0.183897
0.0297717
-0.151339
-0.331569
-0.453154
-0.503914
-0.473082
-0.374374
-0.228147
-0.0684041
0.0826663
0.166184
0.183069
0.139603
0.0586436
-0.0254548
-0.0787688
3.50434
3.54287
3.62029
3.73609
3.88885
4.09192
4.32141
4.57413
4.84184
5.12228
5.41166
5.70448
5.99123
6.26402
6.5129
6.72953
6.90861
7.04532
7.1356
7.1761
7.16441
7.09949
6.98088
6.80996
6.58892
6.32255
6.01606
5.67846
5.31821
4.92327
4.51851
4.10971
3.70111
3.29604
2.89713
2.50643
2.12563
1.75614
1.39915
1.05582
0.726956
0.413556
0.116541
-0.163193
-0.424771
-0.667235
-0.889725
-1.09138
-1.27137
-1.42878
-1.56295
-1.67314
-1.75881
-1.81971
-1.85598
-1.86462
-1.84856
-1.80742
-1.74113
-1.65004
-1.53487
-1.39668
-1.23685
-1.05705
-0.859224
-0.645597
-0.418656
-0.181162
0.0639712
0.312973
0.562586
0.80918
1.0489
1.2779
1.49234
1.68832
1.86204
2.00993
2.12876
2.21533
2.26718
2.28217
2.25978
2.19855
2.09812
1.95902
1.78272
1.57157
1.32866
1.05797
0.764279
0.453123
0.130705
-0.196142
-0.520097
-0.83361
-1.12899
-1.3985
-1.63483
-1.83114
-1.98137
-2.08014
-2.12382
-2.1089
-2.03576
-1.90458
-1.71784
-1.48003
-1.19748
-0.878307
-0.532245
-0.170291
0.1955
0.551298
0.884484
1.18217
1.43214
1.62334
1.74684
1.79608
1.76742
1.6608
1.47885
1.22844
0.919875
0.566665
0.184298
-0.222392
-0.604156
-0.955217
-1.25676
-1.49147
-1.64522
-1.7081
-1.66558
-1.52804
-1.30108
-0.997215
-0.634549
-0.234679
0.17584
0.565449
0.909181
1.18123
1.3602
1.43113
1.39118
1.23858
0.984853
0.650242
0.260781
-0.161994
-0.557442
-0.903884
-1.16981
-1.33034
-1.37063
-1.28789
-1.09028
-0.798372
-0.439573
-0.0348845
0.329331
0.631114
0.839402
0.931295
0.897307
0.743068
0.490215
0.173228
-0.167523
-0.481935
-0.730382
-0.87873
-0.908531
-0.817996
-0.627122
-0.370599
-0.0896257
0.1631
0.347785
0.432838
0.40569
0.275907
0.0726332
-0.163922
-0.393881
-0.550005
-0.613534
-0.572258
-0.441689
-0.253206
-0.0541189
0.145873
0.240584
0.251419
0.18408
0.0696473
-0.0467335
-0.119906
2.10183
2.17589
2.3265
2.555
2.86077
3.2157
3.65212
4.16667
4.73591
5.33709
5.91455
6.47663
7.0055
7.48896
7.91464
8.27786
8.57197
8.79278
8.93698
9.00392
8.99093
8.89563
8.71594
8.45273
8.10666
7.68432
7.19101
6.64734
6.06789
5.5097
4.95304
4.40518
3.86922
3.34787
2.84281
2.35564
1.88746
1.43915
1.01131
0.604358
0.218565
-0.145855
-0.488513
-0.808847
-1.10626
-1.38002
-1.62923
-1.85307
-2.05062
-2.22098
-2.36309
-2.47615
-2.55933
-2.61177
-2.63278
-2.62684
-2.58894
-2.51937
-2.41871
-2.28775
-2.1275
-1.93932
-1.7249
-1.48631
-1.22594
-0.946552
-0.651272
-0.343551
-0.027163
0.293551
0.614398
0.930817
1.23797
1.53109
1.80534
2.05583
2.27792
2.46715
2.61942
2.73094
2.79853
2.81967
2.79347
2.7182
2.59359
2.4204
2.20054
1.93696
1.63363
1.29554
0.928718
0.540173
0.137766
-0.269966
-0.673856
-1.06437
-1.43186
-1.7667
-2.05973
-2.30243
-2.48695
-2.60688
-2.65734
-2.63521
-2.53969
-2.37136
-2.13364
-1.83224
-1.47519
-1.07273
-0.637051
-0.182015
0.276857
0.722846
1.13992
1.5117
1.82308
2.06041
2.21242
2.27103
2.23122
2.0935
1.86151
1.54393
1.15404
0.710003
0.23512
-0.293633
-0.765884
-1.20407
-1.58046
-1.87217
-2.06135
-2.13715
-2.07934
-1.90293
-1.61442
-1.22961
-0.771591
-0.267906
0.24783
0.736602
1.1666
1.50549
1.72677
1.81218
1.75692
1.56062
1.23825
0.815666
0.325802
-0.202268
-0.696157
-1.12694
-1.45524
-1.65032
-1.69408
-1.58351
-1.33068
-0.963023
-0.516143
0.0121115
0.461012
0.832604
1.08725
1.19576
1.14627
0.946543
0.624614
0.224529
-0.203112
-0.594707
-0.901322
-1.08033
-1.10903
-0.988028
-0.741707
-0.414787
-0.0597254
0.256969
0.486144
0.588269
0.548561
0.379627
0.119633
-0.180223
-0.466626
-0.661493
-0.738586
-0.683932
-0.516097
-0.277857
-0.0286918
0.21408
0.325729
0.329332
0.233555
0.0797368
-0.0744971
-0.170882
-0.253084
-0.132822
0.111811
0.482054
0.976381
1.59135
2.28492
3.04795
3.89701
4.94306
5.90856
6.85332
7.7649
8.6482
9.41439
10.0608
10.5901
10.9979
11.2778
11.4222
11.4258
11.2908
11.0151
10.6024
10.0561
9.38925
8.61745
7.77382
6.93948
6.11317
5.32098
4.57233
3.86988
3.21169
2.5949
2.01565
1.47079
0.95713
0.472752
0.0174347
-0.413122
-0.81805
-1.19734
-1.55075
-1.8778
-2.17779
-2.44976
-2.69259
-2.90513
-3.08625
-3.23469
-3.34933
-3.42914
-3.47326
-3.4813
-3.45274
-3.38734
-3.28494
-3.14585
-2.97081
-2.76093
-2.51782
-2.24348
-1.94038
-1.61146
-1.26004
-0.889924
-0.50531
-0.110799
0.288389
0.687104
1.07975
1.46044
1.82339
2.16278
2.4726
2.74717
2.98118
3.16946
3.30759
3.39166
3.41872
3.38747
3.29587
3.14377
2.93221
2.66356
2.34151
1.97094
1.55801
1.11013
0.635882
0.14488
-0.352238
-0.844333
-1.31975
-1.76671
-2.17342
-2.52871
-2.82211
-3.04412
-3.18709
-3.24471
-3.214
-3.09315
-2.88339
-2.58904
-2.21715
-1.77758
-1.283
-0.748382
-0.190856
0.370786
0.916055
1.42515
1.87834
2.2569
2.5443
2.72683
2.79464
2.74248
2.56984
2.2819
1.88919
1.40812
0.860172
0.270119
-0.358075
-0.943196
-1.4806
-1.93996
-2.29373
-2.51982
-2.60477
-2.53365
-2.31515
-1.95836
-1.48357
-0.919791
-0.301271
0.330737
0.928846
1.45367
1.86571
2.13286
2.23327
2.15982
1.91415
1.51504
0.994575
0.393515
-0.25058
-0.85269
-1.37582
-1.77194
-2.00379
-2.04981
-1.90706
-1.59191
-1.14068
-0.605347
0.0769997
0.609563
1.05664
1.36157
1.4872
1.41937
1.16844
0.769461
0.277193
-0.246417
-0.722714
-1.09267
-1.3043
-1.32993
-1.17435
-0.86564
-0.46032
-0.0233918
0.363709
0.64125
0.761172
0.706307
0.493114
0.169695
-0.200309
-0.548842
-0.78586
-0.876945
-0.806094
-0.596111
-0.301508
0.00632921
0.287829
0.420564
0.415682
0.287702
0.0886458
-0.10851
-0.23113
-4.0369
-3.86903
-3.52139
-2.97635
-2.21125
-1.19089
0.0819862
1.82543
4.34919
6.40854
8.1993
9.77104
11.0887
12.1574
13.065
13.8138
14.3994
14.8232
15.0866
15.1885
15.1264
14.8924
14.4728
13.8593
13.0181
11.9419
10.5837
8.68418
7.33909
6.19847
5.19827
4.32319
3.52963
2.79809
2.11809
1.48535
0.894761
0.341089
-0.179389
-0.669059
-1.13097
-1.56573
-1.97333
-2.35353
-2.70558
-3.02827
-3.32036
-3.58031
-3.80654
-3.9973
-4.15105
-4.26625
-4.34153
-4.37571
-4.3677
-4.31718
-4.2234
-4.08638
-3.90648
-3.68453
-3.4218
-3.12016
-2.78194
-2.4101
-2.00807
-1.57984
-1.1299
-0.663276
-0.185469
0.297338
0.779
1.25287
1.71191
2.14924
2.55782
2.93056
3.26076
3.542
3.76826
3.93425
4.03529
4.06795
4.03034
3.92037
3.73797
3.48447
3.16276
2.77725
2.33386
1.84001
1.30462
0.737966
0.151526
-0.441841
-1.0288
-1.59545
-2.12769
-2.61145
-3.03338
-3.38092
-3.64291
-3.81022
-3.87575
-3.83471
-3.68599
-3.43124
-3.07559
-2.62754
-2.09902
-1.50524
-0.864259
-0.196323
0.475632
1.12731
1.73506
2.27528
2.72567
3.06636
3.28114
3.35832
3.29193
3.08112
2.73214
2.25807
1.67837
1.01832
0.307452
-0.433781
-1.13719
-1.78101
-2.32934
-2.74956
-3.01402
-3.09898
-3.02171
-2.75794
-2.32683
-1.75449
-1.07637
-0.333917
0.423404
1.13891
1.76522
2.25532
2.57094
2.68644
2.59231
2.29241
1.80981
1.18337
0.462227
-0.306353
-1.02446
-1.64612
-2.11404
-2.38412
-2.43123
-2.25226
-1.86818
-1.32399
-0.68557
0.138987
0.768932
1.29851
1.6572
1.80036
1.7117
1.40455
0.92187
0.330112
-0.296914
-0.863783
-1.30103
-1.54676
-1.56939
-1.37367
-0.996517
-0.506169
0.0188815
0.481457
0.810325
0.948335
0.875973
0.614155
0.221706
-0.223903
-0.639169
-0.920913
-1.02609
-0.936555
-0.68029
-0.324133
0.0463205
0.369953
0.523964
0.509011
0.345061
0.0961616
-0.148189
-0.299608
-9.20278
-8.97132
-8.49116
-7.74056
-6.68526
-5.27564
-3.42604
-1.10199
2.45239
5.32081
7.85938
10.0517
11.9195
13.505
14.8369
15.9298
16.7929
17.431
17.8448
18.0307
17.9829
17.694
17.1437
16.3151
15.1685
13.6787
11.8394
9.18733
7.43191
5.98538
4.7978
3.77668
2.88909
2.10801
1.40994
0.768176
0.173468
-0.386676
-0.918129
-1.42355
-1.90353
-2.35842
-2.7876
-3.18993
-3.5638
-3.90729
-4.21834
-4.49474
-4.73422
-4.93453
-5.09354
-5.2092
-5.27966
-5.30334
-5.2789
-5.20542
-5.08233
-4.90951
-4.6873
-4.41662
-4.09891
-3.7363
-3.33149
-2.88793
-2.40963
-1.90122
-1.36796
-0.815739
-0.250978
0.319116
0.887337
1.44591
1.9866
2.50135
2.98199
3.42023
3.80819
4.13838
4.40382
4.59831
4.71653
4.75444
4.70937
4.57939
4.36451
4.06633
3.68827
3.23555
2.71514
2.13585
1.50815
0.844122
0.157247
-0.537348
-1.22407
-1.88656
-2.5083
-3.07281
-3.56442
-3.96856
-4.27221
-4.46457
-4.53747
-4.48554
-4.30722
-4.00475
-3.58425
-3.05585
-2.43359
-1.73535
-0.982374
-0.198413
0.589182
1.35254
2.06374
2.69501
3.22041
3.61672
3.86503
3.95175
3.86943
3.61768
3.20407
2.64395
1.96002
1.18252
0.345879
-0.519234
-1.34508
-2.10012
-2.74191
-3.23226
-3.53956
-3.64075
-3.53915
-3.22399
-2.71326
-2.03748
-1.23844
-0.36508
0.524048
1.36282
2.09549
2.66698
3.03275
3.16304
3.04608
2.68825
2.11694
1.37839
0.530594
-0.368521
-1.20826
-1.93288
-2.47538
-2.78442
-2.8313
-2.61277
-2.1543
-1.50917
-0.754344
0.196088
0.935644
1.55366
1.96871
2.12948
2.0178
1.65049
1.07888
0.382002
-0.353324
-1.01522
-1.52243
-1.80297
-1.82097
-1.5821
-1.13191
-0.551432
0.0663081
0.608012
0.990153
1.14622
1.05438
0.740443
0.274635
-0.250671
-0.735938
-1.06415
-1.18328
-1.073
-0.767184
-0.345563
0.0903093
0.459138
0.634221
0.607662
0.404668
0.102221
-0.1927
-0.374914
-16.0119
-15.9307
-15.7861
-15.6206
-15.3721
-15.1338
-14.8764
-14.6252
3.95212
3.45029
3.08348
2.76235
2.20657
1.67187
1.08916
0.520234
-0.0597292
-0.611194
-1.15484
-1.6824
-2.19345
-2.68564
-3.15723
-3.60599
-4.02938
-4.42472
-4.78912
-5.11957
-5.41308
-5.66665
-5.87733
-6.04232
-6.15905
-6.22518
-6.23871
-6.19798
-6.10174
-5.94923
-5.74026
-5.47516
-5.15493
-4.78118
-4.35635
-3.8835
-3.3666
-2.81022
-2.21971
-1.60113
-0.961228
-0.3074
0.352081
1.00892
1.65418
2.27842
2.87237
3.42667
3.93176
4.37861
4.75863
5.06384
5.28707
5.42235
5.46495
5.41159
5.26044
5.01154
4.66679
4.23018
3.70778
3.10761
2.4399
1.71681
0.952253
0.161767
-0.637234
-1.42676
-2.18793
-2.90173
-3.54919
-4.11237
-4.57452
-4.9207
-5.13856
-5.21852
-5.15494
-4.9458
-4.59377
-4.10609
-3.49451
-2.77534
-1.96928
-1.10087
-0.197521
0.709213
1.58749
2.40496
3.12975
3.73202
4.18519
4.46752
4.5634
4.4643
4.16991
3.68922
3.03988
2.24818
1.34946
0.383233
-0.610789
-1.56269
-2.43215
-3.17017
-3.73268
-4.08411
-4.19962
-4.07398
-3.70454
-3.11068
-2.32738
-1.40306
-0.394288
0.630715
1.59641
2.43836
3.09313
3.5098
3.65433
3.51298
3.09449
2.43087
1.5761
0.597764
-0.435911
-1.40066
-2.2309
-2.84944
-3.19766
-3.24296
-2.98236
-2.44558
-1.69398
-0.810901
0.247397
1.1075
1.81772
2.29053
2.46864
2.33223
1.90195
1.23784
0.432096
-0.414591
-1.17413
-1.75275
-2.06816
-2.08011
-1.79584
-1.26941
-0.595307
0.117793
0.740935
1.17735
1.35116
1.23827
0.8697
0.327492
-0.280063
-0.837327
-1.21294
-1.34568
-1.2131
-0.855365
-0.365583
0.137525
0.553513
0.749348
0.709888
0.465545
0.106848
-0.24105
-0.455469
-22.276
-22.23
-22.1392
-22.0082
-21.8133
-21.6322
-21.451
-21.1434
2.82755
2.3357
2.01656
1.67136
1.16998
0.718682
0.208407
-0.306249
-0.836368
-1.3662
-1.89662
-2.42231
-2.93988
-3.44532
-3.93484
-4.40452
-4.85052
-5.26892
-5.65578
-6.00718
-6.31924
-6.58821
-6.81045
-6.98255
-7.10135
-7.16405
-7.16818
-7.11173
-6.99321
-6.81166
-6.56679
-6.25892
-5.88913
-5.45921
-4.97188
-4.43064
-3.83992
-3.20493
-2.53171
-1.82716
-1.09893
-0.355361
0.394164
1.14026
1.87281
2.58115
3.25479
3.88315
4.45543
4.96141
5.39141
5.73635
5.98815
6.1401
6.18685
6.12464
5.95156
5.66773
5.27537
4.77903
4.18569
3.50447
2.74694
1.92695
1.06042
0.164937
-0.739857
-1.63348
-2.49449
-3.30136
-4.03266
-4.66805
-5.18865
-5.57763
-5.82102
-5.90811
-5.83202
-5.59116
-5.18855
-4.63251
-3.93643
-3.1189
-2.20349
-1.21809
-0.193989
0.833477
1.8279
2.75271
3.57189
4.25167
4.76203
5.07845
5.18323
5.06659
4.72857
4.17956
3.43932
2.5383
1.51626
0.419057
-0.706514
-1.78604
-2.77127
-3.60656
-4.24193
-4.63743
-4.76554
-4.61628
-4.19122
-3.51231
-2.61937
-1.56768
-0.421207
0.741376
1.83551
2.78781
3.52644
3.99392
4.15198
3.98524
3.50438
2.74647
1.77327
0.662739
-0.507107
-1.59821
-2.53497
-3.22982
-3.6168
-3.65948
-3.3551
-2.73785
-1.87709
-0.866101
0.30316
1.28302
2.08649
2.61731
2.81216
2.64979
2.15483
1.39633
0.479969
-0.479618
-1.33762
-1.9879
-2.33775
-2.3425
-2.01135
-1.40689
-0.637382
0.172418
0.877779
1.36859
1.55959
1.42452
0.999801
0.379487
-0.311527
-0.941481
-1.36469
-1.51055
-1.35457
-0.943522
-0.384065
0.187179
0.651156
0.867307
0.81396
0.526748
0.110134
-0.292179
-0.539634
-28.0304
-28.0049
-27.9555
-27.8887
-27.795
-27.729
-27.6463
-27.5873
1.43323
1.21748
0.98976
0.734058
0.327732
-0.0760168
-0.535298
-1.01719
-1.52435
-2.0443
-2.57401
-3.10678
-3.63775
-4.16152
-4.67293
-5.16685
-5.63822
-6.08208
-6.49351
-6.86773
-7.20003
-7.48592
-7.72109
-7.90154
-8.02356
-8.08387
-8.07961
-8.00835
-7.8684
-7.65862
-7.37862
-7.02871
-6.61006
-6.12463
-5.57546
-4.96643
-4.30249
-3.58947
-2.83415
-2.04424
-1.22829
-0.39562
0.443292
1.27797
2.09713
2.88889
3.64157
4.34337
4.98224
5.54677
6.02616
6.41028
6.69015
6.85825
6.90865
6.83718
6.64178
6.32269
5.88247
5.32622
4.66182
3.8995
3.05219
2.13542
1.167
0.166622
-0.843652
-1.84103
-2.80152
-3.70108
-4.51578
-5.22294
-5.80158
-6.23296
-6.50157
-6.59557
-6.5066
-6.23359
-5.78025
-5.15574
-4.37513
-3.45931
-2.43478
-1.33286
-0.187926
0.959738
2.06976
3.10139
4.01439
4.77116
5.33822
5.68832
5.80178
5.66713
5.28521
4.66759
3.83638
2.82608
1.68073
0.452854
-0.804534
-2.01132
-3.11196
-4.04406
-4.75187
-5.19073
-5.33026
-5.15751
-4.67645
-3.91204
-2.90908
-1.72972
-0.445923
0.854007
2.07617
3.13825
3.96008
4.47762
4.64845
4.45573
3.91187
3.05915
1.96715
0.724659
-0.580648
-1.79762
-2.84021
-3.6106
-4.03543
-4.07459
-3.72564
-3.02718
-2.0569
-0.919844
0.362769
1.45992
2.35596
2.94406
3.15481
2.96571
2.40551
1.55218
0.52477
-0.546686
-1.50287
-2.22406
-2.60747
-2.60416
-2.22544
-1.54243
-0.677127
0.22894
1.0162
1.56074
1.76818
1.61025
1.12884
0.429958
-0.344487
-1.04662
-1.51697
-1.67536
-1.49535
-1.03046
-0.400929
0.238415
0.750233
0.986149
0.918249
0.587425
0.112212
-0.345033
-0.625799
-33.2228
-33.2089
-33.1813
-33.1467
-33.0977
-33.0657
-33.0185
-32.9947
0.575421
0.442114
0.235823
0.0129965
-0.339435
-0.717397
-1.15082
-1.61777
-2.11825
-2.64004
-3.17879
-3.72657
-4.27744
-4.82483
-5.36247
-5.88413
-6.38377
-6.85548
-7.29352
-7.69227
-8.04633
-8.35048
-8.59978
-8.78967
-8.91596
-8.97491
-8.96325
-8.87828
-8.71797
-8.48107
-8.1671
-7.77638
-7.31014
-6.77055
-6.16093
-5.48554
-4.74988
-3.9604
-3.12459
-2.251
-1.34906
-0.429044
0.497458
1.41892
2.32292
3.19638
4.02645
4.80013
5.50416
6.12595
6.65359
7.0759
7.38299
7.56661
7.6202
7.53923
7.32151
6.96737
6.47974
5.86425
5.12968
4.28733
3.35153
2.3394
1.27066
0.166935
-0.947121
-2.04652
-3.1048
-4.09544
-4.99199
-5.76955
-6.40505
-6.87783
-7.1711
-7.27203
-7.1697
-6.8647
-6.36112
-5.66903
-4.80505
-3.79236
-2.66035
-1.44367
-0.179959
1.08583
2.30944
3.44598
4.45105
5.28326
5.90579
6.28876
6.41071
6.25782
5.8324
5.14684
4.22594
3.10778
1.84107
0.484256
-0.903216
-2.23513
-3.44925
-4.47648
-5.2553
-5.7364
-5.88649
-5.69033
-5.15369
-4.30458
-3.19274
-1.88725
-0.46841
0.966731
2.31486
3.48472
4.388
4.95431
5.1371
4.91815
4.31168
3.36506
2.15554
0.78283
-0.655172
-1.99587
-3.1423
-3.98647
-4.44786
-4.48281
-4.08925
-3.31011
-2.23154
-0.971029
0.424311
1.63577
2.62244
3.26632
3.49201
3.27588
2.65079
1.7036
0.566727
-0.615028
-1.66738
-2.45783
-2.87358
-2.86156
-2.43534
-1.67445
-0.714229
0.286274
1.15406
1.751
1.97402
1.79295
1.25517
0.478392
-0.378357
-1.1511
-1.66762
-1.83784
-1.63359
-1.11518
-0.416197
0.290433
0.849086
1.10411
1.0213
0.64683
0.113244
-0.398621
-0.712475
-37.8648
-37.8569
-37.8407
-37.8214
-37.7926
-37.7759
-37.7469
-37.7368
-0.0125521
-0.113474
-0.308762
-0.521128
-0.851139
-1.21996
-1.64712
-2.11436
-2.62091
-3.15467
-3.71064
-4.28029
-4.8567
-5.43233
-5.99991
-6.55229
-7.08255
-7.58402
-8.05021
-8.47482
-8.85175
-9.17514
-9.43948
-9.63966
-9.77108
-9.82965
-9.81171
-9.71399
-9.53448
-9.27178
-8.92531
-8.49537
-7.98329
-7.39141
-6.72333
-5.98372
-5.1786
-4.31501
-3.40118
-2.44647
-1.46118
-0.456516
0.554832
1.56034
2.54651
3.49907
4.40405
5.24731
6.01441
6.69159
7.26585
7.725
8.05824
8.25661
8.31301
8.22245
7.9827
7.5942
7.0602
6.3869
5.58389
4.66358
3.6416
2.53663
1.37026
0.166053
-1.04892
-2.24746
-3.40074
-4.4798
-5.45574
-6.30155
-6.99209
-7.50483
-7.82186
-7.9295
-7.81373
-7.47741
-6.92471
-6.16676
-5.22156
-4.11456
-2.87801
-1.54952
-0.170563
1.20997
2.54387
3.78222
4.87658
5.78188
6.45806
6.87274
7.00318
6.83183
6.36386
5.612
4.60374
3.38034
1.9956
0.513091
-1.00096
-2.4545
-3.77892
-4.89855
-5.74616
-6.26796
-6.42793
-6.20858
-5.61749
-4.68551
-3.46729
-2.03874
-0.488666
1.07788
2.54852
3.82301
4.80509
5.41838
5.61234
5.36724
4.69942
3.66095
2.33656
0.836908
-0.729381
-2.19037
-3.43752
-4.35295
-4.8493
-4.87955
-4.44192
-3.58382
-2.39941
-1.01876
0.486045
1.80829
2.88273
3.58034
3.8199
3.57683
2.8881
1.84919
0.605406
-0.683254
-1.82895
-2.6863
-3.1329
-3.11177
-2.63873
-1.80168
-0.748732
0.343647
1.2895
1.93697
2.17464
1.97051
1.37743
0.524448
-0.412636
-1.25349
-1.81478
-1.99609
-1.76776
-1.19686
-0.429913
0.342453
0.946282
1.21968
1.12188
0.704346
0.113392
-0.452053
-0.79834
-41.9965
-41.9916
-41.9809
-41.9692
-41.9501
-41.9407
-41.9217
-41.9168
-0.425632
-0.515513
-0.703915
-0.91507
-1.23873
-1.60963
-2.04226
-2.52003
-3.04157
-3.5948
-4.1743
-4.77108
-5.3774
-5.98482
-6.58513
-7.17033
-7.73278
-8.2652
-8.76049
-9.21173
-9.61217
-9.95538
-10.2353
-10.4463
-10.5834
-10.6424
-10.6194
-10.5097
-10.3123
-10.0252
-9.64792
-9.18065
-8.62482
-7.98293
-7.25887
-6.4577
-5.58594
-4.65127
-3.66255
-2.62995
-1.56469
-0.478844
0.613852
1.69992
2.76484
3.79322
4.76998
5.67992
6.50745
7.23769
7.85658
8.35091
8.70906
8.9213
8.98022
8.8801
8.61886
8.19707
7.61827
6.88917
6.02017
5.0247
3.91969
2.72534
1.46498
0.164115
-1.14793
-2.44181
-3.68639
-4.85039
-5.90255
-6.81382
-7.55714
-8.10799
-8.44761
-8.56344
-8.4326
-8.06602
-7.46598
-6.64443
-5.621
-4.42316
-3.0858
-1.64981
-0.16017
1.33072
2.77054
4.10668
5.28672
6.26212
6.98963
7.4345
7.57351
7.38364
6.87457
6.05878
4.96637
3.64136
2.14283
0.539366
-1.09631
-2.66699
-4.09752
-5.30602
-6.21953
-6.7802
-6.94948
-6.70731
-6.06347
-5.05133
-3.73038
-2.18301
-0.506731
1.18609
2.77466
4.14963
5.20721
5.86532
6.06962
5.79881
5.07156
3.94431
2.50883
0.886646
-0.802125
-2.37895
-3.72283
-4.7064
-5.23588
-5.26109
-4.78052
-3.84602
-2.55917
-1.06249
0.546542
1.97558
3.1342
3.88301
4.13534
3.86581
3.11539
1.98785
0.640343
-0.749929
-1.98574
-2.90707
-3.38286
-3.35241
-2.83383
-1.92309
-0.780545
0.400181
1.42098
2.11671
2.36802
2.14124
1.49457
0.567881
-0.446859
-1.35261
-1.95694
-2.14857
-1.89664
-1.27484
-0.442169
0.393798
1.04063
1.3316
1.21897
0.759483
0.112821
-0.504566
-0.882273
-45.6655
-45.662
-45.6538
-45.6459
-45.632
-45.6257
-45.6126
-45.6094
-0.709614
-0.797446
-0.985086
-1.20047
-1.52725
-1.90783
-2.35368
-2.84895
-3.39133
-3.96919
-4.57656
-5.20416
-5.84345
-6.48507
-7.11987
-7.73908
-8.33444
-8.89822
-9.42289
-9.90099
-10.3251
-10.6883
-10.9839
-11.206
-11.3491
-11.409
-11.3812