/*--------------------------------*- C++ -*----------------------------------*\
  =========                 |
  \\      /  F ield         | OpenFOAM: The Open Source CFD Toolbox
   \\    /   O peration     | Website:  https://openfoam.org
    \\  /    A nd           | Version:  12
     \\/     M anipulation  |
\*---------------------------------------------------------------------------*/
FoamFile
{
    format      ascii;
    class       volScalarField;
    location    "9.24";
    object      p;
}
// * * * * * * * * * * * * * * * * * * * * * * * * * * * * * * * * * * * * * //

dimensions      [1 -1 -2 0 0 0 0];

internalField   nonuniform List<scalar> 
3829
(
-617.253
-617.252
-617.25
-617.247
-617.242
-617.237
-617.231
-617.223
-617.214
-617.203
-617.192
-617.178
-617.164
-617.147
-617.13
-617.11
-617.089
-617.066
-617.041
-617.014
-616.985
-616.954
-616.921
-616.886
-616.848
-616.809
-616.767
-616.723
-616.677
-616.629
-616.578
-616.525
-616.47
-616.413
-616.353
-616.292
-616.228
-616.163
-616.095
-616.026
-615.956
-615.884
-615.812
-615.738
-615.663
-615.589
-615.513
-615.438
-615.363
-615.289
-615.216
-615.144
-615.073
-615.004
-614.938
-614.874
-614.813
-614.755
-614.7
-614.65
-614.603
-614.561
-614.523
-614.49
-614.462
-614.439
-614.421
-614.407
-614.4
-614.397
-614.399
-614.405
-614.416
-614.431
-614.449
-614.469
-614.493
-614.517
-614.544
-614.57
-614.597
-614.623
-614.647
-614.669
-614.688
-614.703
-614.714
-614.721
-614.723
-614.717
-614.706
-614.689
-614.666
-614.637
-614.604
-614.566
-614.524
-614.479
-614.432
-614.383
-614.334
-614.286
-614.239
-614.196
-614.157
-614.124
-614.096
-614.076
-614.062
-614.057
-614.061
-614.072
-614.091
-614.117
-614.148
-614.185
-614.225
-614.267
-614.31
-614.351
-614.39
-614.424
-614.452
-614.473
-614.487
-614.492
-614.488
-614.477
-614.457
-614.431
-614.401
-614.366
-614.331
-614.295
-614.263
-614.234
-614.212
-614.196
-614.189
-614.189
-614.198
-614.214
-614.236
-614.263
-614.292
-614.321
-614.348
-614.372
-614.391
-614.403
-614.409
-614.407
-614.399
-614.386
-614.37
-614.351
-614.333
-614.317
-614.304
-614.296
-614.293
-614.295
-614.301
-614.309
-614.32
-614.33
-614.338
-614.343
-614.344
-614.34
-614.333
-614.321
-614.307
-614.293
-614.279
-614.268
-614.262
-614.261
-614.265
-614.276
-614.292
-614.313
-614.336
-614.36
-614.385
-614.406
-614.423
-614.434
-614.439
-614.437
-614.428
-614.414
-614.395
-614.373
-614.349
-614.325
-614.304
-614.286
-614.273
-614.266
-1775.71
-1775.71
-1775.7
-1775.7
-1775.7
-1775.69
-1775.69
-1775.68
-1775.67
-1775.66
-1775.65
-1775.64
-1775.62
-1775.61
-1775.59
-1775.57
-1775.55
-1775.53
-1775.5
-1775.47
-1775.44
-1775.41
-1775.38
-1775.34
-1775.3
-1775.26
-1775.22
-1775.17
-1775.12
-1775.07
-1775.02
-1774.96
-1774.9
-1774.84
-1774.77
-1774.71
-1774.64
-1774.57
-1774.49
-1774.42
-1774.34
-1774.26
-1774.18
-1774.1
-1774.02
-1773.94
-1773.86
-1773.77
-1773.69
-1773.61
-1773.53
-1773.45
-1773.37
-1773.3
-1773.22
-1773.15
-1773.09
-1773.03
-1772.97
-1772.91
-1772.87
-1772.82
-1772.79
-1772.75
-1772.73
-1772.71
-1772.69
-1772.68
-1772.68
-1772.68
-1772.69
-1772.7
-1772.72
-1772.75
-1772.77
-1772.8
-1772.84
-1772.87
-1772.91
-1772.94
-1772.98
-1773.02
-1773.05
-1773.08
-1773.1
-1773.12
-1773.14
-1773.15
-1773.15
-1773.15
-1773.14
-1773.12
-1773.09
-1773.06
-1773.02
-1772.97
-1772.92
-1772.87
-1772.81
-1772.75
-1772.69
-1772.64
-1772.58
-1772.53
-1772.48
-1772.44
-1772.41
-1772.39
-1772.37
-1772.37
-1772.38
-1772.39
-1772.42
-1772.45
-1772.49
-1772.53
-1772.58
-1772.64
-1772.69
-1772.74
-1772.79
-1772.83
-1772.86
-1772.88
-1772.9
-1772.9
-1772.9
-1772.88
-1772.86
-1772.82
-1772.78
-1772.74
-1772.7
-1772.65
-1772.61
-1772.58
-1772.55
-1772.54
-1772.53
-1772.53
-1772.54
-1772.56
-1772.59
-1772.62
-1772.66
-1772.7
-1772.73
-1772.76
-1772.78
-1772.79
-1772.8
-1772.79
-1772.78
-1772.77
-1772.74
-1772.72
-1772.7
-1772.68
-1772.66
-1772.65
-1772.65
-1772.66
-1772.66
-1772.68
-1772.69
-1772.7
-1772.71
-1772.72
-1772.72
-1772.72
-1772.71
-1772.69
-1772.68
-1772.66
-1772.64
-1772.63
-1772.62
-1772.62
-1772.63
-1772.64
-1772.66
-1772.68
-1772.7
-1772.73
-1772.76
-1772.78
-1772.8
-1772.81
-1772.82
-1772.81
-1772.8
-1772.79
-1772.77
-1772.74
-1772.72
-1772.69
-1772.67
-1772.65
-1772.64
-1772.63
-2802.03
-2802.03
-2802.03
-2802.02
-2802.02
-2802.02
-2802.01
-2802
-2802
-2801.99
-2801.98
-2801.97
-2801.95
-2801.94
-2801.92
-2801.9
-2801.88
-2801.86
-2801.83
-2801.81
-2801.78
-2801.74
-2801.71
-2801.67
-2801.63
-2801.58
-2801.53
-2801.48
-2801.43
-2801.37
-2801.31
-2801.25
-2801.18
-2801.11
-2801.04
-2800.96
-2800.88
-2800.8
-2800.72
-2800.63
-2800.54
-2800.45
-2800.36
-2800.26
-2800.17
-2800.07
-2799.97
-2799.88
-2799.78
-2799.69
-2799.59
-2799.5
-2799.41
-2799.32
-2799.24
-2799.16
-2799.08
-2799.01
-2798.94
-2798.89
-2798.83
-2798.79
-2798.75
-2798.72
-2798.69
-2798.67
-2798.67
-2798.66
-2798.67
-2798.69
-2798.71
-2798.73
-2798.77
-2798.81
-2798.85
-2798.9
-2798.95
-2799.01
-2799.06
-2799.12
-2799.17
-2799.22
-2799.27
-2799.31
-2799.35
-2799.38
-2799.41
-2799.42
-2799.43
-2799.42
-2799.41
-2799.39
-2799.35
-2799.31
-2799.26
-2799.2
-2799.13
-2799.06
-2798.99
-2798.91
-2798.83
-2798.76
-2798.68
-2798.62
-2798.56
-2798.51
-2798.47
-2798.44
-2798.43
-2798.42
-2798.43
-2798.46
-2798.49
-2798.54
-2798.6
-2798.66
-2798.73
-2798.8
-2798.87
-2798.93
-2798.99
-2799.05
-2799.09
-2799.12
-2799.14
-2799.14
-2799.13
-2799.11
-2799.07
-2799.02
-2798.97
-2798.91
-2798.85
-2798.79
-2798.74
-2798.7
-2798.66
-2798.64
-2798.63
-2798.64
-2798.66
-2798.69
-2798.73
-2798.77
-2798.82
-2798.87
-2798.91
-2798.95
-2798.97
-2798.99
-2798.99
-2798.98
-2798.97
-2798.94
-2798.91
-2798.88
-2798.85
-2798.82
-2798.8
-2798.79
-2798.79
-2798.8
-2798.81
-2798.83
-2798.85
-2798.87
-2798.88
-2798.89
-2798.9
-2798.89
-2798.88
-2798.86
-2798.84
-2798.82
-2798.8
-2798.78
-2798.77
-2798.77
-2798.77
-2798.78
-2798.81
-2798.83
-2798.86
-2798.89
-2798.92
-2798.95
-2798.97
-2798.98
-2798.99
-2798.99
-2798.98
-2798.96
-2798.93
-2798.91
-2798.88
-2798.85
-2798.82
-2798.8
-2798.79
-2798.78
-3711.22
-3711.22
-3711.22
-3711.21
-3711.21
-3711.21
-3711.21
-3711.21
-3711.21
-3711.2
-3711.2
-3711.19
-3711.18
-3711.17
-3711.16
-3711.14
-3711.12
-3711.1
-3711.08
-3711.05
-3711.03
-3710.99
-3710.96
-3710.92
-3710.87
-3710.83
-3710.77
-3710.72
-3710.66
-3710.6
-3710.53
-3710.45
-3710.38
-3710.3
-3710.21
-3710.12
-3710.03
-3709.94
-3709.84
-3709.74
-3709.63
-3709.52
-3709.41
-3709.3
-3709.19
-3709.07
-3708.95
-3708.84
-3708.72
-3708.6
-3708.49
-3708.38
-3708.27
-3708.17
-3708.07
-3707.97
-3707.88
-3707.8
-3707.72
-3707.66
-3707.6
-3707.55
-3707.51
-3707.48
-3707.45
-3707.44
-3707.44
-3707.46
-3707.48
-3707.51
-3707.55
-3707.59
-3707.65
-3707.71
-3707.78
-3707.86
-3707.94
-3708.02
-3708.1
-3708.18
-3708.26
-3708.34
-3708.41
-3708.47
-3708.53
-3708.57
-3708.61
-3708.63
-3708.64
-3708.63
-3708.62
-3708.58
-3708.54
-3708.48
-3708.41
-3708.33
-3708.24
-3708.15
-3708.05
-3707.94
-3707.84
-3707.74
-3707.64
-3707.55
-3707.48
-3707.41
-3707.36
-3707.33
-3707.31
-3707.31
-3707.33
-3707.36
-3707.42
-3707.48
-3707.56
-3707.65
-3707.74
-3707.84
-3707.94
-3708.03
-3708.11
-3708.18
-3708.23
-3708.27
-3708.29
-3708.29
-3708.27
-3708.24
-3708.18
-3708.12
-3708.04
-3707.96
-3707.88
-3707.8
-3707.73
-3707.67
-3707.62
-3707.6
-3707.59
-3707.6
-3707.63
-3707.67
-3707.73
-3707.79
-3707.86
-3707.93
-3707.98
-3708.03
-3708.06
-3708.08
-3708.08
-3708.07
-3708.04
-3708
-3707.96
-3707.91
-3707.87
-3707.84
-3707.81
-3707.8
-3707.8
-3707.81
-3707.84
-3707.86
-3707.89
-3707.92
-3707.94
-3707.95
-3707.96
-3707.95
-3707.93
-3707.91
-3707.88
-3707.85
-3707.82
-3707.8
-3707.79
-3707.78
-3707.79
-3707.81
-3707.83
-3707.86
-3707.9
-3707.94
-3707.97
-3708
-3708.03
-3708.04
-3708.05
-3708.04
-3708.03
-3708.01
-3707.98
-3707.95
-3707.92
-3707.88
-3707.85
-3707.83
-3707.81
-3707.8
-4516.74
-4516.74
-4516.74
-4516.74
-4516.75
-4516.75
-4516.74
-4516.74
-4516.74
-4516.74
-4516.74
-4516.74
-4516.73
-4516.73
-4516.72
-4516.71
-4516.69
-4516.68
-4516.66
-4516.63
-4516.61
-4516.57
-4516.54
-4516.49
-4516.45
-4516.4
-4516.34
-4516.28
-4516.21
-4516.14
-4516.06
-4515.98
-4515.89
-4515.8
-4515.7
-4515.6
-4515.49
-4515.37
-4515.25
-4515.13
-4515
-4514.87
-4514.74
-4514.6
-4514.46
-4514.32
-4514.18
-4514.03
-4513.89
-4513.75
-4513.61
-4513.47
-4513.34
-4513.21
-4513.09
-4512.98
-4512.87
-4512.77
-4512.68
-4512.6
-4512.54
-4512.48
-4512.44
-4512.41
-4512.4
-4512.39
-4512.41
-4512.43
-4512.47
-4512.52
-4512.59
-4512.66
-4512.75
-4512.84
-4512.94
-4513.05
-4513.17
-4513.28
-4513.4
-4513.52
-4513.63
-4513.73
-4513.83
-4513.92
-4514
-4514.06
-4514.11
-4514.14
-4514.16
-4514.15
-4514.13
-4514.08
-4514.02
-4513.94
-4513.85
-4513.74
-4513.62
-4513.49
-4513.36
-4513.22
-4513.08
-4512.95
-4512.82
-4512.71
-4512.6
-4512.52
-4512.46
-4512.41
-4512.39
-4512.4
-4512.43
-4512.48
-4512.55
-4512.65
-4512.76
-4512.88
-4513.01
-4513.14
-4513.27
-4513.39
-4513.5
-4513.59
-4513.66
-4513.71
-4513.73
-4513.73
-4513.7
-4513.64
-4513.57
-4513.47
-4513.37
-4513.26
-4513.15
-4513.04
-4512.95
-4512.87
-4512.81
-4512.78
-4512.77
-4512.79
-4512.84
-4512.9
-4512.98
-4513.06
-4513.15
-4513.24
-4513.32
-4513.38
-4513.42
-4513.44
-4513.44
-4513.41
-4513.37
-4513.32
-4513.26
-4513.19
-4513.14
-4513.09
-4513.06
-4513.05
-4513.05
-4513.07
-4513.1
-4513.14
-4513.18
-4513.22
-4513.25
-4513.27
-4513.27
-4513.26
-4513.24
-4513.21
-4513.17
-4513.14
-4513.1
-4513.07
-4513.05
-4513.04
-4513.05
-4513.07
-4513.1
-4513.14
-4513.18
-4513.23
-4513.27
-4513.31
-4513.33
-4513.35
-4513.36
-4513.35
-4513.33
-4513.31
-4513.28
-4513.24
-4513.2
-4513.17
-4513.13
-4513.1
-4513.09
-4513.07
-5230.21
-5230.22
-5230.22
-5230.23
-5230.24
-5230.25
-5230.26
-5230.27
-5230.29
-5230.3
-5230.32
-5230.33
-5230.34
-5230.35
-5230.35
-5230.35
-5230.35
-5230.34
-5230.33
-5230.31
-5230.28
-5230.26
-5230.22
-5230.18
-5230.14
-5230.08
-5230.02
-5229.96
-5229.88
-5229.8
-5229.72
-5229.62
-5229.52
-5229.41
-5229.3
-5229.18
-5229.05
-5228.92
-5228.78
-5228.63
-5228.48
-5228.32
-5228.16
-5227.99
-5227.82
-5227.65
-5227.48
-5227.3
-5227.13
-5226.95
-5226.78
-5226.62
-5226.46
-5226.3
-5226.15
-5226.02
-5225.89
-5225.77
-5225.67
-5225.57
-5225.5
-5225.44
-5225.39
-5225.37
-5225.36
-5225.37
-5225.39
-5225.44
-5225.5
-5225.58
-5225.67
-5225.78
-5225.9
-5226.03
-5226.18
-5226.33
-5226.48
-5226.64
-5226.8
-5226.96
-5227.11
-5227.26
-5227.39
-5227.51
-5227.61
-5227.69
-5227.76
-5227.8
-5227.82
-5227.81
-5227.78
-5227.72
-5227.64
-5227.54
-5227.41
-5227.27
-5227.11
-5226.94
-5226.76
-5226.58
-5226.4
-5226.23
-5226.06
-5225.91
-5225.78
-5225.68
-5225.6
-5225.54
-5225.52
-5225.54
-5225.58
-5225.65
-5225.75
-5225.88
-5226.03
-5226.19
-5226.36
-5226.53
-5226.7
-5226.86
-5227
-5227.12
-5227.21
-5227.27
-5227.3
-5227.28
-5227.24
-5227.16
-5227.06
-5226.93
-5226.79
-5226.64
-5226.5
-5226.36
-5226.23
-5226.13
-5226.06
-5226.03
-5226.02
-5226.05
-5226.11
-5226.2
-5226.31
-5226.42
-5226.54
-5226.66
-5226.76
-5226.83
-5226.88
-5226.91
-5226.9
-5226.86
-5226.8
-5226.73
-5226.64
-5226.56
-5226.49
-5226.43
-5226.39
-5226.38
-5226.39
-5226.41
-5226.46
-5226.51
-5226.57
-5226.62
-5226.66
-5226.68
-5226.69
-5226.67
-5226.65
-5226.6
-5226.56
-5226.51
-5226.46
-5226.42
-5226.4
-5226.39
-5226.4
-5226.42
-5226.46
-5226.51
-5226.56
-5226.61
-5226.66
-5226.7
-5226.74
-5226.75
-5226.76
-5226.75
-5226.73
-5226.7
-5226.66
-5226.62
-5226.58
-5226.54
-5226.5
-5226.47
-5226.45
-5226.43
-5862.33
-5862.33
-5862.34
-5862.35
-5862.37
-5862.39
-5862.41
-5862.43
-5862.46
-5862.49
-5862.52
-5862.55
-5862.59
-5862.61
-5862.64
-5862.65
-5862.66
-5862.67
-5862.66
-5862.65
-5862.64
-5862.61
-5862.58
-5862.54
-5862.49
-5862.44
-5862.37
-5862.3
-5862.21
-5862.12
-5862.02
-5861.92
-5861.8
-5861.68
-5861.55
-5861.41
-5861.26
-5861.1
-5860.93
-5860.75
-5860.57
-5860.38
-5860.19
-5859.99
-5859.78
-5859.57
-5859.36
-5859.15
-5858.94
-5858.72
-5858.52
-5858.32
-5858.12
-5857.93
-5857.75
-5857.59
-5857.43
-5857.29
-5857.17
-5857.07
-5856.98
-5856.91
-5856.87
-5856.84
-5856.84
-5856.86
-5856.9
-5856.97
-5857.06
-5857.17
-5857.3
-5857.45
-5857.61
-5857.79
-5857.98
-5858.18
-5858.39
-5858.6
-5858.81
-5859.01
-5859.21
-5859.4
-5859.57
-5859.72
-5859.85
-5859.96
-5860.04
-5860.09
-5860.11
-5860.1
-5860.06
-5859.99
-5859.88
-5859.75
-5859.59
-5859.4
-5859.2
-5858.98
-5858.75
-5858.52
-5858.29
-5858.07
-5857.86
-5857.67
-5857.51
-5857.37
-5857.28
-5857.21
-5857.19
-5857.21
-5857.27
-5857.37
-5857.51
-5857.67
-5857.87
-5858.08
-5858.3
-5858.52
-5858.74
-5858.94
-5859.11
-5859.26
-5859.37
-5859.44
-5859.47
-5859.45
-5859.39
-5859.29
-5859.15
-5858.98
-5858.8
-5858.61
-5858.42
-5858.24
-5858.08
-5857.96
-5857.87
-5857.83
-5857.83
-5857.88
-5857.96
-5858.07
-5858.21
-5858.37
-5858.52
-5858.67
-5858.79
-5858.89
-5858.95
-5858.97
-5858.95
-5858.9
-5858.82
-5858.72
-5858.61
-5858.5
-5858.41
-5858.33
-5858.29
-5858.28
-5858.29
-5858.33
-5858.39
-5858.46
-5858.54
-5858.6
-5858.65
-5858.68
-5858.69
-5858.67
-5858.63
-5858.58
-5858.52
-5858.46
-5858.4
-5858.35
-5858.33
-5858.32
-5858.33
-5858.36
-5858.4
-5858.46
-5858.52
-5858.58
-5858.64
-5858.68
-5858.72
-5858.74
-5858.75
-5858.73
-5858.71
-5858.68
-5858.63
-5858.59
-5858.54
-5858.49
-5858.45
-5858.41
-5858.39
-5858.38
-6422.19
-6422.19
-6422.21
-6422.24
-6422.27
-6422.32
-6422.38
-6422.46
-6422.55
-6422.63
-6422.7
-6422.76
-6422.81
-6422.85
-6422.88
-6422.9
-6422.92
-6422.92
-6422.92
-6422.92
-6422.91
-6422.89
-6422.86
-6422.82
-6422.77
-6422.71
-6422.63
-6422.54
-6422.44
-6422.34
-6422.22
-6422.1
-6421.97
-6421.83
-6421.69
-6421.53
-6421.36
-6421.17
-6420.98
-6420.77
-6420.56
-6420.34
-6420.1
-6419.86
-6419.62
-6419.37
-6419.11
-6418.86
-6418.6
-6418.35
-6418.1
-6417.86
-6417.62
-6417.4
-6417.19
-6416.99
-6416.8
-6416.64
-6416.5
-6416.37
-6416.27
-6416.2
-6416.15
-6416.13
-6416.14
-6416.18
-6416.24
-6416.33
-6416.45
-6416.6
-6416.77
-6416.96
-6417.17
-6417.4
-6417.65
-6417.9
-6418.16
-6418.43
-6418.7
-6418.96
-6419.21
-6419.44
-6419.66
-6419.85
-6420.01
-6420.15
-6420.25
-6420.31
-6420.33
-6420.32
-6420.26
-6420.17
-6420.04
-6419.87
-6419.66
-6419.43
-6419.18
-6418.9
-6418.62
-6418.32
-6418.04
-6417.76
-6417.5
-6417.27
-6417.07
-6416.91
-6416.79
-6416.72
-6416.7
-6416.73
-6416.81
-6416.94
-6417.11
-6417.32
-6417.57
-6417.83
-6418.11
-6418.39
-6418.66
-6418.91
-6419.13
-6419.31
-6419.44
-6419.52
-6419.55
-6419.52
-6419.43
-6419.3
-6419.12
-6418.91
-6418.68
-6418.44
-6418.2
-6417.98
-6417.79
-6417.64
-6417.53
-6417.49
-6417.49
-6417.55
-6417.66
-6417.81
-6417.99
-6418.18
-6418.38
-6418.56
-6418.71
-6418.83
-6418.9
-6418.92
-6418.89
-6418.82
-6418.71
-6418.58
-6418.44
-6418.31
-6418.19
-6418.1
-6418.05
-6418.04
-6418.06
-6418.12
-6418.2
-6418.29
-6418.38
-6418.46
-6418.53
-6418.56
-6418.57
-6418.54
-6418.5
-6418.43
-6418.36
-6418.28
-6418.21
-6418.16
-6418.12
-6418.11
-6418.12
-6418.16
-6418.21
-6418.28
-6418.35
-6418.42
-6418.48
-6418.54
-6418.58
-6418.6
-6418.6
-6418.59
-6418.56
-6418.52
-6418.47
-6418.42
-6418.37
-6418.31
-6418.27
-6418.23
-6418.2
-6418.19
-6918.08
-6918.09
-6918.11
-6918.13
-6918.16
-6918.2
-6918.23
-6918.27
-6918.37
-6918.48
-6918.58
-6918.66
-6918.74
-6918.81
-6918.88
-6918.94
-6919
-6919.05
-6919.08
-6919.11
-6919.12
-6919.12
-6919.12
-6919.1
-6919.07
-6919.03
-6918.98
-6918.89
-6918.81
-6918.71
-6918.6
-6918.47
-6918.32
-6918.16
-6917.99
-6917.81
-6917.61
-6917.4
-6917.17
-6916.93
-6916.68
-6916.41
-6916.14
-6915.86
-6915.57
-6915.27
-6914.97
-6914.67
-6914.36
-6914.07
-6913.77
-6913.48
-6913.2
-6912.94
-6912.69
-6912.45
-6912.24
-6912.05
-6911.88
-6911.74
-6911.63
-6911.54
-6911.5
-6911.48
-6911.5
-6911.55
-6911.64
-6911.76
-6911.91
-6912.09
-6912.31
-6912.55
-6912.82
-6913.1
-6913.41
-6913.73
-6914.05
-6914.38
-6914.71
-6915.03
-6915.33
-6915.62
-6915.89
-6916.12
-6916.32
-6916.48
-6916.6
-6916.68
-6916.7
-6916.68
-6916.61
-6916.49
-6916.33
-6916.11
-6915.86
-6915.58
-6915.26
-6914.93
-6914.58
-6914.22
-6913.87
-6913.54
-6913.23
-6912.94
-6912.7
-6912.51
-6912.37
-6912.29
-6912.27
-6912.32
-6912.42
-6912.58
-6912.8
-6913.06
-6913.36
-6913.69
-6914.03
-6914.37
-6914.69
-6915
-6915.26
-6915.48
-6915.63
-6915.73
-6915.75
-6915.71
-6915.6
-6915.43
-6915.21
-6914.95
-6914.66
-6914.37
-6914.08
-6913.81
-6913.58
-6913.4
-6913.28
-6913.22
-6913.24
-6913.32
-6913.46
-6913.64
-6913.86
-6914.1
-6914.34
-6914.56
-6914.74
-6914.88
-6914.96
-6914.98
-6914.94
-6914.85
-6914.71
-6914.55
-6914.38
-6914.21
-6914.07
-6913.97
-6913.91
-6913.89
-6913.93
-6914
-6914.1
-6914.21
-6914.33
-6914.43
-6914.5
-6914.55
-6914.55
-6914.52
-6914.46
-6914.39
-6914.29
-6914.2
-6914.12
-6914.06
-6914.02
-6914.01
-6914.02
-6914.06
-6914.12
-6914.2
-6914.28
-6914.36
-6914.44
-6914.5
-6914.54
-6914.56
-6914.57
-6914.55
-6914.52
-6914.47
-6914.42
-6914.36
-6914.3
-6914.24
-6914.19
-6914.15
-6914.12
-6914.1
-7357.36
-7357.38
-7357.42
-7357.5
-7357.6
-7357.76
-7357.98
-7358.19
-7358.87
-7359.01
-7359.15
-7359.27
-7359.36
-7359.43
-7359.47
-7359.49
-7359.5
-7359.5
-7359.5
-7359.49
-7359.48
-7359.47
-7359.45
-7359.41
-7359.35
-7359.27
-7359.2
-7358.75
-7358.64
-7358.47
-7358.34
-7358.21
-7358.06
-7357.9
-7357.72
-7357.51
-7357.29
-7357.04
-7356.78
-7356.51
-7356.22
-7355.91
-7355.59
-7355.26
-7354.93
-7354.58
-7354.23
-7353.88
-7353.52
-7353.17
-7352.83
-7352.49
-7352.16
-7351.85
-7351.56
-7351.29
-7351.04
-7350.82
-7350.63
-7350.47
-7350.34
-7350.25
-7350.2
-7350.19
-7350.22
-7350.29
-7350.4
-7350.55
-7350.74
-7350.97
-7351.23
-7351.53
-7351.85
-7352.2
-7352.57
-7352.95
-7353.35
-7353.74
-7354.14
-7354.52
-7354.89
-7355.23
-7355.55
-7355.82
-7356.06
-7356.25
-7356.39
-7356.48
-7356.51
-7356.48
-7356.39
-7356.24
-7356.04
-7355.79
-7355.48
-7355.14
-7354.76
-7354.36
-7353.94
-7353.52
-7353.1
-7352.7
-7352.33
-7352
-7351.72
-7351.49
-7351.33
-7351.24
-7351.22
-7351.28
-7351.41
-7351.61
-7351.88
-7352.19
-7352.55
-7352.94
-7353.35
-7353.76
-7354.15
-7354.5
-7354.82
-7355.07
-7355.25
-7355.36
-7355.38
-7355.32
-7355.19
-7354.98
-7354.71
-7354.39
-7354.05
-7353.69
-7353.35
-7353.03
-7352.76
-7352.54
-7352.41
-7352.35
-7352.37
-7352.47
-7352.65
-7352.87
-7353.14
-7353.43
-7353.71
-7353.97
-7354.19
-7354.35
-7354.44
-7354.46
-7354.4
-7354.29
-7354.12
-7353.92
-7353.71
-7353.51
-7353.35
-7353.22
-7353.15
-7353.15
-7353.19
-7353.28
-7353.41
-7353.55
-7353.68
-7353.8
-7353.89
-7353.94
-7353.94
-7353.91
-7353.84
-7353.74
-7353.63
-7353.53
-7353.43
-7353.36
-7353.31
-7353.3
-7353.32
-7353.37
-7353.44
-7353.52
-7353.62
-7353.71
-7353.79
-7353.86
-7353.9
-7353.93
-7353.93
-7353.91
-7353.88
-7353.82
-7353.76
-7353.7
-7353.63
-7353.57
-7353.51
-7353.47
-7353.44
-7353.42
-7746.33
-7746.36
-7746.44
-7746.57
-7746.76
-7747.02
-7747.38
-7747.97
-7748.92
-7748.4
-7748.23
-7748.17
-7748.14
-7748.15
-7748.18
-7748.21
-7748.25
-7748.29
-7748.33
-7748.36
-7748.4
-7748.43
-7748.46
-7748.51
-7748.57
-7748.69
-7749.06
-7748.67
-7748.53
-7748.36
-7748.19
-7748
-7747.8
-7747.58
-7747.35
-7747.1
-7746.85
-7746.57
-7746.27
-7745.96
-7745.63
-7745.28
-7744.91
-7744.54
-7744.15
-7743.75
-7743.34
-7742.94
-7742.53
-7742.12
-7741.73
-7741.34
-7740.96
-7740.61
-7740.27
-7739.96
-7739.68
-7739.42
-7739.21
-7739.03
-7738.89
-7738.79
-7738.74
-7738.73
-7738.77
-7738.86
-7739
-7739.18
-7739.41
-7739.69
-7740
-7740.35
-7740.74
-7741.15
-7741.59
-7742.04
-7742.5
-7742.97
-7743.43
-7743.88
-7744.31
-7744.71
-7745.08
-7745.4
-7745.68
-7745.9
-7746.06
-7746.16
-7746.19
-7746.15
-7746.04
-7745.87
-7745.62
-7745.32
-7744.96
-7744.56
-7744.11
-7743.64
-7743.15
-7742.65
-7742.17
-7741.7
-7741.27
-7740.89
-7740.56
-7740.3
-7740.12
-7740.02
-7740
-7740.08
-7740.24
-7740.48
-7740.79
-7741.17
-7741.59
-7742.05
-7742.53
-7743
-7743.46
-7743.88
-7744.24
-7744.53
-7744.74
-7744.85
-7744.88
-7744.8
-7744.63
-7744.38
-7744.06
-7743.69
-7743.28
-7742.86
-7742.46
-7742.09
-7741.77
-7741.53
-7741.37
-7741.31
-7741.35
-7741.47
-7741.68
-7741.95
-7742.27
-7742.61
-7742.94
-7743.24
-7743.5
-7743.68
-7743.78
-7743.79
-7743.72
-7743.58
-7743.38
-7743.14
-7742.89
-7742.66
-7742.46
-7742.32
-7742.25
-7742.24
-7742.3
-7742.42
-7742.56
-7742.73
-7742.89
-7743.03
-7743.13
-7743.18
-7743.19
-7743.14
-7743.06
-7742.95
-7742.82
-7742.7
-7742.59
-7742.51
-7742.46
-7742.45
-7742.47
-7742.52
-7742.6
-7742.7
-7742.8
-7742.9
-7742.99
-7743.07
-7743.12
-7743.14
-7743.15
-7743.12
-7743.08
-7743.03
-7742.96
-7742.89
-7742.81
-7742.75
-7742.69
-7742.64
-7742.6
-7742.59
-8090.42
-8090.41
-8090.4
-8090.37
-8090.33
-8090.3
-8090.12
-8090.19
-8093.02
-8092.92
-8093.05
-8093.01
-8092.95
-8092.85
-8092.69
-8092.49
-8092.26
-8091.99
-8091.69
-8091.36
-8091.01
-8090.64
-8090.24
-8089.83
-8089.4
-8088.96
-8088.5
-8088.04
-8087.58
-8087.12
-8086.66
-8086.2
-8085.76
-8085.34
-8084.93
-8084.55
-8084.2
-8083.88
-8083.59
-8083.35
-8083.15
-8082.99
-8082.89
-8082.84
-8082.84
-8082.89
-8083
-8083.16
-8083.38
-8083.65
-8083.97
-8084.34
-8084.75
-8085.2
-8085.68
-8086.18
-8086.71
-8087.24
-8087.78
-8088.31
-8088.83
-8089.33
-8089.79
-8090.21
-8090.58
-8090.9
-8091.15
-8091.33
-8091.44
-8091.47
-8091.42
-8091.29
-8091.08
-8090.8
-8090.45
-8090.03
-8089.56
-8089.05
-8088.5
-8087.94
-8087.37
-8086.81
-8086.27
-8085.78
-8085.34
-8084.97
-8084.68
-8084.47
-8084.37
-8084.36
-8084.45
-8084.64
-8084.92
-8085.29
-8085.72
-8086.22
-8086.75
-8087.29
-8087.84
-8088.36
-8088.84
-8089.25
-8089.58
-8089.81
-8089.94
-8089.96
-8089.87
-8089.67
-8089.37
-8089
-8088.56
-8088.09
-8087.61
-8087.14
-8086.72
-8086.36
-8086.09
-8085.91
-8085.85
-8085.9
-8086.05
-8086.29
-8086.61
-8086.98
-8087.37
-8087.76
-8088.1
-8088.39
-8088.59
-8088.7
-8088.71
-8088.62
-8088.45
-8088.21
-8087.94
-8087.65
-8087.38
-8087.16
-8087
-8086.92
-8086.92
-8086.99
-8087.13
-8087.3
-8087.49
-8087.68
-8087.84
-8087.95
-8088.01
-8088.01
-8087.96
-8087.86
-8087.73
-8087.59
-8087.45
-8087.33
-8087.24
-8087.18
-8087.17
-8087.2
-8087.26
-8087.35
-8087.46
-8087.57
-8087.68
-8087.78
-8087.86
-8087.91
-8087.94
-8087.94
-8087.91
-8087.87
-8087.81
-8087.73
-8087.66
-8087.58
-8087.51
-8087.44
-8087.39
-8087.36
-8087.34
-8395.45
-8395.46
-8395.46
-8395.48
-8395.5
-8395.54
-8395.51
-8395.66
-8399.51
-8399.32
-8399.3
-8399.16
-8399.01
-8398.83
-8398.62
-8398.39
-8398.12
-8397.82
-8397.49
-8397.12
-8396.73
-8396.32
-8395.87
-8395.41
-8394.93
-8394.43
-8393.92
-8393.41
-8392.89
-8392.36
-8391.85
-8391.34
-8390.84
-8390.36
-8389.91
-8389.48
-8389.09
-8388.73
-8388.42
-8388.14
-8387.92
-8387.76
-8387.64
-8387.59
-8387.6
-8387.66
-8387.79
-8387.99
-8388.24
-8388.55
-8388.92
-8389.34
-8389.81
-8390.32
-8390.87
-8391.44
-8392.04
-8392.65
-8393.26
-8393.86
-8394.45
-8395.01
-8395.53
-8396.01
-8396.43
-8396.78
-8397.06
-8397.26
-8397.38
-8397.41
-8397.35
-8397.2
-8396.96
-8396.64
-8396.23
-8395.76
-8395.22
-8394.64
-8394.02
-8393.38
-8392.73
-8392.1
-8391.5
-8390.94
-8390.45
-8390.03
-8389.71
-8389.48
-8389.36
-8389.36
-8389.47
-8389.69
-8390.02
-8390.44
-8390.93
-8391.5
-8392.1
-8392.72
-8393.34
-8393.93
-8394.46
-8394.92
-8395.29
-8395.55
-8395.69
-8395.7
-8395.59
-8395.36
-8395.02
-8394.59
-8394.09
-8393.56
-8393.01
-8392.48
-8392.01
-8391.6
-8391.3
-8391.11
-8391.04
-8391.1
-8391.28
-8391.57
-8391.93
-8392.35
-8392.79
-8393.23
-8393.62
-8393.94
-8394.17
-8394.29
-8394.29
-8394.18
-8393.98
-8393.71
-8393.39
-8393.06
-8392.76
-8392.51
-8392.33
-8392.25
-8392.25
-8392.34
-8392.5
-8392.7
-8392.92
-8393.13
-8393.3
-8393.43
-8393.49
-8393.49
-8393.43
-8393.32
-8393.18
-8393.02
-8392.86
-8392.73
-8392.63
-8392.57
-8392.55
-8392.58
-8392.65
-8392.75
-8392.87
-8392.99
-8393.11
-8393.22
-8393.3
-8393.36
-8393.39
-8393.39
-8393.36
-8393.31
-8393.24
-8393.17
-8393.08
-8393
-8392.92
-8392.85
-8392.8
-8392.76
-8392.74
-8665.67
-8665.67
-8665.68
-8665.69
-8665.69
-8665.72
-8665.69
-8665.76
-8670.51
-8670.38
-8670.37
-8670.25
-8670.11
-8669.93
-8669.7
-8669.44
-8669.14
-8668.81
-8668.44
-8668.04
-8667.61
-8667.14
-8666.65
-8666.14
-8665.6
-8665.05
-8664.49
-8663.91
-8663.33
-8662.75
-8662.18
-8661.62
-8661.07
-8660.54
-8660.03
-8659.56
-8659.12
-8658.73
-8658.38
-8658.09
-8657.84
-8657.66
-8657.54
-8657.49
-8657.5
-8657.58
-8657.73
-8657.95
-8658.24
-8658.6
-8659.01
-8659.49
-8660.02
-8660.59
-8661.2
-8661.85
-8662.52
-8663.2
-8663.88
-8664.56
-8665.21
-8665.84
-8666.42
-8666.95
-8667.41
-8667.81
-8668.12
-8668.34
-8668.47
-8668.49
-8668.42
-8668.25
-8667.98
-8667.61
-8667.15
-8666.62
-8666.02
-8665.36
-8664.67
-8663.95
-8663.23
-8662.53
-8661.86
-8661.24
-8660.69
-8660.23
-8659.88
-8659.63
-8659.5
-8659.51
-8659.64
-8659.89
-8660.26
-8660.73
-8661.29
-8661.92
-8662.6
-8663.29
-8663.98
-8664.64
-8665.23
-8665.74
-8666.15
-8666.43
-8666.58
-8666.59
-8666.45
-8666.19
-8665.8
-8665.32
-8664.76
-8664.16
-8663.55
-8662.96
-8662.43
-8661.98
-8661.65
-8661.44
-8661.38
-8661.45
-8661.66
-8661.98
-8662.39
-8662.86
-8663.36
-8663.85
-8664.28
-8664.64
-8664.88
-8665.01
-8665.01
-8664.88
-8664.65
-8664.34
-8663.98
-8663.61
-8663.27
-8663
-8662.81
-8662.71
-8662.72
-8662.83
-8663.01
-8663.24
-8663.48
-8663.72
-8663.91
-8664.05
-8664.12
-8664.12
-8664.04
-8663.92
-8663.76
-8663.58
-8663.41
-8663.26
-8663.15
-8663.09
-8663.08
-8663.11
-8663.19
-8663.3
-8663.42
-8663.56
-8663.69
-8663.8
-8663.89
-8663.95
-8663.98
-8663.98
-8663.95
-8663.89
-8663.82
-8663.74
-8663.65
-8663.56
-8663.48
-8663.41
-8663.35
-8663.31
-8663.29
-8905.04
-8905.04
-8905.05
-8905.05
-8905.06
-8905.07
-8905.05
-8905.09
-8910.79
-8910.67
-8910.63
-8910.51
-8910.35
-8910.15
-8909.9
-8909.62
-8909.29
-8908.92
-8908.52
-8908.08
-8907.6
-8907.09
-8906.55
-8905.99
-8905.4
-8904.79
-8904.17
-8903.54
-8902.91
-8902.27
-8901.64
-8901.02
-8900.42
-8899.84
-8899.28
-8898.77
-8898.29
-8897.86
-8897.48
-8897.16
-8896.9
-8896.7
-8896.57
-8896.52
-8896.54
-8896.63
-8896.81
-8897.05
-8897.38
-8897.77
-8898.24
-8898.76
-8899.35
-8899.99
-8900.67
-8901.38
-8902.12
-8902.87
-8903.63
-8904.37
-8905.1
-8905.78
-8906.42
-8907
-8907.52
-8907.94
-8908.28
-8908.52
-8908.66
-8908.69
-8908.6
-8908.41
-8908.1
-8907.69
-8907.18
-8906.59
-8905.93
-8905.2
-8904.44
-8903.65
-8902.85
-8902.08
-8901.34
-8900.66
-8900.06
-8899.56
-8899.17
-8898.9
-8898.77
-8898.78
-8898.93
-8899.21
-8899.62
-8900.15
-8900.77
-8901.47
-8902.22
-8902.98
-8903.74
-8904.46
-8905.12
-8905.68
-8906.12
-8906.42
-8906.58
-8906.58
-8906.43
-8906.13
-8905.7
-8905.16
-8904.54
-8903.88
-8903.2
-8902.55
-8901.97
-8901.48
-8901.12
-8900.9
-8900.83
-8900.92
-8901.15
-8901.51
-8901.97
-8902.5
-8903.05
-8903.58
-8904.06
-8904.45
-8904.72
-8904.85
-8904.84
-8904.69
-8904.43
-8904.09
-8903.69
-8903.27
-8902.9
-8902.6
-8902.4
-8902.3
-8902.32
-8902.44
-8902.64
-8902.89
-8903.17
-8903.42
-8903.64
-8903.79
-8903.86
-8903.85
-8903.77
-8903.64
-8903.46
-8903.27
-8903.08
-8902.92
-8902.8
-8902.73
-8902.72
-8902.76
-8902.84
-8902.96
-8903.1
-8903.24
-8903.38
-8903.5
-8903.6
-8903.66
-8903.69
-8903.68
-8903.65
-8903.59
-8903.51
-8903.43
-8903.33
-8903.24
-8903.15
-8903.08
-8903.02
-8902.98
-8902.96
-9117.09
-9117.09
-9117.1
-9117.1
-9117.1
-9117.11
-9117.1
-9117.12
-9123.71
-9123.6
-9123.54
-9123.4
-9123.23
-9123.01
-9122.74
-9122.43
-9122.08
-9121.68
-9121.24
-9120.76
-9120.24
-9119.68
-9119.1
-9118.48
-9117.84
-9117.18
-9116.51
-9115.82
-9115.13
-9114.44
-9113.75
-9113.08
-9112.42
-9111.79
-9111.19
-9110.63
-9110.11
-9109.65
-9109.24
-9108.89
-9108.61
-9108.4
-9108.27
-9108.21
-9108.24
-9108.35
-9108.54
-9108.82
-9109.17
-9109.61
-9110.12
-9110.7
-9111.34
-9112.04
-9112.79
-9113.57
-9114.38
-9115.2
-9116.02
-9116.84
-9117.62
-9118.37
-9119.07
-9119.7
-9120.25
-9120.72
-9121.08
-9121.34
-9121.49
-9121.51
-9121.41
-9121.19
-9120.86
-9120.41
-9119.85
-9119.2
-9118.47
-9117.68
-9116.84
-9115.98
-9115.12
-9114.27
-9113.47
-9112.73
-9112.08
-9111.54
-9111.12
-9110.83
-9110.69
-9110.71
-9110.87
-9111.19
-9111.65
-9112.22
-9112.91
-9113.67
-9114.48
-9115.32
-9116.15
-9116.93
-9117.64
-9118.25
-9118.72
-9119.05
-9119.22
-9119.21
-9119.04
-9118.7
-9118.23
-9117.64
-9116.96
-9116.23
-9115.49
-9114.79
-9114.16
-9113.63
-9113.24
-9113
-9112.93
-9113.04
-9113.3
-9113.7
-9114.21
-9114.78
-9115.38
-9115.96
-9116.48
-9116.9
-9117.19
-9117.33
-9117.31
-9117.15
-9116.86
-9116.48
-9116.05
-9115.58
-9115.18
-9114.85
-9114.63
-9114.53
-9114.56
-9114.69
-9114.92
-9115.2
-9115.5
-9115.78
-9116.01
-9116.17
-9116.25
-9116.24
-9116.15
-9116
-9115.8
-9115.59
-9115.39
-9115.22
-9115.1
-9115.02
-9115.01
-9115.06
-9115.15
-9115.27
-9115.42
-9115.57
-9115.72
-9115.84
-9115.94
-9116.01
-9116.04
-9116.03
-9116
-9115.93
-9115.85
-9115.76
-9115.66
-9115.56
-9115.48
-9115.4
-9115.34
-9115.3
-9115.27
-9304.94
-9304.94
-9304.94
-9304.94
-9304.94
-9304.95
-9304.94
-9304.96
-9312.38
-9312.27
-9312.19
-9312.05
-9311.86
-9311.63
-9311.34
-9311
-9310.62
-9310.19
-9309.71
-9309.19
-9308.63
-9308.04
-9307.4
-9306.74
-9306.05
-9305.34
-9304.61
-9303.87
-9303.12
-9302.37
-9301.64
-9300.91
-9300.2
-9299.53
-9298.88
-9298.28
-9297.72
-9297.22
-9296.79
-9296.41
-9296.12
-9295.89
-9295.75
-9295.7
-9295.73
-9295.86
-9296.07
-9296.37
-9296.76
-9297.24
-9297.79
-9298.42
-9299.12
-9299.88
-9300.68
-9301.53
-9302.4
-9303.29
-9304.18
-9305.06
-9305.91
-9306.72
-9307.47
-9308.15
-9308.74
-9309.24
-9309.63
-9309.91
-9310.06
-9310.08
-9309.97
-9309.73
-9309.36
-9308.87
-9308.27
-9307.56
-9306.77
-9305.91
-9305.01
-9304.08
-9303.14
-9302.23
-9301.37
-9300.58
-9299.88
-9299.29
-9298.84
-9298.54
-9298.4
-9298.42
-9298.6
-9298.95
-9299.44
-9300.07
-9300.81
-9301.64
-9302.52
-9303.43
-9304.32
-9305.16
-9305.93
-9306.58
-9307.09
-9307.44
-9307.61
-9307.59
-9307.4
-9307.03
-9306.52
-9305.87
-9305.14
-9304.35
-9303.55
-9302.8
-9302.11
-9301.55
-9301.13
-9300.88
-9300.81
-9300.93
-9301.22
-9301.66
-9302.21
-9302.83
-9303.48
-9304.11
-9304.67
-9305.12
-9305.43
-9305.57
-9305.55
-9305.36
-9305.04
-9304.62
-9304.16
-9303.65
-9303.22
-9302.87
-9302.63
-9302.53
-9302.56
-9302.71
-9302.96
-9303.27
-9303.59
-9303.89
-9304.14
-9304.32
-9304.4
-9304.38
-9304.28
-9304.12
-9303.91
-9303.69
-9303.47
-9303.29
-9303.16
-9303.08
-9303.07
-9303.12
-9303.21
-9303.35
-9303.5
-9303.67
-9303.82
-9303.95
-9304.05
-9304.12
-9304.15
-9304.15
-9304.11
-9304.04
-9303.95
-9303.86
-9303.75
-9303.65
-9303.56
-9303.48
-9303.42
-9303.37
-9303.35
-9471.34
-9471.34
-9471.34
-9471.34
-9471.34
-9471.35
-9471.34
-9471.35
-9479.56
-9479.44
-9479.36
-9479.21
-9479.01
-9478.75
-9478.45
-9478.09