/*--------------------------------*- C++ -*----------------------------------*\
  =========                 |
  \\      /  F ield         | OpenFOAM: The Open Source CFD Toolbox
   \\    /   O peration     | Website:  https://openfoam.org
    \\  /    A nd           | Version:  12
     \\/     M anipulation  |
\*---------------------------------------------------------------------------*/
FoamFile
{
    format      ascii;
    class       volScalarField;
    location    "9.24";
    object      p_rgh;
}
// * * * * * * * * * * * * * * * * * * * * * * * * * * * * * * * * * * * * * //

dimensions      [1 -1 -2 0 0 0 0];

internalField   nonuniform List<scalar> 
3829
(
-3.01416
-3.01318
-3.01116
-3.00809
-3.00392
-2.9986
-2.99209
-2.98435
-2.97532
-2.96495
-2.9532
-2.93999
-2.92529
-2.90902
-2.89112
-2.87155
-2.85023
-2.8271
-2.80211
-2.7752
-2.7463
-2.71538
-2.68238
-2.64725
-2.60996
-2.57047
-2.52876
-2.4848
-2.43859
-2.39013
-2.33942
-2.28649
-2.23137
-2.17411
-2.11476
-2.05342
-1.98983
-1.92429
-1.85695
-1.78798
-1.71757
-1.64589
-1.5731
-1.4994
-1.42497
-1.35007
-1.27492
-1.19979
-1.12496
-1.05071
-0.977362
-0.905215
-0.834599
-0.765845
-0.699287
-0.635258
-0.5741
-0.516139
-0.461693
-0.411079
-0.364599
-0.322351
-0.284571
-0.251564
-0.223737
-0.20048
-0.182093
-0.168617
-0.161213
-0.158599
-0.16051
-0.166883
-0.177658
-0.192197
-0.210092
-0.230884
-0.254066
-0.279055
-0.305224
-0.331921
-0.358466
-0.384158
-0.408291
-0.430174
-0.449142
-0.464579
-0.475922
-0.482689
-0.484492
-0.478937
-0.467451
-0.450147
-0.427211
-0.398906
-0.365575
-0.327677
-0.28581
-0.240724
-0.193288
-0.14447
-0.0953487
-0.0473547
-0.00103933
0.0421441
0.0810923
0.114773
0.14228
0.162861
0.175972
0.181309
0.177911
0.166517
0.147637
0.121893
0.0901536
0.053535
0.0133736
-0.0288376
-0.0714439
-0.112816
-0.151313
-0.185373
-0.213612
-0.234886
-0.248369
-0.253621
-0.249967
-0.2381
-0.218767
-0.192968
-0.1621
-0.127861
-0.0920884
-0.0568801
-0.024123
0.00432825
0.0268699
0.0422735
0.0497697
0.0491129
0.0402505
0.024199
0.0021427
-0.0242864
-0.053149
-0.0823643
-0.109856
-0.133705
-0.152373
-0.164783
-0.170412
-0.168572
-0.160657
-0.147727
-0.131104
-0.112793
-0.0946934
-0.0784812
-0.0656511
-0.0571983
-0.0543248
-0.0561946
-0.0621165
-0.0709121
-0.0812266
-0.0912471
-0.0994458
-0.10452
-0.105518
-0.102051
-0.0941017
-0.0826365
-0.0688428
-0.0543002
-0.0407166
-0.029889
-0.0233222
-0.0220803
-0.0267821
-0.0374589
-0.0535806
-0.0740873
-0.0974804
-0.122005
-0.146304
-0.167325
-0.184174
-0.19559
-0.200242
-0.198355
-0.190059
-0.175641
-0.156607
-0.13437
-0.110575
-0.0869517
-0.0652595
-0.0471694
-0.0341213
-0.0272387
-3.09818
-3.09727
-3.09541
-3.09256
-3.08868
-3.08373
-3.07765
-3.07039
-3.06188
-3.05205
-3.04084
-3.02816
-3.01395
-2.99812
-2.98059
-2.96128
-2.94011
-2.91699
-2.89184
-2.86458
-2.83513
-2.80343
-2.7694
-2.73298
-2.69413
-2.65278
-2.60891
-2.56247
-2.51344
-2.4618
-2.40756
-2.35071
-2.29126
-2.22923
-2.16466
-2.09753
-2.02868
-1.95781
-1.88495
-1.81018
-1.73363
-1.65546
-1.57589
-1.49517
-1.41353
-1.33127
-1.24866
-1.16603
-1.0837
-1.00203
-0.921369
-0.842105
-0.764623
-0.689315
-0.61658
-0.546808
-0.480396
-0.417713
-0.35911
-0.304929
-0.259954
-0.215903
-0.177357
-0.144583
-0.117768
-0.0970089
-0.0823893
-0.0739182
-0.0706429
-0.0732785
-0.0815631
-0.0951998
-0.113807
-0.136983
-0.164368
-0.194931
-0.228109
-0.263223
-0.299493
-0.336115
-0.372257
-0.407059
-0.439656
-0.469206
-0.494897
-0.515986
-0.53179
-0.541723
-0.54533
-0.54006
-0.52757
-0.507948
-0.481353
-0.448054
-0.408468
-0.363206
-0.313053
-0.258966
-0.20204
-0.143497
-0.0846773
-0.0269757
0.0282198
0.0794864
0.125471
0.164917
0.196698
0.21992
0.233888
0.238163
0.232418
0.217035
0.192528
0.1597
0.119711
0.0739827
0.0241687
-0.0278968
-0.0800715
-0.130417
-0.176925
-0.217703
-0.251074
-0.275699
-0.290566
-0.29507
-0.289064
-0.27308
-0.247971
-0.2151
-0.176267
-0.133604
-0.0893905
-0.0462621
-0.00649113
0.0276679
0.0543042
0.0719618
0.0797432
0.0773471
0.0652359
0.0443783
0.0163858
-0.0166372
-0.0522539
-0.087871
-0.120935
-0.149125
-0.170574
-0.183995
-0.188764
-0.185205
-0.174062
-0.156889
-0.135547
-0.112508
-0.0901866
-0.0706509
-0.0557067
-0.0465362
-0.0439985
-0.0474316
-0.0559141
-0.0678633
-0.0815214
-0.0946018
-0.105272
-0.111923
-0.113451
-0.109417
-0.100103
-0.0864593
-0.0699992
-0.0526149
-0.0363252
-0.023317
-0.0152284
-0.013299
-0.0181892
-0.029897
-0.0477181
-0.0704312
-0.0963111
-0.123417
-0.149737
-0.172726
-0.190922
-0.202926
-0.207923
-0.205655
-0.196387
-0.180651
-0.159913
-0.135835
-0.110178
-0.0847886
-0.061548
-0.0422086
-0.0282859
-0.0209496
-3.25937
-3.25861
-3.25708
-3.25472
-3.25147
-3.24728
-3.24208
-3.23578
-3.22832
-3.22003
-3.20982
-3.19812
-3.18484
-3.16985
-3.15305
-3.1343
-3.11349
-3.09048
-3.06515
-3.03739
-3.00707
-2.97409
-2.93833
-2.8997
-2.85812
-2.8135
-2.7658
-2.71495
-2.66094
-2.60373
-2.54335
-2.47979
-2.4131
-2.34337
-2.2707
-2.19536
-2.11633
-2.03425
-1.94951
-1.86243
-1.77321
-1.68202
-1.58911
-1.49474
-1.39921
-1.30285
-1.20605
-1.10919
-1.0127
-0.917039
-0.822672
-0.730093
-0.639814
-0.552359
-0.468277
-0.388098
-0.312339
-0.241656
-0.176449
-0.117127
-0.0642476
-0.0180078
0.0212374
0.0531842
0.0775643
0.0942215
0.103062
0.103742
0.0972442
0.0833271
0.0622349
0.0343871
0.000333297
-0.0393006
-0.0838105
-0.133404
-0.185185
-0.239091
-0.294096
-0.349105
-0.40299
-0.454591
-0.502746
-0.546326
-0.584266
-0.615571
-0.63934
-0.654805
-0.661356
-0.656387
-0.641648
-0.617224
-0.583287
-0.540187
-0.488524
-0.429192
-0.363303
-0.292191
-0.217368
-0.140509
-0.0634426
0.0119438
0.0837367
0.15005
0.209069
0.259111
0.298731
0.326735
0.342188
0.344441
0.333805
0.310418
0.274939
0.228567
0.172945
0.110035
0.0421262
-0.0282835
-0.0982582
-0.16521
-0.22645
-0.279494
-0.322155
-0.352664
-0.369716
-0.37272
-0.361829
-0.337593
-0.301299
-0.254954
-0.20108
-0.142629
-0.0826503
-0.024827
0.0278288
0.0723618
0.106315
0.127831
0.135821
0.129959
0.111265
0.0810635
0.0417426
-0.00372744
-0.0520006
-0.0995417
-0.14287
-0.178969
-0.205413
-0.220617
-0.223928
-0.216263
-0.19855
-0.173138
-0.142762
-0.110842
-0.0806724
-0.0550365
-0.0362936
-0.0259363
-0.0243954
-0.0310953
-0.044579
-0.0625561
-0.0825375
-0.101315
-0.116518
-0.126008
-0.12842
-0.123287
-0.111249
-0.0935009
-0.0721148
-0.0495525
-0.0282733
-0.0113531
-0.00063249
0.00243639
-0.0028567
-0.0164576
-0.0373786
-0.0640337
-0.0943178
-0.125897
-0.156089
-0.182416
-0.202961
-0.21617
-0.221457
-0.218383
-0.207387
-0.189213
-0.165528
-0.138271
-0.109402
-0.0809841
-0.0550952
-0.0336318
-0.0182214
-0.0101151
-3.40856
-3.40834
-3.4079
-3.40721
-3.40626
-3.40507
-3.4046
-3.40275
-3.39965
-3.39526
-3.38948
-3.38219
-3.37324
-3.36242
-3.34956
-3.33447
-3.31695
-3.2967
-3.27356
-3.24742
-3.21809
-3.18542
-3.14924
-3.10944
-3.06586
-3.01842
-2.96699
-2.9115
-2.85188
-2.78808
-2.72006
-2.64777
-2.57116
-2.49019
-2.40469
-2.31636
-2.22489
-2.13
-2.03158
-1.92967
-1.82452
-1.71645
-1.60584
-1.49306
-1.37854
-1.26275
-1.14619
-1.02941
-0.912993
-0.797547
-0.683726
-0.57221
-0.46371
-0.358928
-0.258587
-0.163822
-0.0745746
0.00810532
0.0835195
0.151072
0.210147
0.260206
0.300817
0.331576
0.35222
0.362495
0.362441
0.352038
0.331565
0.301264
0.261576
0.213097
0.156577
0.0928699
0.0229695
-0.0519767
-0.131199
-0.21224
-0.294219
-0.375616
-0.454878
-0.53042
-0.600666
-0.664096
-0.719249
-0.764793
-0.799519
-0.822421
-0.832738
-0.827538
-0.808963
-0.776982
-0.731789
-0.673906
-0.604253
-0.524124
-0.435097
-0.33906
-0.238136
-0.134661
-0.031135
0.0697876
0.165486
0.253355
0.330965
0.396026
0.446617
0.481113
0.498317
0.497495
0.479193
0.44358
0.391698
0.325328
0.246807
0.158878
0.0647247
-0.032228
-0.127795
-0.218482
-0.300653
-0.370971
-0.426556
-0.465042
-0.484857
-0.48508
-0.466326
-0.429435
-0.376432
-0.310219
-0.234392
-0.153104
-0.0700708
0.00867075
0.0795849
0.138693
0.182668
0.209212
0.217022
0.205575
0.176618
0.132406
0.0763725
0.0127167
-0.0538738
-0.118629
-0.176535
-0.223678
-0.256911
-0.274257
-0.275082
-0.260648
-0.232854
-0.195133
-0.151397
-0.106584
-0.0651411
-0.0309101
-0.00699997
0.00471594
0.00432206
-0.00757654
-0.028629
-0.0555436
-0.0847744
-0.111762
-0.133336
-0.146707
-0.150194
-0.143347
-0.127156
-0.103453
-0.0750806
-0.045339
-0.0168074
0.00537992
0.0195924
0.0240838
0.0181181
0.00178338
-0.0234521
-0.0555095
-0.0917815
-0.129437
-0.164935
-0.195633
-0.219249
-0.234087
-0.239523
-0.235228
-0.221844
-0.200356
-0.172763
-0.141311
-0.108234
-0.0758795
-0.0465622
-0.0223644
-0.00504263
0.00405291
-3.64744
-3.64775
-3.64831
-3.64903
-3.6497
-3.65008
-3.6488
-3.64782
-3.64632
-3.64488
-3.64301
-3.64023
-3.63612
-3.63026
-3.62225
-3.61173
-3.59835
-3.5818
-3.56169
-3.53775
-3.50977
-3.47749
-3.44068
-3.39915
-3.35273
-3.30128
-3.24471
-3.18295
-3.116
-3.04382
-2.96644
-2.88385
-2.79611
-2.70339
-2.60618
-2.50138
-2.39139
-2.27678
-2.15768
-2.03427
-1.90681
-1.77561
-1.64107
-1.50365
-1.36387
-1.22231
-1.07964
-0.93659
-0.793932
-0.652506
-0.513178
-0.376862
-0.24454
-0.117228
0.00424722
0.118988
0.225953
0.324188
0.412778
0.490885
0.557725
0.612571
0.65479
0.683901
0.699573
0.701558
0.689618
0.664462
0.625839
0.574243
0.51033
0.434935
0.349112
0.254061
0.151158
0.0420044
-0.0717198
-0.188026
-0.304959
-0.420461
-0.532425
-0.638703
-0.737154
-0.825737
-0.902541
-0.965831
-1.01402
-1.04578
-1.06022
-1.05403
-1.02977
-0.987192
-0.926571
-0.848706
-0.754942
-0.64709
-0.527356
-0.398368
-0.263057
-0.124633
0.0134159
0.147566
0.274252
0.38999
0.49144
0.575654
0.640001
0.682367
0.701294
0.695927
0.666836
0.614519
0.540634
0.447697
0.33896
0.21823
0.0898046
-0.042056
-0.170745
-0.291942
-0.400862
-0.493061
-0.564771
-0.612996
-0.635756
-0.631349
-0.601322
-0.5471
-0.471639
-0.378979
-0.274127
-0.162774
-0.0503282
0.0556105
0.149975
0.227427
0.283763
0.316091
0.323399
0.303191
0.26005
0.196975
0.118694
0.0310661
-0.0593336
-0.146714
-0.223135
-0.284106
-0.325472
-0.344804
-0.341591
-0.31755
-0.275926
-0.221618
-0.160193
-0.0985039
-0.0424839
0.00261083
0.0327799
0.0458241
0.0421268
0.0228472
-0.00848813
-0.0472958
-0.0888766
-0.126427
-0.156019
-0.174098
-0.178645
-0.169329
-0.147526
-0.116
-0.0786802
-0.040348
-0.00172734
0.0264221
0.0447696
0.0508474
0.0439652
0.0239796
-0.00665901
-0.0453714
-0.0889149
-0.134104
-0.175965
-0.211785
-0.238953
-0.255633
-0.261062
-0.255164
-0.238816
-0.213335
-0.181081
-0.144668
-0.106659
-0.0697329
-0.0364551
-0.00911031
0.0104031
0.0206286
-3.74036
-3.74239
-3.74658
-3.753
-3.76166
-3.77246
-3.78522
-3.79957
-3.8154
-3.83057
-3.84421
-3.85601
-3.86559
-3.87246
-3.87613
-3.87617
-3.87225
-3.86407
-3.85133
-3.8337
-3.81089
-3.78263
-3.74859
-3.70848
-3.66203
-3.60896
-3.54914
-3.48242
-3.40901
-3.32885
-3.24191
-3.14807
-3.04713
-2.93842
-2.82358
-2.70347
-2.57694
-2.44364
-2.30378
-2.15767
-2.00571
-1.84837
-1.6862
-1.51987
-1.35009
-1.17771
-1.00363
-0.828806
-0.654272
-0.481143
-0.310624
-0.143992
0.0161068
0.171447
0.319188
0.458003
0.58661
0.703782
0.808322
0.899122
0.975182
1.03559
1.07957
1.10648
1.11586
1.10746
1.08106
1.03701
0.975639
0.897582
0.803693
0.695089
0.573197
0.439637
0.296255
0.145197
-0.0112385
-0.170546
-0.330062
-0.487037
-0.638687
-0.78218
-0.914675
-1.03345
-1.13593
-1.21984
-1.28322
-1.32438
-1.34215
-1.33466
-1.30304
-1.24683
-1.16652
-1.06336
-0.939249
-0.796681
-0.638666
-0.468755
-0.290895
-0.109364
0.0711838
0.246108
0.410623
0.560147
0.690404
0.797465
0.877999
0.929466
0.949997
0.938011
0.894631
0.820961
0.719363
0.593245
0.447015
0.285982
0.116364
-0.0606999
-0.228773
-0.386691
-0.527746
-0.645999
-0.736545
-0.795784
-0.821442
-0.810022
-0.76514
-0.688839
-0.585097
-0.459427
-0.318577
-0.170023
-0.0218475
0.117234
0.239826
0.339036
0.409372
0.44699
0.449674
0.420736
0.36015
0.273399
0.167271
0.0497876
-0.0703527
-0.18415
-0.283231
-0.3606
-0.411107
-0.431923
-0.422786
-0.386096
-0.326754
-0.251474
-0.168016
-0.0855682
-0.0118678
0.0461084
0.083341
0.0973386
0.0886986
0.0596804
0.0153057
-0.0381758
-0.0955496
-0.145679
-0.184688
-0.208124
-0.213567
-0.200852
-0.171964
-0.130743
-0.0823315
-0.0323445
0.0146203
0.0510425
0.0742961
0.0819483
0.073055
0.04932
0.012369
-0.0340642
-0.0858094
-0.140036
-0.188883
-0.230344
-0.261372
-0.279938
-0.285198
-0.277346
-0.257561
-0.227522
-0.190044
-0.14812
-0.104681
-0.0627621
-0.0251886
0.00555606
0.0274268
0.0388656
-3.89699
-3.90048
-3.90774
-3.91872
-3.93336
-3.95132
-3.97253
-3.99667
-4.02435
-4.05533
-4.08797
-4.12083
-4.15232
-4.18031
-4.203
-4.21942
-4.22943
-4.23308
-4.23021
-4.22063
-4.20411
-4.18021
-4.14848
-4.10849
-4.06
-4.00275
-3.93668
-3.86177
-3.77898
-3.68817
-3.58935
-3.48254
-3.36799
-3.24499
-3.11269
-2.97145
-2.82144
-2.66285
-2.49595
-2.32108
-2.13869
-1.94934
-1.7537
-1.55261
-1.34697
-1.13783
-0.926333
-0.713754
-0.50142
-0.290795
-0.0833547
0.116835
0.313006
0.50113
0.679505
0.846495
1.00044
1.13978
1.26299
1.36866
1.45547
1.52226
1.56804
1.59201
1.59361
1.5725
1.52892
1.46275
1.37456
1.26524
1.13595
0.988168
0.823782
0.644899
0.453935
0.253692
0.0471654
-0.162467
-0.371749
-0.5771
-0.774935
-0.961568
-1.13339
-1.28697
-1.41897
-1.52628
-1.60616
-1.65626
-1.67422
-1.66709
-1.62671
-1.55368
-1.44924
-1.31536
-1.15467
-0.970504
-0.766837
-0.548315
-0.320066
-0.0876362
0.142869
0.365459
0.574096
0.762866
0.926305
1.05943
1.15819
1.21972
1.24285
1.22038
1.1591
1.05961
0.924763
0.758991
0.568028
0.358646
0.138435
-0.0852618
-0.301402
-0.502623
-0.680908
-0.828906
-0.940395
-1.01099
-1.03844
-1.01817
-0.955262
-0.852305
-0.714634
-0.549612
-0.366068
-0.173722
0.0164851
0.194079
0.349237
0.47327
0.559275
0.602753
0.601831
0.558509
0.475717
0.360156
0.220701
0.0678272
-0.087111
-0.232224
-0.357175
-0.452993
-0.513323
-0.534816
-0.517605
-0.465151
-0.384158
-0.283685
-0.17388
-0.0670381
0.0271137
0.0996634
0.144467
0.15873
0.143371
0.102167
0.0420027
-0.0283647
-0.105548
-0.16961
-0.219227
-0.248462
-0.254463
-0.237361
-0.199965
-0.147356
-0.0861318
-0.0233552
0.0340517
0.0791583
0.10767
0.116909
0.106235
0.0773157
0.0330374
-0.0220814
-0.0823159
-0.147514
-0.203336
-0.250805
-0.285864
-0.306261
-0.311167
-0.301048
-0.277441
-0.2424
-0.199308
-0.1515
-0.102325
-0.0551688
-0.0131198
0.0211482
0.0454522
0.0581398
-3.91956
-3.92762
-3.94461
-3.97109
-4.00797
-4.05582
-4.11748
-4.19307
-4.28336
-4.36415
-4.43618
-4.49672
-4.54568
-4.58419
-4.61384
-4.63566
-4.65004
-4.65724
-4.65772
-4.65178
-4.63969
-4.62076
-4.59332
-4.55561
-4.50624
-4.44335
-4.36622
-4.27161
-4.17472
-4.06921
-3.95395
-3.83389
-3.70531
-3.56837
-3.42052
-3.26118
-3.09013
-2.90741
-2.71332
-2.50839
-2.29332
-2.06895
-1.83626
-1.59635
-1.35046
-1.09994
-0.846281
-0.591054
-0.336027
-0.0829968
0.164501
0.407478
0.642613
0.867778
1.08084
1.27971
1.46231
1.62666
1.77086
1.89315
1.9919
2.06566
2.11322
2.13362
2.12617
2.09055
2.0267
1.93493
1.81592
1.67081
1.50107
1.30861
1.09582
0.865403
0.620406
0.364374
0.101087
-0.165438
-0.430877
-0.69075
-0.940508
-1.17562
-1.39158
-1.58399
-1.74886
-1.88244
-1.98122
-2.04242
-2.06374
-2.0517
-1.99823
-1.904
-1.77067
-1.60071
-1.39748
-1.16525
-0.909108
-0.634929
-0.349209
-0.058873
0.228302
0.504885
0.763212
0.995988
1.19634
1.35814
1.47617
1.54611
1.56435
1.53589
1.45537
1.32631
1.15314
0.941776
0.699644
0.435379
0.158608
-0.120291
-0.389703
-0.639344
-0.859075
-1.03983
-1.17392
-1.25533
-1.27958
-1.25219
-1.16864
-1.03465
-0.857705
-0.6474
-0.415045
-0.172914
0.0649601
0.285807
0.47725
0.628602
0.731458
0.780489
0.773877
0.713506
0.604456
0.455331
0.277511
0.0842448
-0.110435
-0.290824
-0.444495
-0.560418
-0.630891
-0.652177
-0.624574
-0.553226
-0.4468
-0.317138
-0.17709
-0.0425552
0.0744257
0.16286
0.215391
0.229026
0.205165
0.149328
0.0705158
-0.020036
-0.117461
-0.197793
-0.259197
-0.294542
-0.300671
-0.278182
-0.230903
-0.165384
-0.0899101
-0.0131426
0.0560427
0.110292
0.144219
0.15488
0.141838
0.107177
0.054759
-0.0100122
-0.0809862
-0.154081
-0.218807
-0.272676
-0.311825
-0.333942
-0.338295
-0.325628
-0.297894
-0.257568
-0.208599
-0.154694
-0.0996307
-0.047141
-0.00056305
0.0372513
0.0639937
0.0779297
-3.8831
-3.89033
-3.90598
-3.9295
-3.96008
-3.99444
-4.03152
-4.06997
-4.17099
-4.27897
-4.37524
-4.46065
-4.53908
-4.61239
-4.68078
-4.74351
-4.79917
-4.84607
-4.88252
-4.90782
-4.92175
-4.92409
-4.91561
-4.89686
-4.8685
-4.82973
-4.77604
-4.68635
-4.60683
-4.50927
-4.39698
-4.26586
-4.12128
-3.96415
-3.79337
-3.6084
-3.40916
-3.19587
-2.96888
-2.72879
-2.47636
-2.21256
-1.9385
-1.65548
-1.36495
-1.06858
-0.768172
-0.465702
-0.1633
0.135765
0.430874
0.718951
0.99739
1.26362
1.51506
1.74917
1.96337
2.15526
2.32252
2.463
2.57472
2.65593
2.70519
2.72133
2.70355
2.65151
2.56513
2.44485
2.29158
2.10673
1.89216
1.65025
1.38397
1.09666
0.792088
0.474625
0.148922
-0.180086
-0.507121
-0.826638
-1.13316
-1.42115
-1.68507
-1.91973
-2.12015
-2.28198
-2.40127
-2.47471
-2.50028
-2.48009
-2.41019
-2.29108
-2.12464
-1.91385
-1.66286
-1.37695
-1.06239
-0.726471
-0.377164
-0.0227614
0.326799
0.662564
0.975284
1.25603
1.4965
1.68924
1.82804
1.9081
1.92635
1.8839
1.77957
1.61656
1.40026
1.13802
0.839066
0.514124
0.175059
-0.165052
-0.492691
-0.795033
-1.05974
-1.27577
-1.43401
-1.52765
-1.55274
-1.51075
-1.40204
-1.23255
-1.01144
-0.750585
-0.464071
-0.167033
0.123252
0.391319
0.622061
0.802609
0.922974
0.976962
0.962683
0.882648
0.743735
0.556815
0.336164
0.0982648
-0.140432
-0.359322
-0.544019
-0.681259
-0.761875
-0.781499
-0.741693
-0.648564
-0.513333
-0.350818
-0.177206
-0.012143
0.129573
0.234803
0.294984
0.306939
0.272858
0.200124
0.100073
-0.0139088
-0.130994
-0.229917
-0.30401
-0.345561
-0.351314
-0.322473
-0.264081
-0.184344
-0.0934223
-0.00171295
0.0801286
0.143848
0.183213
0.195047
0.179163
0.138216
0.0770365
0.00204822
-0.0797048
-0.161784
-0.235207
-0.295527
-0.338706
-0.362391
-0.365987
-0.350545
-0.318461
-0.272691
-0.217709
-0.157627
-0.0966553
-0.0388523
0.0122079
0.0535131
0.0826459
0.097803
-3.8247
-3.84406
-3.88703
-3.95837
-4.06743
-4.2208
-4.44237
-4.65713
-5.33095
-5.47617
-5.61416
-5.73808
-5.8282
-5.89028
-5.93012
-5.95289
-5.96336
-5.96557
-5.96245
-5.95603
-5.94774
-5.9343
-5.91204
-5.87482
-5.81472
-5.73229
-5.66657
-5.2085
-5.09914
-4.9376
-4.80489
-4.66903
-4.52448
-4.36193
-4.1796
-3.9754
-3.751
-3.5082
-3.2481
-2.97177
-2.68027
-2.37476
-2.05659
-1.72733
-1.38878
-1.04297
-0.692139
-0.338714
0.0145535
0.365101
0.710223
1.04688
1.372
1.68249
1.97525
2.24722
2.49534
2.71672
2.9086
3.06843
3.19384
3.2828
3.33358
3.34483
3.31566
3.24557
3.13462
2.98337
2.79295
2.5651
2.30211
2.00685
1.68293
1.33439
0.965783
0.582374
0.189747
-0.206174
-0.599062
-0.982296
-1.34932
-1.69352
-2.00836
-2.28763
-2.52555
-2.71688
-2.85713
-2.94264
-2.97081
-2.94178
-2.85352
-2.7068
-2.50388
-2.24838
-1.94532
-1.6011
-1.22329
-0.820699
-0.403031
0.0205994
0.436876
0.835968
1.20672
1.53847
1.82139
2.04667
2.20709
2.29719
2.31367
2.25608
2.12515
1.92475
1.66133
1.3438
0.983394
0.593058
0.187007
-0.218824
-0.608662
-0.96704
-1.27932
-1.53243
-1.71571
-1.82144
-1.84533
-1.78754
-1.6507
-1.44207
-1.17273
-0.85704
-0.511935
-0.155923
0.190539
0.50886
0.781138
0.992161
1.1303
1.18849
1.1648
1.06264
0.89073
0.662467
0.395324
0.109673
-0.177052
-0.436584
-0.654011
-0.813371
-0.903978
-0.921115
-0.866829
-0.749268
-0.582374
-0.384135
-0.173821
0.0238392
0.191663
0.314245
0.381794
0.391002
0.345113
0.253505
0.130183
-0.00874528
-0.147523
-0.265713
-0.352909
-0.400562
-0.405367
-0.369303
-0.298774
-0.203785
-0.096488
0.0108339
0.105852
0.179187
0.223897
0.236619
0.217477
0.16981
0.0994383
0.0138985
-0.0787068
-0.170304
-0.252271
-0.318941
-0.366005
-0.391075
-0.393729
-0.37534
-0.33877
-0.287499
-0.22648
-0.160257
-0.0934631
-0.0304608
0.0249593
0.0696414
0.101078
0.117408
-3.602
-3.63997
-3.72058
-3.84879
-4.03166
-4.29326
-4.65382
-5.24766
-6.1953
-5.67582
-5.50364
-5.44299
-5.41988
-5.42571
-5.45119
-5.48798
-5.52919
-5.56993
-5.60658
-5.64049
-5.6724
-5.70268
-5.73656
-5.7822
-5.84848
-5.96806
-6.33447
-5.95087
-5.80956
-5.63996
-5.46425
-5.27571
-5.07164
-4.85443
-4.62364
-4.38059
-4.12203
-3.84584
-3.55083
-3.2368
-2.90447
-2.5551
-2.19036
-1.8122
-1.42278
-1.02457
-0.620271
-0.212787
0.194709
0.59924
0.997274
1.38531
1.75974
2.11694
2.45324
2.76507
3.04883
3.30114
3.51877
3.69874
3.83834
3.93516
3.98724
3.99301
3.95148
3.86213
3.72505
3.54093
3.31116
3.03785
2.72371
2.37218
1.98754
1.57457
1.13865
0.685993
0.22317
-0.242867
-0.704646
-1.15443
-1.58456
-1.98727
-2.35497
-2.68042
-2.95691
-3.17842
-3.3397
-3.43662
-3.46625
-3.42746
-3.3193
-3.14285
-2.90085
-2.59766
-2.23925
-1.83321
-1.38848
-0.915445
-0.425444
0.0698547
0.556482
1.02194
1.45328
1.83811
2.16498
2.42374
2.60604
2.70571
2.71902
2.64506
2.48548
2.245
1.9314
1.55528
1.12994
0.670638
0.194192
-0.28057
-0.735397
-1.15211
-1.51365
-1.80489
-2.01355
-2.13084
-2.15203
-2.07698
-1.90977
-1.65918
-1.33849
-0.96474
-0.557956
-0.139599
0.265568
0.636205
0.951451
1.19365
1.34952
1.4111
1.37645
1.25006
1.04262
0.770247
0.453732
0.117209
-0.218648
-0.520988
-0.772359
-0.95425
-1.05446
-1.06795
-0.997539
-0.853429
-0.65255
-0.416407
-0.167001
0.0647323
0.259513
0.399664
0.474138
0.479598
0.420507
0.308415
0.160268
-0.00477482
-0.16671
-0.304581
-0.404988
-0.458484
-0.461755
-0.417739
-0.334264
-0.223288
-0.0990259
0.0243556
0.132742
0.215664
0.265528
0.278848
0.256107
0.2014
0.121589
0.0253528
-0.0781151
-0.179384
-0.269702
-0.342526
-0.39327
-0.419534
-0.421084
-0.399639
-0.358531
-0.301778
-0.234801
-0.162569
-0.090122
-0.0221045
0.0374964
0.0853998
0.119025
0.136467
-2.92612
-2.91976
-2.90608
-2.8818
-2.83366
-2.80751
-2.63317
-2.70128
-5.52557
-5.43319
-5.56049
-5.51513
-5.46174
-5.35441
-5.19944
-5.00005
-4.76453
-4.49554
-4.19651
-3.87009
-3.51889
-3.14492
-2.75027
-2.33716
-1.90805
-1.46562
-1.01282
-0.552839
-0.0891781
0.374799
0.835183
1.28803
1.72926
2.1547
2.56017
2.94143
3.29435
3.6148
3.89889
4.14291
4.34347
4.49744
4.60211
4.65521
4.65502
4.60045
4.49092
4.32658
4.10826
3.83764
3.5172
3.15012
2.74041
2.29305
1.81359
1.30828
0.784303
0.249274
-0.288796
-0.821296
-1.33931
-1.834
-2.2965
-2.71807
-3.09043
-3.40594
-3.65771
-3.83981
-3.9475
-3.97751
-3.92812
-3.79885
-3.59111
-3.3082
-2.95527
-2.53926
-2.06906
-1.55507
-1.00924
-0.444669
0.124703
0.683541
1.21707
1.71044
2.14944
2.521
2.81354
3.01762
3.12627
3.13535
3.04387
2.85408
2.57167
2.20578
1.7688
1.27617
0.745721
0.196728
-0.348926
-0.870369
-1.34668
-1.75832
-2.08804
-2.32197
-2.45018
-2.46748
-2.37388
-2.17458
-1.88003
-1.50582
-1.07183
-0.601351
-0.118683
0.34677
0.770866
1.12974
1.40332
1.57657
1.64074
1.59383
1.44156
1.19673
0.87831
0.510471
0.120665
-0.264105
-0.61086
-0.896799
-1.10124
-1.21054
-1.21936
-1.13143
-0.959175
-0.722712
-0.447116
-0.156955
0.109678
0.331761
0.489394
0.570261
0.571061
0.497624
0.363857
0.189778
-0.00213155
-0.188085
-0.345779
-0.459269
-0.518248
-0.519564
-0.466888
-0.369894
-0.242497
-0.100985
0.0386399
0.160332
0.252657
0.307419
0.321051
0.29445
0.232508
0.143161
0.0362409
-0.0779264
-0.188808
-0.287212
-0.365928
-0.420114
-0.447381
-0.447703
-0.423145
-0.377522
-0.315377
-0.242601
-0.164566
-0.0866978
-0.0139002
0.0496628
0.100604
0.136286
0.15477
-2.53879
-2.54068
-2.54636
-2.55929
-2.57906
-2.62789
-2.5958
-2.74048
-6.59891
-6.40156
-6.38223
-6.24047
-6.09015
-5.91169
-5.70744
-5.4723
-5.20457
-4.9038
-4.57141
-4.20852
-3.81709
-3.39925
-2.95745
-2.49432
-2.01275
-1.5159
-1.00718
-0.490234
0.0310234
0.552489
1.0698
1.57846
2.07382
2.55113
3.00561
3.43248
3.82704
4.1846
4.50078
4.77139
4.99259
5.16089
5.27323
5.3271
5.32056
5.2525
5.12222
4.92994
4.6767
4.36443
3.99599
3.57506
3.10623
2.5952
2.04831
1.4727
0.876537
0.268479
-0.342371
-0.946241
-1.53302
-2.09272
-2.61529
-3.09088
-3.51018
-3.86453
-4.14626
-4.34867
-4.46648
-4.49602
-4.43527
-4.284
-4.04396
-3.71904
-3.31519
-2.84041
-2.30486
-1.72039
-1.10067
-0.460567
0.183906
0.815681
1.41787
1.97367
2.46706
2.88331
3.20943
3.43485
3.55184
3.55587
3.44597
3.22496
2.89946
2.4801
1.98108
1.42009
0.817324
0.19495
-0.422354
-1.01094
-1.54713
-2.00891
-2.37692
-2.6356
-2.77402
-2.78651
-2.67335
-2.44079
-2.10107
-1.67215
-1.17686
-0.641608
-0.0938353
0.432466
0.910273
1.31277
1.61743
1.80753
1.87348
1.81329
1.63404
1.35063
0.985025
0.564932
0.121266
-0.313366
-0.704573
-1.02505
-1.25169
-1.36947
-1.37277
-1.26631
-1.06478
-0.791777
-0.476457
-0.143561
0.157696
0.406979
0.581765
0.668428
0.663795
0.575159
0.418929
0.21827
-0.000837327
-0.211146
-0.388522
-0.514779
-0.578806
-0.57764
-0.515936
-0.405094
-0.261111
-0.102376
0.0534609
0.188175
0.289598
0.348952
0.362637
0.331993
0.262747
0.163917
0.046478
-0.0781509
-0.198392
-0.304549
-0.388844
-0.446216
-0.474302
-0.473307
-0.445636
-0.395576
-0.328198
-0.249842
-0.166265
-0.0832514
-0.00594351
0.0613383
0.115118
0.152715
0.172166
-2.19148
-2.19331
-2.19737
-2.20475
-2.21281
-2.23633
-2.20902
-2.27762
-7.03199
-6.89931
-6.89059
-6.77391
-6.63093
-6.44521
-6.22227
-5.96134
-5.66417
-5.33045
-4.96189
-4.55965
-4.12577
-3.66245
-3.17231
-2.65826
-2.12354
-1.57168
-1.00656
-0.432199
0.146874
0.726056
1.30047
1.86507
2.41463
2.94383
3.44732
3.91972
4.35579
4.75032
5.0984
5.39536
5.63695
5.81932
5.93909
5.99347
5.98026
5.89851
5.74723
5.5268
5.23844
4.88436
4.46783
3.99299
3.46501
2.89035
2.27612
1.63035
0.962221
0.281418
-0.401867
-1.07669
-1.73176
-2.35594
-2.93801
-3.46702
-3.9326
-4.32514
-4.63613
-4.85815
-4.98538
-5.01377
-4.9411
-4.76731
-4.4945
-4.12717
-3.67207
-3.13827
-2.53721
-1.88222
-1.18866
-0.473183
0.246191
0.950545
1.62095
2.23868
2.78588
3.24619
3.60522
3.8513
3.97597
3.97432
3.84545
3.59266
3.22369
2.75057
2.18929
1.55986
0.884951
0.189303
-0.499279
-1.15453
-1.75001
-2.26125
-2.66682
-2.94951
-3.09736
-3.10429
-2.9709
-2.70453
-2.31917
-1.83525
-1.27851
-0.678832
-0.0655986
0.520968
1.05194
1.49745
1.83249
2.0387
2.10577
2.03151
1.82465
1.5022
1.08909
0.616532
0.119317
-0.365271
-0.800429
-1.15491
-1.40315
-1.52874
-1.52583
-1.40017
-1.16878
-0.858816
-0.5039
-0.127566
0.207714
0.48376
0.675186
0.767021
0.756331
0.651954
0.472863
0.245436
-0.000849944
-0.235389
-0.432046
-0.570595
-0.639204
-0.635141
-0.564169
-0.439397
-0.278885
-0.103203
0.0685424
0.215859
0.325983
0.389599
0.403106
0.368315
0.291808
0.183665
0.0559772
-0.078714
-0.207974
-0.321494
-0.411026
-0.47132
-0.500059
-0.497691
-0.466947
-0.412585
-0.340184
-0.256511
-0.167689
-0.0798368
0.00169079
0.0724343
0.128845
0.16821
0.188553
-1.87865
-1.88003
-1.88272
-1.88753
-1.89217
-1.90454
-1.89105
-1.92698
-7.6259
-7.5069
-7.46674
-7.34336
-7.18419
-6.98206
-6.73874
-6.45328
-6.1273
-5.76096
-5.35619
-4.91442
-4.43784
-3.92883
-3.39026
-2.82531
-2.2376
-1.63104
-1.00989
-0.378522
0.257771
0.894059
1.52495
2.14482
2.7479
3.32828
3.88006
4.3973
4.87421
5.30503
5.68438
6.00711
6.26859
6.46459
6.59145
6.64616
6.62649
6.53066
6.35838
6.10998
5.78681
5.39137
4.9273
4.39921
3.81289
3.17548
2.49491
1.78008
1.04116
0.288851
-0.465567
-1.21001
-1.93202
-2.61932
-3.25959
-3.84075
-4.35141
-4.78105
-5.1203
-5.36107
-5.49701
-5.52371
-5.43878
-5.24229
-4.93676
-4.52725
-4.02134
-3.42913
-2.76332
-2.03875
-1.2724
-0.482727
0.310305
1.08593
1.82323
2.50157
3.10134
3.60457
3.99548
4.26135
4.39301
4.38521
4.23711
3.95257
3.54038
3.01391
2.39112
1.69408
0.948107
0.180466
-0.57815
-1.29873
-1.95219
-2.51163
-2.95361
-3.2593
-3.4158
-3.4166
-3.2627
-2.96246
-2.53171
-1.99327
-1.37587
-0.71269
-0.0349418
0.610638
1.19359
1.68098
2.04538
2.26685
2.3345
2.24564
2.01099
1.64962
1.18943
0.66498
0.115119
-0.418702
-0.89681
-1.28437
-1.55337
-1.68609
-1.67647
-1.53128
-1.26988
-0.92306
-0.530262
-0.108618
0.258693
0.56081
0.768213
0.864602
0.847388
0.727018
0.525015
0.271038
-0.0020113
-0.260327
-0.475645
-0.625898
-0.698613
-0.691348
-0.611012
-0.472414
-0.295672
-0.103498
0.0836382
0.243023
0.361391
0.428925
0.442061
0.403089
0.31946
0.202274
0.0647467
-0.0795874
-0.217418
-0.337868
-0.432278
-0.495233
-0.524479
-0.52071
-0.486974
-0.428477
-0.351312
-0.262612
-0.168869
-0.0764993
0.00894736
0.082891
0.141724
0.182711
0.203871
-1.60103
-1.6021
-1.60383
-1.60715
-1.60955
-1.61734
-1.60956
-1.63055
-8.21647
-8.1041
-8.04628
-7.91335
-7.73891
-7.51847
-7.25328
-6.94223
-6.58708
-6.18807
-5.7473
-5.26632
-4.74754
-4.19347
-3.6072
-2.99218
-2.35241
-1.69214
-1.01604
-0.329051
0.363232
1.05532
1.74134
2.41516
3.07042
3.70068
4.29946
4.8603
5.37688
5.84293
6.25256
6.6002
6.88081
7.08985
7.22339
7.27819
7.25176
7.14225
6.94936
6.67354
6.31632
5.88047
5.36999
4.78998
4.14678
3.44825
2.70311
1.9211
1.11336
0.291602
-0.531858
-1.34382
-2.13068
-2.87909
-3.57563
-4.20715
-4.76126
-5.22653
-5.59283
-5.85135
-5.99532
-6.01991
-5.92256
-5.70356
-5.36578
-4.91488
-4.35923
-3.70995
-2.98098
-2.18856
-1.35135
-0.489526
0.375086
1.21987
2.02201
2.75899
3.40955
3.95412
4.37559
4.66023
4.79821
4.78398
4.61669
4.30086
3.84619
3.26757
2.58471
1.82183
1.00654
0.169037
-0.657555
-1.44143
-2.15093
-2.75682
-3.23373
-3.56127
-3.72563
-3.7199
-3.54553
-3.21186
-2.73656
-2.14475
-1.46814
-0.743397
-0.00259795
0.7
1.33322
1.86098
2.25344
2.48921
2.55705
2.45326
2.19109
1.79149
1.28514
0.710131
0.109021
-0.472655
-0.992278
-1.41166
-1.70044
-1.83961
-1.82294
-1.65824
-1.36711
-0.98387
-0.554659
-0.0880633
0.3096
0.636994
0.859596
0.959954
0.935901
0.799527
0.574919
0.294907
-0.00413879
-0.285503
-0.518694
-0.679985
-0.756342
-0.745662
-0.656002
-0.503875
-0.311377
-0.103398
0.0986258
0.26937
0.395482
0.466589
0.479196
0.436079
0.345539
0.219682
0.0727571
-0.0806907
-0.226608
-0.353534
-0.452456
-0.517821
-0.547445
-0.542278
-0.505663
-0.443218
-0.361584
-0.268163
-0.169834
-0.0732756
0.0157883
0.0926732
0.153724
0.196192
0.218096
-1.35369
-1.3546
-1.35573
-1.35824
-1.35922
-1.3648
-1.35942
-1.37267
-8.79179
-8.68182
-8.61167
-8.46944
-8.28063
-8.04246
-7.75591
-7.41984
-7.03613
-6.60519
-6.12929
-5.61007
-5.05016
-4.45232
-3.8197
-3.1561
-2.46583
-1.75356
-1.0241
-0.283347
0.462987
1.20895
1.9482
2.67406
3.37965
4.05797
4.702
5.30477
5.85948
6.35936
6.79802
7.16945
7.46827
7.68965
7.82943
7.88414
7.85103
7.72812
7.51519
7.21282
6.82267
6.34776
5.79249
5.16239
4.46436
3.70692
2.89958
2.05292
1.179
0.290481
-0.599291
-1.47606
-2.32511
-3.13207
-3.88247
-4.56214
-5.15773
-5.65692
-6.04888
-6.32406
-6.47538
-6.49759
-6.38784
-6.14678