# Probe 0 (0 0 0)
# Time            0                
0                 0                
0.005             140.3198512      
0.01              276.6310958      
0.015             383.0586461      
0.02              466.2665403      
0.025             531.4738514      
0.03              582.7074526      
0.035             623.076223       
0.04              654.9822034      
0.045             680.2830823      
0.05              700.417192       
0.055             716.4996486      
0.06              729.3962944      
0.065             739.7805756      
0.07              748.1773029      
0.075             754.9963323      
0.08              760.5585015      
0.085             765.1156141      
0.09              768.8658495      
0.095             771.9656573      
0.1               774.5389464      
0.105             776.6841937      
0.11              778.4799502      
0.115             779.9891143      
0.12              781.2622509      
0.125             782.3401778      
0.13              783.2559834      
0.135             784.0366044      
0.14              784.704064       
0.145             785.2764456      
0.15              785.7686599      
0.155             786.1930533      
0.16              786.5598895      
0.165             786.877735       
0.17              787.1537657      
0.175             787.3940147      
0.18              787.6035711      
0.185             787.7867414      
0.19              787.9471806      
0.195             788.0879996      
0.2               788.2118527      
0.205             788.32101        
0.21              788.4174177      
0.215             788.5027469      
0.22              788.5784361      
0.225             788.6457245      
0.23              788.7056826      
0.235             788.7592354      
0.24              788.8071839      
0.245             788.8502222      
0.25              788.8889529      
0.255             788.9238992      
0.26              788.9555162      
0.265             788.9842         
0.27              789.0102959      
0.275             789.0341046      
0.28              789.0558889      
0.285             789.0758781      
0.29              789.0942731      
0.295             789.1112493      
0.3               789.1269605      
0.305             789.1415416      
0.31              789.155111       
0.315             789.1677724      
0.32              789.1796174      
0.325             789.1907264      
0.33              789.2011703      
0.335             789.2110116      
0.34              789.2203057      
0.345             789.2291015      
0.35              789.2374422      
0.355             789.2453665      
0.36              789.2529082      
0.365             789.2600981      
0.37              789.266963       
0.375             789.2735275      
0.38              789.279813       
0.385             789.285839       
0.39              789.2916231      
0.395             789.2971811      
0.4               789.3025271      
0.405             789.3076741      
0.41              789.3126338      
0.415             789.3174168      
0.42              789.3220328      
0.425             789.3264906      
0.43              789.3307986      
0.435             789.334964       
0.44              789.3389937      
0.445             789.3428943      
0.45              789.3466714      
0.455             789.3503305      
0.46              789.3538769      
0.465             789.3573151      
0.47              789.3606497      
0.475             789.3638849      
0.48              789.3670244      
0.485             789.370072       
0.49              789.3730311      
0.495             789.375905       
0.5               789.3786968      
0.505             789.3814094      
0.51              789.3840457      
0.515             789.3866081      
0.52              789.3890993      
0.525             789.3915217      
0.53              789.3938776      
0.535             789.396169       
0.54              789.3983982      
0.545             789.4005671      
0.55              789.4026775      
0.555             789.4047316      
0.56              789.4067308      
0.565             789.4086771      
0.57              789.4105719      
0.575             789.4124168      
0.58              789.4142134      
0.585             789.4159631      
0.59              789.4176674      
0.595             789.4193275      
0.6               789.4209448      
0.605             789.4225205      
0.61              789.4240559      
0.615             789.425552       
0.62              789.4270102      
0.625             789.4284313      
0.63              789.4298165      
0.635             789.4311668      
0.64              789.4324832      
0.645             789.4337668      
0.65              789.4350183      
0.655             789.4362386      
0.66              789.4374286      
0.665             789.4385893      
0.67              789.4397214      
0.675             789.4408256      
0.68              789.4419026      
0.685             789.4429534      
0.69              789.4439786      
0.695             789.4449789      
0.7               789.445955       
0.705             789.4469075      
0.71              789.4478369      
0.715             789.4487441      
0.72              789.4496294      
0.725             789.4504936      
0.73              789.4513371      
0.735             789.4521607      
0.74              789.4529646      
0.745             789.4537495      
0.75              789.4545158      
0.755             789.455264       
0.76              789.4559947      
0.765             789.4567082      
0.77              789.457405       
0.775             789.4580854      
0.78              789.4587501      
0.785             789.4593992      
0.79              789.4600332      
0.795             789.4606525      
0.8               789.4612575      
0.805             789.4618486      
0.81              789.462426       
0.815             789.4629902      
0.82              789.4635414      
0.825             789.46408        
0.83              789.4646063      
0.835             789.4651206      
0.84              789.4656232      
0.845             789.4661144      
0.85              789.4665944      
0.855             789.4670636      
0.86              789.4675221      
0.865             789.4679703      
0.87              789.4684084      
0.875             789.4688367      
0.88              789.4692553      
0.885             789.4696645      
0.89              789.4700645      
0.895             789.4704556      
0.9               789.470838       
0.905             789.471212       
0.91              789.4715775      
0.915             789.4719349      
0.92              789.4722844      
0.925             789.4726262      
0.93              789.4729604      
0.935             789.4732872      
0.94              789.4736069      
0.945             789.4739195      
0.95              789.4742252      
0.955             789.4745241      
0.96              789.4748165      
0.965             789.4751025      
0.97              789.4753822      
0.975             789.4756558      
0.98              789.4759235      
0.985             789.4761854      
0.99              789.4764415      
0.995             789.476692       
1                 789.4769371      
