# Probe 0 (0 0 0)
# Time            0                
0                 0                
0.005             -9.295936245e-06 
0.01              -1.778247627e-05 
0.015             -2.437555122e-05 
0.02              -2.95058166e-05  
0.025             -3.350550247e-05 
0.03              -3.663044868e-05 
0.035             -3.907775603e-05 
0.04              -4.099936124e-05 
0.045             -4.251247154e-05 
0.05              -4.370758272e-05 
0.055             -4.465463911e-05 
0.06              -4.540776555e-05 
0.065             -4.600890279e-05 
0.07              -4.649060059e-05 
0.075             -4.687816439e-05 
0.08              -4.71913057e-05  
0.085             -4.744541152e-05 
0.09              -4.76525213e-05  
0.095             -4.782207945e-05 
0.1               -4.796151527e-05 
0.105             -4.807669043e-05 
0.11              -4.817224462e-05 
0.115             -4.825186283e-05 
0.12              -4.831848233e-05 
0.125             -4.837445327e-05 
0.13              -4.842166338e-05 
0.135             -4.846163513e-05 
0.14              -4.849560148e-05 
0.145             -4.852456517e-05 
0.15              -4.854934514e-05 
0.155             -4.857061306e-05 
0.16              -4.858892213e-05 
0.165             -4.860472988e-05 
0.17              -4.86184162e-05  
0.175             -4.863029777e-05 
0.18              -4.864063956e-05 
0.185             -4.864966408e-05 
0.19              -4.86575588e-05  
0.195             -4.86644822e-05  
0.2               -4.867056864e-05 
0.205             -4.867593236e-05 
0.21              -4.868067076e-05 
0.215             -4.868486706e-05 
0.22              -4.868859254e-05 
0.225             -4.869190839e-05 
0.23              -4.869486723e-05 
0.235             -4.86975144e-05  
0.24              -4.869988904e-05 
0.245             -4.870202495e-05 
0.25              -4.870395142e-05 
0.255             -4.870569384e-05 
0.26              -4.870727422e-05 
0.265             -4.870871173e-05 
0.27              -4.871002301e-05 
0.275             -4.871122259e-05 
0.28              -4.871232312e-05 
0.285             -4.871333565e-05 
0.29              -4.871426984e-05 
0.295             -4.871513415e-05 
0.3               -4.871593597e-05 
0.305             -4.871668182e-05 
0.31              -4.871737739e-05 
0.315             -4.87180277e-05  
0.32              -4.871863716e-05 
0.325             -4.871920966e-05 
0.33              -4.871974865e-05 
0.335             -4.872025715e-05 
0.34              -4.872073786e-05 
0.345             -4.872119316e-05 
0.35              -4.872162517e-05 
0.355             -4.872203578e-05 
0.36              -4.872242666e-05 
0.365             -4.872279932e-05 
0.37              -4.87231551e-05  
0.375             -4.872349521e-05 
0.38              -4.872382073e-05 
0.385             -4.872413264e-05 
0.39              -4.87244318e-05  
0.395             -4.872471904e-05 
0.4               -4.872499506e-05 
0.405             -4.872526053e-05 
0.41              -4.872551605e-05 
0.415             -4.872576216e-05 
0.42              -4.872599937e-05 
0.425             -4.872622814e-05 
0.43              -4.87264489e-05  
0.435             -4.872666203e-05 
0.44              -4.872686791e-05 
0.445             -4.872706687e-05 
0.45              -4.872725921e-05 
0.455             -4.872744524e-05 
0.46              -4.872762524e-05 
0.465             -4.872779944e-05 
0.47              -4.87279681e-05  
0.475             -4.872813145e-05 
0.48              -4.872828967e-05 
0.485             -4.8728443e-05   
0.49              -4.87285916e-05  
0.495             -4.872873567e-05 
0.5               -4.872887536e-05 
0.505             -4.872901085e-05 
0.51              -4.872914228e-05 
0.515             -4.87292698e-05  
0.52              -4.872939355e-05 
0.525             -4.872951367e-05 
0.53              -4.872963027e-05 
0.535             -4.872974348e-05 
0.54              -4.872985342e-05 
0.545             -4.872996019e-05 
0.55              -4.87300639e-05  
0.555             -4.873016466e-05 
0.56              -4.873026255e-05 
0.565             -4.873035769e-05 
0.57              -4.873045015e-05 
0.575             -4.873054002e-05 
0.58              -4.873062738e-05 
0.585             -4.873071232e-05 
0.59              -4.873079491e-05 
0.595             -4.873087523e-05 
0.6               -4.873095334e-05 
0.605             -4.873102932e-05 
0.61              -4.873110323e-05 
0.615             -4.873117514e-05 
0.62              -4.873124511e-05 
0.625             -4.873131319e-05 
0.63              -4.873137945e-05 
0.635             -4.873144393e-05 
0.64              -4.87315067e-05  
0.645             -4.873156781e-05 
0.65              -4.87316273e-05  
0.655             -4.873168523e-05 
0.66              -4.873174163e-05 
0.665             -4.873179656e-05 
0.67              -4.873185005e-05 
0.675             -4.873190215e-05 
0.68              -4.87319529e-05  
0.685             -4.873200234e-05 
0.69              -4.873205051e-05 
0.695             -4.873209745e-05 
0.7               -4.873214319e-05 
0.705             -4.873218776e-05 
0.71              -4.87322312e-05  
0.715             -4.873227353e-05 
0.72              -4.87323148e-05  
0.725             -4.873235503e-05 
0.73              -4.873239425e-05 
0.735             -4.873243249e-05 
0.74              -4.873246978e-05 
0.745             -4.873250613e-05 
0.75              -4.873254159e-05 
0.755             -4.873257616e-05 
0.76              -4.873260989e-05 
0.765             -4.873264278e-05 
0.77              -4.873267487e-05 
0.775             -4.873270617e-05 
0.78              -4.873273671e-05 
0.785             -4.873276651e-05 
0.79              -4.873279557e-05 
0.795             -4.873282394e-05 
0.8               -4.873285162e-05 
0.805             -4.873287863e-05 
0.81              -4.8732905e-05   
0.815             -4.873293073e-05 
0.82              -4.873295585e-05 
0.825             -4.873298037e-05 
0.83              -4.87330043e-05  
0.835             -4.873302768e-05 
0.84              -4.873305049e-05 
0.845             -4.873307277e-05 
0.85              -4.873309452e-05 
0.855             -4.873311576e-05 
0.86              -4.87331365e-05  
0.865             -4.873315676e-05 
0.87              -4.873317654e-05 
0.875             -4.873319587e-05 
0.88              -4.873321474e-05 
0.885             -4.873323317e-05 
0.89              -4.873325118e-05 
0.895             -4.873326877e-05 
0.9               -4.873328595e-05 
0.905             -4.873330275e-05 
0.91              -4.873331915e-05 
0.915             -4.873333518e-05 
0.92              -4.873335084e-05 
0.925             -4.873336615e-05 
0.93              -4.87333811e-05  
0.935             -4.873339571e-05 
0.94              -4.873341e-05    
0.945             -4.873342396e-05 
0.95              -4.87334376e-05  
0.955             -4.873345094e-05 
0.96              -4.873346396e-05 
0.965             -4.873347671e-05 
0.97              -4.873348916e-05 
0.975             -4.873350133e-05 
0.98              -4.873351324e-05 
0.985             -4.873352487e-05 
0.99              -4.873353625e-05 
0.995             -4.873354737e-05 
1                 -4.873355824e-05 
