# Probe 0 (0 0 0)
# Time            0                
0                 100000           
0.005             103841.8339      
0.01              107183.7076      
0.015             110087.4712      
0.02              112609.154       
0.025             114797.5844      
0.03              116695.3351      
0.035             118339.5377      
0.04              119762.5878      
0.045             120992.7551      
0.05              122054.7133      
0.055             122969.9998      
0.06              123757.417       
0.065             124433.38        
0.07              125012.221       
0.075             125506.4538      
0.08              125927.0044      
0.085             126283.4128      
0.09              126584.0085      
0.095             126836.0636      
0.1               127045.9271      
0.105             127219.1416      
0.11              127360.5452      
0.115             127474.3608      
0.12              127564.2736      
0.125             127633.4998      
0.13              127684.8451      
0.135             127720.7571      
0.14              127743.3706      
0.145             127754.5469      
0.15              127755.9086      
0.155             127748.8698      
0.16              127734.6625      
0.165             127714.3595      
0.17              127688.8948      
0.175             127659.0811      
0.18              127625.6249      
0.185             127589.1405      
0.19              127550.1613      
0.195             127509.1502      
0.2               127466.5086      
0.205             127422.5843      
0.21              127377.6779      
0.215             127332.0495      
0.22              127285.9233      
0.225             127239.4924      
0.23              127192.9229      
0.235             127146.3572      
0.24              127099.9171      
0.245             127053.7063      
0.25              127007.8133      
0.255             126962.3125      
0.26              126917.2668      
0.265             126872.7286      
0.27              126828.7416      
0.275             126785.3415      
0.28              126742.5575      
0.285             126700.4127      
0.29              126658.9253      
0.295             126618.1093      
0.3               126577.9745      
0.305             126538.5279      
0.31              126499.7733      
0.315             126461.7124      
0.32              126424.3446      
0.325             126387.6678      
0.33              126351.6782      
0.335             126316.3707      
0.34              126281.7393      
0.345             126247.777       
0.35              126214.476       
0.355             126181.8279      
0.36              126149.8239      
0.365             126118.4546      
0.37              126087.7105      
0.375             126057.5816      
0.38              126028.0578      
0.385             125999.1289      
0.39              125970.7847      
0.395             125943.0148      
0.4               125915.8088      
0.405             125889.1563      
0.41              125863.047       
0.415             125837.4708      
0.42              125812.4173      
0.425             125787.8766      
0.43              125763.8387      
0.435             125740.2936      
0.44              125717.2318      
0.445             125694.6436      
0.45              125672.5195      
0.455             125650.8504      
0.46              125629.6269      
0.465             125608.8402      
0.47              125588.4814      
0.475             125568.5418      
0.48              125549.0129      
0.485             125529.8863      
0.49              125511.1538      
0.495             125492.8073      
0.5               125474.839       
0.505             125457.2409      
0.51              125440.0057      
0.515             125423.1257      
0.52              125406.5937      
0.525             125390.4026      
0.53              125374.5452      
0.535             125359.0147      
0.54              125343.8045      
0.545             125328.9078      
0.55              125314.3182      
0.555             125300.0293      
0.56              125286.035       
0.565             125272.3292      
0.57              125258.9058      
0.575             125245.7592      
0.58              125232.8835      
0.585             125220.2731      
0.59              125207.9226      
0.595             125195.8266      
0.6               125183.9799      
0.605             125172.3773      
0.61              125161.0137      
0.615             125149.8842      
0.62              125138.984       
0.625             125128.3083      
0.63              125117.8526      
0.635             125107.6122      
0.64              125097.5827      
0.645             125087.7597      
0.65              125078.1391      
0.655             125068.7165      
0.66              125059.488       
0.665             125050.4495      
0.67              125041.597       
0.675             125032.9269      
0.68              125024.4352      
0.685             125016.1183      
0.69              125007.9726      
0.695             124999.9946      
0.7               124992.1808      
0.705             124984.5278      
0.71              124977.0323      
0.715             124969.691       
0.72              124962.5008      
0.725             124955.4586      
0.73              124948.5612      
0.735             124941.8058      
0.74              124935.1894      
0.745             124928.7091      
0.75              124922.3621      
0.755             124916.1456      
0.76              124910.0571      
0.765             124904.0938      
0.77              124898.2531      
0.775             124892.5326      
0.78              124886.9297      
0.785             124881.4421      
0.79              124876.0673      
0.795             124870.8031      
0.8               124865.6471      
0.805             124860.5971      
0.81              124855.651       
0.815             124850.8066      
0.82              124846.0618      
0.825             124841.4145      
0.83              124836.8628      
0.835             124832.4047      
0.84              124828.0383      
0.845             124823.7616      
0.85              124819.5728      
0.855             124815.4701      
0.86              124811.4518      
0.865             124807.5161      
0.87              124803.6612      
0.875             124799.8856      
0.88              124796.1877      
0.885             124792.5657      
0.89              124789.0182      
0.895             124785.5435      
0.9               124782.1403      
0.905             124778.8071      
0.91              124775.5423      
0.915             124772.3446      
0.92              124769.2127      
0.925             124766.1451      
0.93              124763.1405      
0.935             124760.1977      
0.94              124757.3154      
0.945             124754.4923      
0.95              124751.7272      
0.955             124749.0189      
0.96              124746.3663      
0.965             124743.7681      
0.97              124741.2234      
0.975             124738.7309      
0.98              124736.2897      
0.985             124733.8986      
0.99              124731.5566      
0.995             124729.2628      
1                 124727.016       
