# Selection       : all 
# Volume          : 1.0000000000e-01
# Time            	max(k)
1                 	2.8109150440e-01
