#           v             n
     0.523599   3.68078e-10
     0.648652   3.07634e-10
     0.790112   7.48368e-10
     0.953116   1.95623e-09
      1.13449   5.24202e-09
      1.34047   1.48976e-08
      1.56672   4.28622e-08
      1.82069   1.28928e-07
      2.09677   3.87028e-07
      2.40376   1.19526e-06
      2.73462   3.62213e-06
      3.09966     1.108e-05
      3.49026   3.25643e-05
      3.91837   9.43127e-05
      4.37366   0.000255111
      4.86986   0.000657786
       5.3948    0.00151955
      5.96412    0.00318101
      6.56366    0.00558073
      7.21112    0.00818083
      7.89023    0.00910878
      8.62085    0.00797141
      9.38447     0.0054788
      10.2033    0.00232891
      11.0564             0
      11.9684             0
      12.9159             0
      13.9262             0
      14.9731             0
