/*--------------------------------*- C++ -*----------------------------------*\
  =========                 |
  \\      /  F ield         | OpenFOAM: The Open Source CFD Toolbox
   \\    /   O peration     | Website:  https://openfoam.org
    \\  /    A nd           | Version:  12
     \\/     M anipulation  |
\*---------------------------------------------------------------------------*/
FoamFile
{
    format      ascii;
    class       volScalarField;
    location    "1.24";
    object      p;
}
// * * * * * * * * * * * * * * * * * * * * * * * * * * * * * * * * * * * * * //

dimensions      [1 -1 -2 0 0 0 0];

internalField   nonuniform List<scalar> 
3829
(
-615.556
-615.555
-615.554
-615.553
-615.551
-615.548
-615.545
-615.542
-615.537
-615.533
-615.527
-615.521
-615.514
-615.507
-615.499
-615.49
-615.481
-615.471
-615.46
-615.449
-615.437
-615.424
-615.41
-615.396
-615.381
-615.366
-615.349
-615.332
-615.315
-615.297
-615.278
-615.258
-615.238
-615.218
-615.197
-615.175
-615.153
-615.131
-615.108
-615.085
-615.061
-615.037
-615.013
-614.989
-614.964
-614.94
-614.915
-614.89
-614.866
-614.841
-614.816
-614.792
-614.767
-614.743
-614.72
-614.696
-614.673
-614.651
-614.628
-614.607
-614.586
-614.565
-614.545
-614.526
-614.507
-614.489
-614.472
-614.456
-614.44
-614.425
-614.411
-614.398
-614.385
-614.373
-614.363
-614.352
-614.343
-614.335
-614.327
-614.32
-614.314
-614.309
-614.304
-614.3
-614.296
-614.293
-614.291
-614.29
-614.288
-614.288
-614.287
-614.288
-614.288
-614.289
-614.291
-614.292
-614.294
-614.297
-614.299
-614.302
-614.304
-614.307
-614.31
-614.313
-614.316
-614.319
-614.323
-614.326
-614.329
-614.332
-614.335
-614.338
-614.341
-614.344
-614.346
-614.349
-614.351
-614.354
-614.356
-614.358
-614.36
-614.361
-614.363
-614.364
-614.366
-614.367
-614.368
-614.369
-614.369
-614.37
-614.37
-614.371
-614.371
-614.371
-614.371
-614.371
-614.37
-614.37
-614.369
-614.369
-614.368
-614.368
-614.367
-614.366
-614.365
-614.364
-614.363
-614.362
-614.361
-614.36
-614.359
-614.358
-614.357
-614.356
-614.355
-614.354
-614.353
-614.352
-614.351
-614.35
-614.349
-614.348
-614.347
-614.347
-614.346
-614.345
-614.344
-614.343
-614.343
-614.342
-614.341
-614.341
-614.34
-614.34
-614.339
-614.339
-614.338
-614.338
-614.337
-614.337
-614.337
-614.336
-614.336
-614.336
-614.336
-614.336
-614.336
-614.335
-614.335
-614.335
-614.335
-614.335
-614.335
-614.335
-614.335
-614.335
-614.335
-614.335
-614.335
-614.335
-1773.97
-1773.97
-1773.97
-1773.96
-1773.96
-1773.96
-1773.96
-1773.95
-1773.95
-1773.94
-1773.94
-1773.93
-1773.92
-1773.91
-1773.91
-1773.9
-1773.89
-1773.87
-1773.86
-1773.85
-1773.84
-1773.82
-1773.81
-1773.79
-1773.78
-1773.76
-1773.74
-1773.72
-1773.7
-1773.68
-1773.66
-1773.64
-1773.62
-1773.6
-1773.58
-1773.55
-1773.53
-1773.51
-1773.48
-1773.46
-1773.43
-1773.41
-1773.38
-1773.36
-1773.33
-1773.3
-1773.28
-1773.25
-1773.23
-1773.2
-1773.17
-1773.15
-1773.12
-1773.1
-1773.07
-1773.05
-1773.03
-1773
-1772.98
-1772.96
-1772.94
-1772.92
-1772.9
-1772.88
-1772.86
-1772.84
-1772.82
-1772.81
-1772.79
-1772.78
-1772.76
-1772.75
-1772.74
-1772.73
-1772.72
-1772.71
-1772.7
-1772.69
-1772.68
-1772.68
-1772.67
-1772.67
-1772.66
-1772.66
-1772.66
-1772.66
-1772.65
-1772.65
-1772.65
-1772.65
-1772.65
-1772.65
-1772.65
-1772.66
-1772.66
-1772.66
-1772.66
-1772.66
-1772.67
-1772.67
-1772.67
-1772.68
-1772.68
-1772.68
-1772.69
-1772.69
-1772.69
-1772.7
-1772.7
-1772.7
-1772.71
-1772.71
-1772.71
-1772.71
-1772.72
-1772.72
-1772.72
-1772.72
-1772.73
-1772.73
-1772.73
-1772.73
-1772.73
-1772.73
-1772.74
-1772.74
-1772.74
-1772.74
-1772.74
-1772.74
-1772.74
-1772.74
-1772.74
-1772.74
-1772.74
-1772.74
-1772.74
-1772.74
-1772.74
-1772.74
-1772.74
-1772.74
-1772.74
-1772.74
-1772.74
-1772.73
-1772.73
-1772.73
-1772.73
-1772.73
-1772.73
-1772.73
-1772.73
-1772.73
-1772.72
-1772.72
-1772.72
-1772.72
-1772.72
-1772.72
-1772.72
-1772.72
-1772.72
-1772.72
-1772.72
-1772.71
-1772.71
-1772.71
-1772.71
-1772.71
-1772.71
-1772.71
-1772.71
-1772.71
-1772.71
-1772.71
-1772.71
-1772.71
-1772.71
-1772.71
-1772.71
-1772.71
-1772.71
-1772.71
-1772.71
-1772.71
-1772.71
-1772.71
-1772.71
-1772.71
-1772.7
-1772.7
-1772.7
-1772.7
-1772.7
-1772.7
-1772.7
-1772.7
-1772.7
-1772.7
-2800.2
-2800.2
-2800.2
-2800.2
-2800.2
-2800.19
-2800.19
-2800.18
-2800.18
-2800.17
-2800.17
-2800.16
-2800.15
-2800.14
-2800.13
-2800.12
-2800.11
-2800.1
-2800.08
-2800.07
-2800.05
-2800.04
-2800.02
-2800
-2799.98
-2799.96
-2799.94
-2799.92
-2799.9
-2799.88
-2799.85
-2799.83
-2799.81
-2799.78
-2799.75
-2799.73
-2799.7
-2799.68
-2799.65
-2799.62
-2799.59
-2799.57
-2799.54
-2799.51
-2799.48
-2799.45
-2799.42
-2799.4
-2799.37
-2799.34
-2799.31
-2799.29
-2799.26
-2799.23
-2799.21
-2799.18
-2799.16
-2799.13
-2799.11
-2799.09
-2799.07
-2799.04
-2799.02
-2799
-2798.99
-2798.97
-2798.95
-2798.94
-2798.92
-2798.91
-2798.89
-2798.88
-2798.87
-2798.86
-2798.85
-2798.84
-2798.84
-2798.83
-2798.82
-2798.82
-2798.81
-2798.81
-2798.81
-2798.8
-2798.8
-2798.8
-2798.8
-2798.8
-2798.8
-2798.8
-2798.8
-2798.81
-2798.81
-2798.81
-2798.81
-2798.82
-2798.82
-2798.82
-2798.83
-2798.83
-2798.83
-2798.84
-2798.84
-2798.84
-2798.85
-2798.85
-2798.85
-2798.86
-2798.86
-2798.86
-2798.87
-2798.87
-2798.87
-2798.88
-2798.88
-2798.88
-2798.88
-2798.89
-2798.89
-2798.89
-2798.89
-2798.89
-2798.9
-2798.9
-2798.9
-2798.9
-2798.9
-2798.9
-2798.9
-2798.9
-2798.9
-2798.9
-2798.9
-2798.9
-2798.9
-2798.9
-2798.9
-2798.9
-2798.9
-2798.9
-2798.9
-2798.9
-2798.9
-2798.9
-2798.9
-2798.89
-2798.89
-2798.89
-2798.89
-2798.89
-2798.89
-2798.89
-2798.89
-2798.89
-2798.89
-2798.88
-2798.88
-2798.88
-2798.88
-2798.88
-2798.88
-2798.88
-2798.88
-2798.88
-2798.88
-2798.87
-2798.87
-2798.87
-2798.87
-2798.87
-2798.87
-2798.87
-2798.87
-2798.87
-2798.87
-2798.87
-2798.87
-2798.87
-2798.87
-2798.87
-2798.87
-2798.87
-2798.87
-2798.87
-2798.87
-2798.87
-2798.87
-2798.87
-2798.87
-2798.87
-2798.87
-2798.87
-2798.87
-2798.87
-2798.86
-2798.86
-2798.86
-2798.86
-2798.86
-2798.86
-3709.34
-3709.34
-3709.34
-3709.34
-3709.33
-3709.33
-3709.33
-3709.32
-3709.31
-3709.31
-3709.3
-3709.29
-3709.28
-3709.27
-3709.26
-3709.24
-3709.23
-3709.21
-3709.2
-3709.18
-3709.16
-3709.14
-3709.12
-3709.1
-3709.08
-3709.06
-3709.03
-3709.01
-3708.98
-3708.95
-3708.93
-3708.9
-3708.87
-3708.84
-3708.81
-3708.78
-3708.75
-3708.72
-3708.69
-3708.66
-3708.63
-3708.6
-3708.57
-3708.54
-3708.51
-3708.47
-3708.44
-3708.41
-3708.38
-3708.35
-3708.32
-3708.29
-3708.26
-3708.24
-3708.21
-3708.18
-3708.16
-3708.13
-3708.11
-3708.08
-3708.06
-3708.04
-3708.02
-3708
-3707.98
-3707.96
-3707.95
-3707.93
-3707.92
-3707.91
-3707.89
-3707.88
-3707.87
-3707.87
-3707.86
-3707.85
-3707.84
-3707.84
-3707.84
-3707.83
-3707.83
-3707.83
-3707.83
-3707.82
-3707.82
-3707.82
-3707.83
-3707.83
-3707.83
-3707.83
-3707.83
-3707.84
-3707.84
-3707.84
-3707.85
-3707.85
-3707.85
-3707.86
-3707.86
-3707.87
-3707.87
-3707.87
-3707.88
-3707.88
-3707.89
-3707.89
-3707.89
-3707.9
-3707.9
-3707.9
-3707.91
-3707.91
-3707.91
-3707.92
-3707.92
-3707.92
-3707.92
-3707.93
-3707.93
-3707.93
-3707.93
-3707.93
-3707.94
-3707.94
-3707.94
-3707.94
-3707.94
-3707.94
-3707.94
-3707.94
-3707.94
-3707.94
-3707.94
-3707.94
-3707.94
-3707.94
-3707.94
-3707.94
-3707.94
-3707.94
-3707.94
-3707.94
-3707.94
-3707.94
-3707.93
-3707.93
-3707.93
-3707.93
-3707.93
-3707.93
-3707.93
-3707.93
-3707.93
-3707.92
-3707.92
-3707.92
-3707.92
-3707.92
-3707.92
-3707.92
-3707.92
-3707.92
-3707.92
-3707.91
-3707.91
-3707.91
-3707.91
-3707.91
-3707.91
-3707.91
-3707.91
-3707.91
-3707.91
-3707.91
-3707.91
-3707.91
-3707.91
-3707.91
-3707.91
-3707.91
-3707.91
-3707.91
-3707.9
-3707.9
-3707.9
-3707.9
-3707.9
-3707.9
-3707.9
-3707.9
-3707.9
-3707.9
-3707.9
-3707.9
-3707.9
-3707.9
-3707.9
-3707.9
-3707.9
-3707.9
-4514.75
-4514.75
-4514.75
-4514.74
-4514.74
-4514.74
-4514.73
-4514.72
-4514.72
-4514.71
-4514.7
-4514.69
-4514.68
-4514.66
-4514.65
-4514.63
-4514.61
-4514.6
-4514.58
-4514.56
-4514.53
-4514.51
-4514.49
-4514.46
-4514.43
-4514.41
-4514.38
-4514.35
-4514.32
-4514.29
-4514.26
-4514.22
-4514.19
-4514.16
-4514.12
-4514.09
-4514.05
-4514.02
-4513.98
-4513.95
-4513.91
-4513.88
-4513.84
-4513.81
-4513.77
-4513.74
-4513.7
-4513.67
-4513.64
-4513.6
-4513.57
-4513.54
-4513.51
-4513.48
-4513.45
-4513.42
-4513.4
-4513.37
-4513.34
-4513.32
-4513.3
-4513.28
-4513.26
-4513.24
-4513.22
-4513.2
-4513.19
-4513.17
-4513.16
-4513.15
-4513.14
-4513.13
-4513.12
-4513.11
-4513.11
-4513.1
-4513.1
-4513.1
-4513.09
-4513.09
-4513.09
-4513.09
-4513.09
-4513.09
-4513.09
-4513.1
-4513.1
-4513.1
-4513.1
-4513.11
-4513.11
-4513.12
-4513.12
-4513.12
-4513.13
-4513.13
-4513.14
-4513.14
-4513.15
-4513.15
-4513.16
-4513.16
-4513.17
-4513.17
-4513.17
-4513.18
-4513.18
-4513.19
-4513.19
-4513.19
-4513.2
-4513.2
-4513.2
-4513.21
-4513.21
-4513.21
-4513.22
-4513.22
-4513.22
-4513.22
-4513.22
-4513.23
-4513.23
-4513.23
-4513.23
-4513.23
-4513.23
-4513.23
-4513.23
-4513.23
-4513.23
-4513.23
-4513.23
-4513.23
-4513.23
-4513.23
-4513.23
-4513.23
-4513.23
-4513.23
-4513.23
-4513.23
-4513.22
-4513.22
-4513.22
-4513.22
-4513.22
-4513.22
-4513.22
-4513.22
-4513.22
-4513.22
-4513.21
-4513.21
-4513.21
-4513.21
-4513.21
-4513.21
-4513.21
-4513.21
-4513.21
-4513.2
-4513.2
-4513.2
-4513.2
-4513.2
-4513.2
-4513.2
-4513.2
-4513.2
-4513.2
-4513.2
-4513.2
-4513.2
-4513.2
-4513.2
-4513.19
-4513.19
-4513.19
-4513.19
-4513.19
-4513.19
-4513.19
-4513.19
-4513.19
-4513.19
-4513.19
-4513.19
-4513.19
-4513.19
-4513.19
-4513.19
-4513.19
-4513.19
-4513.19
-4513.19
-4513.19
-4513.19
-4513.19
-4513.19
-5228.26
-5228.26
-5228.26
-5228.26
-5228.25
-5228.25
-5228.24
-5228.23
-5228.22
-5228.21
-5228.2
-5228.19
-5228.18
-5228.16
-5228.14
-5228.12
-5228.1
-5228.08
-5228.06
-5228.03
-5228.01
-5227.98
-5227.95
-5227.92
-5227.89
-5227.85
-5227.82
-5227.78
-5227.75
-5227.71
-5227.67
-5227.63
-5227.6
-5227.56
-5227.52
-5227.48
-5227.44
-5227.4
-5227.36
-5227.32
-5227.28
-5227.24
-5227.2
-5227.16
-5227.13
-5227.09
-5227.05
-5227.01
-5226.98
-5226.94
-5226.91
-5226.87
-5226.84
-5226.81
-5226.78
-5226.75
-5226.72
-5226.69
-5226.66
-5226.64
-5226.62
-5226.6
-5226.58
-5226.56
-5226.54
-5226.53
-5226.51
-5226.5
-5226.49
-5226.48
-5226.47
-5226.46
-5226.46
-5226.45
-5226.45
-5226.44
-5226.44
-5226.44
-5226.44
-5226.44
-5226.44
-5226.44
-5226.45
-5226.45
-5226.45
-5226.46
-5226.46
-5226.47
-5226.47
-5226.48
-5226.48
-5226.49
-5226.49
-5226.5
-5226.5
-5226.51
-5226.51
-5226.52
-5226.52
-5226.53
-5226.53
-5226.54
-5226.54
-5226.55
-5226.55
-5226.56
-5226.56
-5226.57
-5226.57
-5226.58
-5226.58
-5226.58
-5226.59
-5226.59
-5226.59
-5226.59
-5226.6
-5226.6
-5226.6
-5226.6
-5226.6
-5226.61
-5226.61
-5226.61
-5226.61
-5226.61
-5226.61
-5226.61
-5226.61
-5226.61
-5226.61
-5226.61
-5226.61
-5226.61
-5226.61
-5226.61
-5226.61
-5226.61
-5226.61
-5226.61
-5226.61
-5226.6
-5226.6
-5226.6
-5226.6
-5226.6
-5226.6
-5226.6
-5226.6
-5226.6
-5226.59
-5226.59
-5226.59
-5226.59
-5226.59
-5226.59
-5226.59
-5226.59
-5226.59
-5226.58
-5226.58
-5226.58
-5226.58
-5226.58
-5226.58
-5226.58
-5226.58
-5226.58
-5226.58
-5226.58
-5226.58
-5226.58
-5226.57
-5226.57
-5226.57
-5226.57
-5226.57
-5226.57
-5226.57
-5226.57
-5226.57
-5226.57
-5226.57
-5226.57
-5226.57
-5226.57
-5226.57
-5226.57
-5226.57
-5226.57
-5226.57
-5226.57
-5226.57
-5226.57
-5226.57
-5226.57
-5226.57
-5226.57
-5226.57
-5226.57
-5860.37
-5860.37
-5860.36
-5860.36
-5860.36
-5860.35
-5860.34
-5860.34
-5860.33
-5860.31
-5860.3
-5860.29
-5860.27
-5860.25
-5860.23
-5860.21
-5860.19
-5860.16
-5860.13
-5860.1
-5860.07
-5860.04
-5860
-5859.97
-5859.93
-5859.89
-5859.84
-5859.8
-5859.76
-5859.71
-5859.67
-5859.63
-5859.58
-5859.54
-5859.49
-5859.45
-5859.4
-5859.36
-5859.31
-5859.27
-5859.23
-5859.18
-5859.14
-5859.1
-5859.05
-5859.01
-5858.97
-5858.93
-5858.89
-5858.85
-5858.81
-5858.78
-5858.74
-5858.71
-5858.68
-5858.64
-5858.62
-5858.59
-5858.56
-5858.54
-5858.51
-5858.49
-5858.47
-5858.46
-5858.44
-5858.43
-5858.41
-5858.4
-5858.39
-5858.39
-5858.38
-5858.38
-5858.37
-5858.37
-5858.37
-5858.37
-5858.37
-5858.37
-5858.37
-5858.37
-5858.38
-5858.38
-5858.39
-5858.39
-5858.4
-5858.4
-5858.41
-5858.41
-5858.42
-5858.43
-5858.43
-5858.44
-5858.44
-5858.45
-5858.46
-5858.46
-5858.47
-5858.48
-5858.48
-5858.49
-5858.49
-5858.5
-5858.51
-5858.51
-5858.52
-5858.52
-5858.53
-5858.53
-5858.53
-5858.54
-5858.54
-5858.55
-5858.55
-5858.55
-5858.55
-5858.56
-5858.56
-5858.56
-5858.56
-5858.57
-5858.57
-5858.57
-5858.57
-5858.57
-5858.57
-5858.57
-5858.57
-5858.57
-5858.57
-5858.57
-5858.57
-5858.57
-5858.57
-5858.57
-5858.57
-5858.57
-5858.57
-5858.57
-5858.57
-5858.57
-5858.57
-5858.57
-5858.56
-5858.56
-5858.56
-5858.56
-5858.56
-5858.56
-5858.56
-5858.56
-5858.55
-5858.55
-5858.55
-5858.55
-5858.55
-5858.55
-5858.55
-5858.55
-5858.55
-5858.54
-5858.54
-5858.54
-5858.54
-5858.54
-5858.54
-5858.54
-5858.54
-5858.54
-5858.54
-5858.54
-5858.54
-5858.54
-5858.53
-5858.53
-5858.53
-5858.53
-5858.53
-5858.53
-5858.53
-5858.53
-5858.53
-5858.53
-5858.53
-5858.53
-5858.53
-5858.53
-5858.53
-5858.53
-5858.53
-5858.53
-5858.53
-5858.53
-5858.53
-5858.53
-5858.53
-5858.53
-5858.53
-5858.53
-5858.53
-5858.53
-6420.36
-6420.36
-6420.36
-6420.36
-6420.35
-6420.35
-6420.34
-6420.33
-6420.32
-6420.3
-6420.29
-6420.27
-6420.25
-6420.23
-6420.21
-6420.18
-6420.15
-6420.12
-6420.09
-6420.05
-6420.02
-6419.98
-6419.93
-6419.89
-6419.84
-6419.79
-6419.74
-6419.69
-6419.64
-6419.58
-6419.53
-6419.48
-6419.43
-6419.38
-6419.33
-6419.28
-6419.23
-6419.18
-6419.14
-6419.09
-6419.04
-6418.99
-6418.94
-6418.9
-6418.85
-6418.8
-6418.76
-6418.72
-6418.67
-6418.63
-6418.59
-6418.55
-6418.51
-6418.48
-6418.44
-6418.41
-6418.38
-6418.35
-6418.33
-6418.3
-6418.28
-6418.26
-6418.24
-6418.23
-6418.21
-6418.2
-6418.19
-6418.18
-6418.17
-6418.17
-6418.16
-6418.16
-6418.16
-6418.16
-6418.16
-6418.16
-6418.16
-6418.17
-6418.17
-6418.18
-6418.18
-6418.19
-6418.2
-6418.2
-6418.21
-6418.22
-6418.23
-6418.23
-6418.24
-6418.25
-6418.26
-6418.26
-6418.27
-6418.28
-6418.29
-6418.29
-6418.3
-6418.31
-6418.31
-6418.32
-6418.33
-6418.33
-6418.34
-6418.35
-6418.35
-6418.36
-6418.36
-6418.36
-6418.37
-6418.37
-6418.38
-6418.38
-6418.38
-6418.39
-6418.39
-6418.39
-6418.39
-6418.4
-6418.4
-6418.4
-6418.4
-6418.4
-6418.4
-6418.4
-6418.41
-6418.41
-6418.41
-6418.41
-6418.41
-6418.41
-6418.41
-6418.41
-6418.41
-6418.41
-6418.4
-6418.4
-6418.4
-6418.4
-6418.4
-6418.4
-6418.4
-6418.4
-6418.4
-6418.4
-6418.39
-6418.39
-6418.39
-6418.39
-6418.39
-6418.39
-6418.39
-6418.39
-6418.38
-6418.38
-6418.38
-6418.38
-6418.38
-6418.38
-6418.38
-6418.38
-6418.38
-6418.37
-6418.37
-6418.37
-6418.37
-6418.37
-6418.37
-6418.37
-6418.37
-6418.37
-6418.37
-6418.37
-6418.37
-6418.37
-6418.37
-6418.37
-6418.36
-6418.36
-6418.36
-6418.36
-6418.36
-6418.36
-6418.36
-6418.36
-6418.36
-6418.36
-6418.36
-6418.36
-6418.36
-6418.36
-6418.36
-6418.36
-6418.36
-6418.36
-6418.36
-6418.36
-6418.36
-6418.36
-6418.36
-6418.36
-6916.46
-6916.46
-6916.45
-6916.45
-6916.44
-6916.43
-6916.42
-6916.41
-6916.39
-6916.38
-6916.36
-6916.33
-6916.31
-6916.29
-6916.26
-6916.23
-6916.2
-6916.16
-6916.13
-6916.09
-6916.05
-6916
-6915.95
-6915.9
-6915.84
-6915.79
-6915.73
-6915.67
-6915.61
-6915.55
-6915.49
-6915.43
-6915.37
-6915.32
-6915.27
-6915.21
-6915.16
-6915.11
-6915.05
-6915
-6914.95
-6914.9
-6914.85
-6914.8
-6914.75
-6914.7
-6914.65
-6914.6
-6914.55
-6914.51
-6914.47
-6914.42
-6914.38
-6914.35
-6914.31
-6914.28
-6914.25
-6914.22
-6914.19
-6914.17
-6914.15
-6914.13
-6914.11
-6914.09
-6914.08
-6914.07
-6914.06
-6914.06
-6914.05
-6914.05
-6914.05
-6914.05
-6914.05
-6914.05
-6914.06
-6914.06
-6914.07
-6914.07
-6914.08
-6914.09
-6914.1
-6914.1
-6914.11
-6914.12
-6914.13
-6914.14
-6914.15
-6914.16
-6914.17
-6914.18
-6914.18
-6914.19
-6914.2
-6914.21
-6914.22
-6914.23
-6914.23
-6914.24
-6914.25
-6914.26
-6914.26
-6914.27
-6914.28
-6914.28
-6914.29
-6914.29
-6914.3
-6914.3
-6914.31
-6914.31
-6914.31
-6914.32
-6914.32
-6914.32
-6914.33
-6914.33
-6914.33
-6914.33
-6914.34
-6914.34
-6914.34
-6914.34
-6914.34
-6914.34
-6914.34
-6914.34
-6914.34
-6914.34
-6914.34
-6914.34
-6914.34
-6914.34
-6914.34
-6914.34
-6914.34
-6914.34
-6914.34
-6914.34
-6914.34
-6914.34
-6914.33
-6914.33
-6914.33
-6914.33
-6914.33
-6914.33
-6914.33
-6914.33
-6914.32
-6914.32
-6914.32
-6914.32
-6914.32
-6914.32
-6914.32
-6914.32
-6914.31
-6914.31
-6914.31
-6914.31
-6914.31
-6914.31
-6914.31
-6914.31
-6914.31
-6914.31
-6914.31
-6914.3
-6914.3
-6914.3
-6914.3
-6914.3
-6914.3
-6914.3
-6914.3
-6914.3
-6914.3
-6914.3
-6914.3
-6914.3
-6914.3
-6914.3
-6914.3
-6914.3
-6914.3
-6914.3
-6914.3
-6914.3
-6914.3
-6914.3
-6914.3
-6914.3
-6914.3
-6914.3
-6914.3
-6914.3
-6914.3
-6914.3
-6914.3
-6914.3
-7355.96
-7355.96
-7355.96
-7355.95
-7355.94
-7355.94
-7355.93
-7355.92
-7355.94
-7355.92
-7355.91
-7355.89
-7355.86
-7355.84
-7355.81
-7355.77
-7355.74
-7355.7
-7355.66
-7355.61
-7355.57
-7355.52
-7355.46
-7355.4
-7355.33
-7355.26
-7355.17
-7355.04
-7354.96
-7354.89
-7354.82
-7354.76
-7354.7
-7354.65
-7354.59
-7354.54
-7354.48
-7354.43
-7354.37
-7354.32
-7354.26
-7354.2
-7354.15
-7354.1
-7354.04
-7353.99
-7353.94
-7353.88
-7353.83
-7353.79
-7353.74
-7353.7
-7353.65
-7353.61
-7353.58
-7353.54
-7353.51
-7353.48
-7353.46
-7353.43
-7353.41
-7353.39
-7353.38
-7353.37
-7353.36
-7353.35
-7353.34
-7353.34
-7353.34
-7353.34
-7353.34
-7353.34
-7353.35
-7353.35
-7353.36
-7353.36
-7353.37
-7353.38
-7353.39
-7353.4
-7353.41
-7353.42
-7353.43
-7353.44
-7353.45
-7353.46
-7353.47
-7353.48
-7353.49
-7353.51
-7353.52
-7353.52
-7353.53
-7353.54
-7353.55
-7353.56
-7353.57
-7353.58
-7353.59
-7353.59
-7353.6
-7353.61
-7353.61
-7353.62
-7353.63
-7353.63
-7353.64
-7353.64
-7353.65
-7353.65
-7353.65
-7353.66
-7353.66
-7353.66
-7353.67
-7353.67
-7353.67
-7353.67
-7353.67
-7353.68
-7353.68
-7353.68
-7353.68
-7353.68
-7353.68
-7353.68
-7353.68
-7353.68
-7353.68
-7353.68
-7353.68
-7353.68
-7353.68
-7353.68
-7353.68
-7353.68
-7353.67
-7353.67
-7353.67
-7353.67
-7353.67
-7353.67
-7353.67
-7353.67
-7353.67
-7353.66
-7353.66
-7353.66
-7353.66
-7353.66
-7353.66
-7353.66
-7353.65
-7353.65
-7353.65
-7353.65
-7353.65
-7353.65
-7353.65
-7353.65
-7353.65
-7353.65
-7353.64
-7353.64
-7353.64
-7353.64
-7353.64
-7353.64
-7353.64
-7353.64
-7353.64
-7353.64
-7353.64
-7353.64
-7353.64
-7353.64
-7353.64
-7353.63
-7353.63
-7353.63
-7353.63
-7353.63
-7353.63
-7353.63
-7353.63
-7353.63
-7353.63
-7353.63
-7353.63
-7353.63
-7353.63
-7353.63
-7353.63
-7353.63
-7353.63
-7353.63
-7353.63
-7353.63
-7353.63
-7353.63
-7745.33
-7745.33
-7745.33
-7745.33
-7745.32
-7745.32
-7745.31
-7745.28
-7745.26
-7745.2
-7745.16
-7745.13
-7745.09
-7745.06
-7745.03
-7744.99
-7744.95
-7744.91
-7744.87
-7744.82
-7744.77
-7744.71
-7744.65
-7744.59
-7744.52
-7744.44
-7744.37
-7744.25
-7744.17
-7744.09
-7744.02
-7743.95
-7743.89
-7743.83
-7743.77
-7743.71
-7743.65
-7743.6
-7743.54
-7743.48
-7743.42
-7743.36
-7743.3
-7743.25
-7743.19
-7743.13
-7743.07
-7743.02
-7742.97
-7742.91
-7742.86
-7742.82
-7742.77
-7742.73
-7742.69
-7742.66
-7742.63
-7742.6
-7742.57
-7742.55
-7742.53
-7742.51
-7742.5
-7742.49
-7742.48
-7742.48
-7742.47
-7742.47
-7742.47
-7742.48
-7742.48
-7742.49
-7742.49
-7742.5
-7742.51
-7742.52
-7742.53
-7742.54
-7742.55
-7742.57
-7742.58
-7742.59
-7742.6
-7742.62
-7742.63
-7742.64
-7742.65
-7742.66
-7742.68
-7742.69
-7742.7
-7742.71
-7742.72
-7742.73
-7742.74
-7742.75
-7742.76
-7742.77
-7742.77
-7742.78
-7742.79
-7742.8
-7742.8
-7742.81
-7742.82
-7742.82
-7742.83
-7742.83
-7742.84
-7742.84
-7742.84
-7742.85
-7742.85
-7742.85
-7742.86
-7742.86
-7742.86
-7742.86
-7742.86
-7742.87
-7742.87
-7742.87
-7742.87
-7742.87
-7742.87
-7742.87
-7742.87
-7742.87
-7742.87
-7742.87
-7742.87
-7742.87
-7742.87
-7742.87
-7742.86
-7742.86
-7742.86
-7742.86
-7742.86
-7742.86
-7742.86
-7742.86
-7742.86
-7742.85
-7742.85
-7742.85
-7742.85
-7742.85
-7742.85
-7742.85
-7742.84
-7742.84
-7742.84
-7742.84
-7742.84
-7742.84
-7742.84
-7742.84
-7742.84
-7742.83
-7742.83
-7742.83
-7742.83
-7742.83
-7742.83
-7742.83
-7742.83
-7742.83
-7742.83
-7742.83
-7742.83
-7742.82
-7742.82
-7742.82
-7742.82
-7742.82
-7742.82
-7742.82
-7742.82
-7742.82
-7742.82
-7742.82
-7742.82
-7742.82
-7742.82
-7742.82
-7742.82
-7742.82
-7742.82
-7742.82
-7742.82
-7742.82
-7742.82
-7742.82
-7742.82
-7742.82
-7742.82
-7742.82
-7742.82
-7742.82
-8090.21
-8090.21
-8090.2
-8090.2
-8090.18
-8090.17
-8090.15
-8090.15
-8088.74
-8088.71
-8088.71
-8088.68
-8088.65
-8088.61
-8088.56
-8088.51
-8088.46
-8088.4
-8088.35
-8088.29
-8088.23
-8088.16
-8088.1
-8088.04
-8087.98
-8087.91
-8087.85
-8087.79
-8087.73
-8087.68
-8087.62
-8087.57
-8087.52
-8087.47
-8087.43
-8087.39
-8087.36
-8087.32
-8087.29
-8087.27
-8087.25
-8087.23
-8087.22
-8087.2
-8087.2
-8087.19
-8087.19
-8087.19
-8087.19
-8087.19
-8087.2
-8087.21
-8087.22
-8087.23
-8087.24
-8087.25
-8087.26
-8087.27
-8087.29
-8087.3
-8087.32
-8087.33
-8087.34
-8087.36
-8087.37
-8087.39
-8087.4
-8087.41
-8087.43
-8087.44
-8087.45
-8087.46
-8087.47
-8087.48
-8087.5
-8087.51
-8087.52
-8087.52
-8087.53
-8087.54
-8087.55
-8087.56
-8087.57
-8087.57
-8087.58
-8087.59
-8087.59
-8087.6
-8087.6
-8087.61
-8087.61
-8087.61
-8087.62
-8087.62
-8087.62
-8087.63
-8087.63
-8087.63
-8087.63
-8087.63
-8087.64
-8087.64
-8087.64
-8087.64
-8087.64
-8087.64
-8087.64
-8087.64
-8087.64
-8087.64
-8087.64
-8087.64
-8087.64
-8087.64
-8087.63
-8087.63
-8087.63
-8087.63
-8087.63
-8087.63
-8087.63
-8087.63
-8087.62
-8087.62
-8087.62
-8087.62
-8087.62
-8087.62
-8087.62
-8087.61
-8087.61
-8087.61
-8087.61
-8087.61
-8087.61
-8087.61
-8087.61
-8087.6
-8087.6
-8087.6
-8087.6
-8087.6
-8087.6
-8087.6
-8087.6
-8087.6
-8087.6
-8087.6
-8087.59
-8087.59
-8087.59
-8087.59
-8087.59
-8087.59
-8087.59
-8087.59
-8087.59
-8087.59
-8087.59
-8087.59
-8087.59
-8087.59
-8087.59
-8087.59
-8087.59
-8087.59
-8087.59
-8087.59
-8087.59
-8087.59
-8087.59
-8087.59
-8087.59
-8087.59
-8087.59
-8087.59
-8087.59
-8087.59
-8087.59
-8087.59
-8087.59
-8395.78
-8395.78
-8395.78
-8395.78
-8395.78
-8395.78
-8395.78
-8395.79
-8394.19
-8394.15
-8394.14
-8394.1
-8394.07
-8394.02
-8393.98
-8393.93
-8393.87
-8393.82
-8393.76
-8393.7
-8393.63
-8393.57
-8393.5
-8393.43
-8393.37
-8393.3
-8393.23
-8393.17
-8393.1
-8393.04
-8392.99
-8392.93
-8392.88
-8392.83
-8392.79
-8392.75
-8392.71
-8392.68
-8392.65
-8392.63
-8392.61
-8392.59
-8392.58
-8392.57
-8392.56
-8392.56
-8392.56
-8392.56
-8392.57
-8392.57
-8392.58
-8392.59
-8392.6
-8392.62
-8392.63
-8392.65
-8392.66
-8392.68
-8392.69
-8392.71
-8392.72
-8392.74
-8392.76
-8392.77
-8392.79
-8392.8
-8392.82
-8392.83
-8392.84
-8392.86
-8392.87
-8392.88
-8392.9
-8392.91
-8392.92
-8392.93
-8392.94
-8392.95
-8392.96
-8392.97
-8392.98
-8392.98
-8392.99
-8393
-8393.01
-8393.01
-8393.02
-8393.02
-8393.03
-8393.03
-8393.04
-8393.04
-8393.04
-8393.05
-8393.05
-8393.05
-8393.06
-8393.06
-8393.06
-8393.06
-8393.06
-8393.06
-8393.06
-8393.06
-8393.06
-8393.06
-8393.06
-8393.06
-8393.06
-8393.06
-8393.06
-8393.06
-8393.06
-8393.06
-8393.06
-8393.06
-8393.06
-8393.06
-8393.05
-8393.05
-8393.05
-8393.05
-8393.05
-8393.05
-8393.05
-8393.04
-8393.04
-8393.04
-8393.04
-8393.04
-8393.04
-8393.04
-8393.04
-8393.03
-8393.03
-8393.03
-8393.03
-8393.03
-8393.03
-8393.03
-8393.03
-8393.02
-8393.02
-8393.02
-8393.02
-8393.02
-8393.02
-8393.02
-8393.02
-8393.02
-8393.02
-8393.02
-8393.02
-8393.02
-8393.02
-8393.01
-8393.01
-8393.01
-8393.01
-8393.01
-8393.01
-8393.01
-8393.01
-8393.01
-8393.01
-8393.01
-8393.01
-8393.01
-8393.01
-8393.01
-8393.01
-8393.01
-8393.01
-8393.01
-8393.01
-8393.01
-8393.01
-8393.01
-8393.01
-8393.01
-8393.01
-8666.48
-8666.48
-8666.48
-8666.48
-8666.47
-8666.48
-8666.47
-8666.48
-8664.72
-8664.7
-8664.69
-8664.66
-8664.63
-8664.59
-8664.54
-8664.49
-8664.44
-8664.38
-8664.32
-8664.25
-8664.18
-8664.11
-8664.04
-8663.97
-8663.9
-8663.83
-8663.75
-8663.69
-8663.62
-8663.55
-8663.49
-8663.43
-8663.38
-8663.33
-8663.28
-8663.24
-8663.21
-8663.17
-8663.15
-8663.12
-8663.11
-8663.09
-8663.08
-8663.07
-8663.07
-8663.07
-8663.07
-8663.08
-8663.09
-8663.1
-8663.11
-8663.12
-8663.14
-8663.15
-8663.17
-8663.19
-8663.2
-8663.22
-8663.24
-8663.26
-8663.27
-8663.29
-8663.31
-8663.33
-8663.34
-8663.36
-8663.37
-8663.39
-8663.4
-8663.42
-8663.43
-8663.45
-8663.46
-8663.47
-8663.48
-8663.49
-8663.51
-8663.52
-8663.53
-8663.53
-8663.54
-8663.55
-8663.56
-8663.57
-8663.57
-8663.58
-8663.59
-8663.59
-8663.6
-8663.6
-8663.6
-8663.61
-8663.61
-8663.62
-8663.62
-8663.62
-8663.62
-8663.62
-8663.63
-8663.63
-8663.63
-8663.63
-8663.63
-8663.63
-8663.63
-8663.63
-8663.63
-8663.63
-8663.63
-8663.63
-8663.63
-8663.63
-8663.63
-8663.63
-8663.62
-8663.62
-8663.62
-8663.62
-8663.62
-8663.62
-8663.62
-8663.62
-8663.61
-8663.61
-8663.61
-8663.61
-8663.61
-8663.61
-8663.61
-8663.6
-8663.6
-8663.6
-8663.6
-8663.6
-8663.6
-8663.6
-8663.59
-8663.59
-8663.59
-8663.59
-8663.59
-8663.59
-8663.59
-8663.59
-8663.59
-8663.59
-8663.59
-8663.58
-8663.58
-8663.58
-8663.58
-8663.58
-8663.58
-8663.58
-8663.58
-8663.58
-8663.58
-8663.58
-8663.58
-8663.58
-8663.58
-8663.58
-8663.58
-8663.58
-8663.58
-8663.58
-8663.58
-8663.58
-8663.58
-8663.58
-8663.58
-8663.58
-8663.58
-8663.58
-8663.58
-8663.58
-8663.58
-8663.58
-8663.58
-8663.58
-8663.58
-8906.27
-8906.27
-8906.27
-8906.27
-8906.27
-8906.27
-8906.27
-8906.27
-8904.41
-8904.39
-8904.38
-8904.35
-8904.32
-8904.28
-8904.23
-8904.18
-8904.12
-8904.06
-8904
-8903.93
-8903.85
-8903.78
-8903.7
-8903.63
-8903.55
-8903.47
-8903.4
-8903.32
-8903.25
-8903.18
-8903.12
-8903.06
-8903
-8902.95
-8902.9
-8902.86
-8902.82
-8902.79
-8902.76
-8902.74
-8902.73
-8902.71
-8902.71
-8902.7
-8902.7
-8902.71
-8902.71
-8902.72
-8902.73
-8902.74
-8902.76
-8902.77
-8902.79
-8902.81
-8902.83
-8902.85
-8902.87
-8902.89
-8902.91
-8902.92
-8902.94
-8902.96
-8902.98
-8903
-8903.02
-8903.04
-8903.05
-8903.07
-8903.08
-8903.1
-8903.11
-8903.13
-8903.14
-8903.15
-8903.17
-8903.18
-8903.19
-8903.2
-8903.21
-8903.22
-8903.23
-8903.24
-8903.24
-8903.25
-8903.26
-8903.26
-8903.27
-8903.28
-8903.28
-8903.29
-8903.29
-8903.29
-8903.3
-8903.3
-8903.3
-8903.31
-8903.31
-8903.31
-8903.31
-8903.31
-8903.31
-8903.31
-8903.31
-8903.31
-8903.31
-8903.31
-8903.31
-8903.31
-8903.31
-8903.31
-8903.31
-8903.31
-8903.31
-8903.31
-8903.31
-8903.31
-8903.31
-8903.3
-8903.3
-8903.3
-8903.3
-8903.3
-8903.3
-8903.3
-8903.29
-8903.29
-8903.29
-8903.29
-8903.29
-8903.29
-8903.29
-8903.28
-8903.28
-8903.28
-8903.28
-8903.28
-8903.28
-8903.28
-8903.28
-8903.27
-8903.27
-8903.27
-8903.27
-8903.27
-8903.27
-8903.27
-8903.27
-8903.27
-8903.27
-8903.27
-8903.26
-8903.26
-8903.26
-8903.26
-8903.26
-8903.26
-8903.26
-8903.26
-8903.26
-8903.26
-8903.26
-8903.26
-8903.26
-8903.26
-8903.26
-8903.26
-8903.26
-8903.26
-8903.26
-8903.26
-8903.26
-8903.26
-8903.26
-8903.26
-8903.26
-8903.26
-8903.26
-8903.26
-8903.26
-8903.26
-8903.26
-9118.7
-9118.7
-9118.7
-9118.7
-9118.7
-9118.7
-9118.7
-9118.7
-9116.76
-9116.74
-9116.72
-9116.7
-9116.67
-9116.62
-9116.58
-9116.52
-9116.46
-9116.4
-9116.33
-9116.25
-9116.17
-9116.09
-9116.01
-9115.93
-9115.85
-9115.77
-9115.69
-9115.61
-9115.53
-9115.46
-9115.39
-9115.33
-9115.27
-9115.21
-9115.17
-9115.12
-9115.09
-9115.06
-9115.03
-9115.01
-9115
-9114.99
-9114.98
-9114.98
-9114.98
-9114.99
-9115
-9115.01
-9115.02
-9115.04
-9115.05
-9115.07
-9115.09
-9115.11
-9115.13
-9115.15
-9115.18
-9115.2
-9115.22
-9115.24
-9115.26
-9115.28
-9115.3
-9115.32
-9115.34
-9115.36
-9115.38
-9115.39
-9115.41
-9115.43
-9115.44
-9115.45
-9115.47
-9115.48
-9115.49
-9115.51
-9115.52
-9115.53
-9115.54
-9115.55
-9115.56
-9115.57
-9115.57
-9115.58
-9115.59
-9115.59
-9115.6
-9115.61
-9115.61
-9115.62
-9115.62
-9115.62
-9115.63
-9115.63
-9115.63
-9115.63
-9115.64
-9115.64
-9115.64
-9115.64
-9115.64
-9115.64
-9115.64
-9115.64
-9115.64
-9115.64
-9115.64
-9115.64
-9115.64
-9115.64
-9115.64
-9115.64
-9115.64
-9115.64
-9115.64
-9115.64
-9115.63
-9115.63
-9115.63
-9115.63
-9115.63
-9115.63
-9115.62
-9115.62
-9115.62
-9115.62
-9115.62
-9115.62
-9115.62
-9115.61
-9115.61
-9115.61
-9115.61
-9115.61
-9115.61
-9115.61
-9115.6
-9115.6
-9115.6
-9115.6
-9115.6
-9115.6
-9115.6
-9115.6
-9115.6
-9115.6
-9115.6
-9115.59
-9115.59
-9115.59
-9115.59
-9115.59
-9115.59
-9115.59
-9115.59
-9115.59
-9115.59
-9115.59
-9115.59
-9115.59
-9115.59
-9115.59
-9115.59
-9115.59
-9115.59
-9115.59
-9115.59
-9115.59
-9115.59
-9115.59
-9115.59
-9115.59
-9115.59
-9115.59
-9115.59
-9115.59
-9115.59
-9115.59
-9115.59
-9115.59
-9115.59
-9306.89
-9306.89
-9306.89
-9306.89
-9306.89
-9306.89
-9306.89
-9306.89
-9304.88
-9304.86
-9304.84
-9304.82
-9304.78
-9304.74
-9304.69
-9304.63
-9304.57
-9304.5
-9304.42
-9304.34
-9304.26
-9304.18
-9304.09
-9304
-9303.91
-9303.83
-9303.74
-9303.66
-9303.58
-9303.5
-9303.43
-9303.36
-9303.3
-9303.25
-9303.2
-9303.16
-9303.12
-9303.09
-9303.06
-9303.05
-9303.03
-9303.03
-9303.02
-9303.02
-9303.03
-9303.04
-9303.05
-9303.06
-9303.08
-9303.1
-9303.12
-9303.14
-9303.16
-9303.18
-9303.21
-9303.23
-9303.25
-9303.28
-9303.3
-9303.32
-9303.34
-9303.37
-9303.39
-9303.41
-9303.43
-9303.45
-9303.46
-9303.48
-9303.5
-9303.52
-9303.53
-9303.55
-9303.56
-9303.57
-9303.59
-9303.6
-9303.61
-9303.62
-9303.63
-9303.64
-9303.65
-9303.66
-9303.67
-9303.68
-9303.68
-9303.69
-9303.69
-9303.7
-9303.71
-9303.71
-9303.71
-9303.72
-9303.72
-9303.72
-9303.73
-9303.73
-9303.73
-9303.73
-9303.73
-9303.73
-9303.74
-9303.74
-9303.74
-9303.74
-9303.74
-9303.74
-9303.74
-9303.74
-9303.74
-9303.73
-9303.73
-9303.73
-9303.73
-9303.73
-9303.73
-9303.73
-9303.73
-9303.72
-9303.72
-9303.72
-9303.72
-9303.72
-9303.72
-9303.72
-9303.71
-9303.71
-9303.71
-9303.71
-9303.71
-9303.71
-9303.7
-9303.7
-9303.7
-9303.7
-9303.7
-9303.7
-9303.7
-9303.7
-9303.69
-9303.69
-9303.69
-9303.69
-9303.69
-9303.69
-9303.69
-9303.69
-9303.69
-9303.69
-9303.69
-9303.68
-9303.68
-9303.68
-9303.68
-9303.68
-9303.68
-9303.68
-9303.68
-9303.68
-9303.68
-9303.68
-9303.68
-9303.68
-9303.68
-9303.68
-9303.68
-9303.68
-9303.68
-9303.68
-9303.68
-9303.68
-9303.68
-9303.68
-9303.68
-9303.68
-9303.68
-9303.68
-9303.68
-9303.68
-9303.68
-9303.68
-9303.68
-9473.59
-9473.59
-9473.59
-9473.59
-9473.59
-9473.59
-9473.59
-9473.59
-9471.53
-9471.52
-9471.5
-9471.47
-9471.43
-9471.39
-9471.33
-9471.27
-9471.21
-9471.13