/*--------------------------------*- C++ -*----------------------------------*\
  =========                 |
  \\      /  F ield         | OpenFOAM: The Open Source CFD Toolbox
   \\    /   O peration     | Website:  https://openfoam.org
    \\  /    A nd           | Version:  12
     \\/     M anipulation  |
\*---------------------------------------------------------------------------*/
FoamFile
{
    format      ascii;
    class       surfaceScalarField;
    location    "1.24";
    object      phi;
}
// * * * * * * * * * * * * * * * * * * * * * * * * * * * * * * * * * * * * * //

dimensions      [1 0 -1 0 0 0 0];

internalField   nonuniform List<scalar> 
7429
(
-6.54704e-05
6.54704e-05
-0.000131554
6.60834e-05
-0.000198414
6.68605e-05
-0.000266063
6.76484e-05
-0.000334503
6.84404e-05
-0.000403735
6.92317e-05
-0.000473752
7.00172e-05
-0.000544556
7.08038e-05
-0.000616073
7.15166e-05
-0.000688244
7.21715e-05
-0.000760933
7.2688e-05
-0.000834071
7.3138e-05
-0.000907559
7.34887e-05
-0.000981199
7.36398e-05
-0.0010548
7.3605e-05
-0.00112812
7.33151e-05
-0.00120091
7.2795e-05
-0.00127291
7.19999e-05
-0.00134381
7.0895e-05
-0.00141325
6.94448e-05
-0.00148088
6.76274e-05
-0.00154632
6.54341e-05
-0.00160919
6.28778e-05
-0.00166908
5.9888e-05
-0.00172557
5.64872e-05
-0.00177828
5.2713e-05
-0.00182682
4.85361e-05
-0.00187079
4.39725e-05
-0.00190981
3.90171e-05
-0.00194361
3.37991e-05
-0.00197182
2.82136e-05
-0.00199422
2.24033e-05
-0.00201059
1.63622e-05
-0.00202061
1.00187e-05
-0.00202412
3.50991e-06
-0.00202134
-2.77033e-06
-0.00201224
-9.10302e-06
-0.00199679
-1.54539e-05
-0.00197504
-2.17457e-05
-0.00194712
-2.79269e-05
-0.00191317
-3.39421e-05
-0.00187342
-3.97574e-05
-0.00182809
-4.5323e-05
-0.00177749
-5.06075e-05
-0.00172191
-5.55756e-05
-0.00166172
-6.01909e-05
-0.00159728
-6.44388e-05
-0.001529
-6.82823e-05
-0.00145728
-7.17189e-05
-0.00138256
-7.47183e-05
-0.00130528
-7.72814e-05
-0.00122589
-7.9386e-05
-0.00114485
-8.10475e-05
-0.00106259
-8.22572e-05
-0.000979578
-8.30109e-05
-0.000896245
-8.33334e-05
-0.000813054
-8.31904e-05
-0.00073037
-8.26842e-05
-0.000648629
-8.17406e-05
-0.000568178
-8.04515e-05
-0.000489446
-7.87314e-05
-0.000412715
-7.6732e-05
-0.000338324
-7.4391e-05
-0.000266543
-7.17801e-05
-0.000197665
-6.88782e-05
-0.000131884
-6.57811e-05
-6.94316e-05
-6.24526e-05
-1.04313e-05
-5.90003e-05
4.49033e-05
-5.53346e-05
9.64794e-05
-5.15761e-05
0.000144133
-4.7654e-05
0.000187948
-4.38148e-05
0.00022769
-3.97423e-05
0.000263462
-3.57717e-05
0.000295368
-3.19055e-05
0.000323359
-2.79912e-05
0.000347497
-2.41383e-05
0.000367865
-2.03673e-05
0.000384563
-1.66981e-05
0.000397698
-1.31357e-05
0.000407387
-9.68887e-06
0.000413872
-6.48509e-06
0.000417212
-3.33978e-06
0.000417724
-5.11918e-07
0.000415702
2.0224e-06
0.000411181
4.52029e-06
0.000404326
6.85507e-06
0.000395316
9.01018e-06
0.000384334
1.09819e-05
0.000371566
1.27685e-05
0.000357198
1.43677e-05
0.000341413
1.57853e-05
0.000324396
1.70171e-05
0.000306313
1.80824e-05
0.000287351
1.8962e-05
0.000267662
1.96895e-05
0.000247407
2.02542e-05
0.000226739
2.06689e-05
0.000205791
2.09476e-05
0.000184692
2.10992e-05
0.000163582
2.11092e-05
0.000142571
2.10114e-05
0.000121773
2.07979e-05
0.000101267
2.05061e-05
8.11752e-05
2.00918e-05
6.15586e-05
1.96167e-05
4.24918e-05
1.90668e-05
2.40566e-05
1.84352e-05
6.28461e-06
1.77719e-05
-1.07614e-05
1.7046e-05
-2.70443e-05
1.62828e-05
-4.252e-05
1.54757e-05
-5.71693e-05
1.46493e-05
-7.09636e-05
1.37943e-05
-8.38868e-05
1.29232e-05
-9.59342e-05
1.20474e-05
-0.000107101
1.11672e-05
-0.000117382
1.02803e-05
-0.000126783
9.40108e-06
-0.00013532
8.53761e-06
-0.000143002
7.68134e-06
-0.00014984
6.83854e-06
-0.000155863
6.02298e-06
-0.000161085
5.22205e-06
-0.000165539
4.45321e-06
-0.000169244
3.7052e-06
-0.00017223
2.98629e-06
-0.00017453
2.29968e-06
-0.000176177
1.64682e-06
-0.0001772
1.02328e-06
-0.000177631
4.31203e-07
-0.000177527
-1.03794e-07
-0.000176909
-6.18084e-07
-0.000175808
-1.10111e-06
-0.000174258
-1.55027e-06
-0.000172293
-1.96474e-06
-0.000169949
-2.34442e-06
-0.000167258
-2.69047e-06
-0.000164255
-3.00317e-06
-0.000160972
-3.28275e-06
-0.000157442
-3.53055e-06
-0.000153694
-3.74761e-06
-0.000149758
-3.93573e-06
-0.000145664
-4.09435e-06
-0.000141438
-4.22594e-06
-0.000137105
-4.33315e-06
-0.00013269
-4.41477e-06
-0.000128217
-4.47331e-06
-0.000123706
-4.51065e-06
-0.000119179
-4.5267e-06
-0.000114656
-4.5233e-06
-0.000110154
-4.50236e-06
-0.00010569
-4.46398e-06
-0.00010128
-4.41031e-06
-9.6936e-05
-4.34349e-06
-9.26725e-05
-4.2635e-06
-8.84982e-05
-4.17429e-06
-8.44219e-05
-4.0763e-06
-8.04519e-05
-3.96999e-06
-7.65928e-05
-3.85915e-06
-7.28508e-05
-3.74199e-06
-6.92285e-05
-3.62235e-06
-6.57295e-05
-3.49899e-06
-6.23551e-05
-3.37432e-06
-5.91066e-05
-3.24851e-06
-5.5983e-05
-3.12367e-06
-5.29831e-05
-2.99984e-06
-5.01059e-05
-2.87726e-06
-4.73481e-05
-2.75781e-06
-4.47071e-05
-2.64097e-06
-4.21804e-05
-2.52672e-06
-3.97654e-05
-2.41499e-06
-3.74592e-05
-2.30619e-06
-3.52589e-05
-2.20032e-06
-3.31598e-05
-2.09908e-06
-3.11567e-05
-2.00305e-06
-2.92419e-05
-1.91484e-06
-2.74062e-05
-1.8357e-06
-2.5639e-05
-1.7672e-06
-2.39292e-05
-1.70981e-06
-2.22647e-05
-1.66444e-06
-2.06357e-05
-1.62899e-06
-1.90347e-05
-1.60103e-06
-1.7458e-05
-1.5767e-06
-1.59072e-05
-1.55081e-06
-1.43888e-05
-1.51841e-06
-1.29138e-05
-1.47494e-06
-1.14971e-05
-1.41674e-06
-1.01552e-05
-1.34192e-06
-8.90406e-06
-1.25113e-06
-7.7541e-06
-1.14996e-06
-6.70817e-06
-1.04593e-06
-5.75993e-06
-9.48234e-07
-4.8919e-06
-8.68038e-07
-4.07773e-06
-8.14168e-07
-3.28842e-06
-7.89312e-07
-2.49772e-06
-7.90697e-07
-1.68839e-06
-8.09327e-07
-8.54161e-07
-8.34231e-07
-8.54161e-07
-5.93055e-05
0.000124776
-0.000119252
0.00012603
-0.000180111
0.000127719
-0.000241992
0.000129529
-0.000304961
0.00013141
-0.000369209
0.00013348
-0.000434734
0.000135542
-0.000501579
0.000137649
-0.000569937
0.000139874
-0.000639797
0.000142032
-0.00071098
0.000143871
-0.000783612
0.000145769
-0.000857425
0.000147302
-0.000932166
0.00014838
-0.00100779
0.000149234
-0.00108397
0.000149493
-0.00116024
0.00014906
-0.00123632
0.000148077
-0.00131178
0.000146357
-0.00138612
0.000143791
-0.00145885
0.000140352
-0.00152941
0.000135996
-0.00159722
0.000130684
-0.00166172
0.000124388
-0.00172245
0.000117219
-0.00177871
0.000108972
-0.00183001
9.98378e-05
-0.00187589
8.98502e-05
-0.00191603
7.91638e-05
-0.00194991
6.76742e-05
-0.00197711
5.54109e-05
-0.00199758
4.28736e-05
-0.00201079
2.95767e-05
-0.00201663
1.58554e-05
-0.00201498
1.86288e-06
-0.00200661
-1.1145e-05
-0.00199116
-2.45451e-05
-0.00196878
-3.78359e-05
-0.00193965
-5.08744e-05
-0.00190402
-6.35578e-05
-0.00186219
-7.57784e-05
-0.00181448
-8.74651e-05
-0.00176128
-9.85268e-05
-0.00170298
-0.000108907
-0.00164001
-0.000118543
-0.00157283
-0.000127369
-0.0015019
-0.000135369
-0.00142769
-0.00014249
-0.0013507
-0.000148713
-0.0012714
-0.00015402
-0.00119028
-0.000158399
-0.00110782
-0.000161843
-0.00102449
-0.000164381
-0.000940745
-0.000166001
-0.000857062
-0.000166694
-0.000773848
-0.000166548
-0.000691542
-0.000165496
-0.000610439
-0.000163787
-0.000531012
-0.000161168
-0.000453602
-0.000157861
-0.000378488
-0.000153845
-0.000305957
-0.000149264
-0.000236219
-0.000144128
-0.000169588
-0.000138411
-0.000106177
-0.00013229
-4.63287e-05
-0.000125629
1.00798e-05
-0.000118861
6.25645e-05
-0.000111485
0.000111427
-0.000104197
0.000156193
-9.63422e-05
0.000197328
-8.87893e-05
0.00023446
-8.09463e-05
0.000267629
-7.29113e-05
0.000296976
-6.51186e-05
0.0003226
-5.75301e-05
0.000344528
-4.9919e-05
0.00036289
-4.25004e-05
0.000377784
-3.52607e-05
0.000389214
-2.81283e-05
0.00039744
-2.13624e-05
0.000402815
-1.50632e-05
0.000405131
-8.80169e-06
0.00040494
-3.14832e-06
0.000402443
1.98447e-06
0.000397532
6.93369e-06
0.000390465
1.15872e-05
0.000381433
1.58869e-05
0.000370615
1.98281e-05
0.000358182
2.34149e-05
0.000344321
2.66297e-05
0.000329193
2.94963e-05
0.000312973
3.20046e-05
0.000295817
3.41729e-05
0.000277887
3.60131e-05
0.00025933
3.75183e-05
0.000240287
3.87328e-05
0.000220884
3.96574e-05
0.000201273
4.02794e-05
0.000181557
4.06643e-05
0.000161853
4.08026e-05
0.00014226
4.07023e-05
0.000122868
4.04033e-05
0.000103787
3.98795e-05
8.5083e-05
3.92098e-05
6.68224e-05
3.83524e-05
4.90813e-05
3.73578e-05
3.19189e-05
3.62292e-05
1.53534e-05
3.50007e-05
-5.23491e-07
3.36488e-05
-1.57092e-05
3.22317e-05
-3.01511e-05
3.07248e-05
-4.38309e-05
2.91555e-05
-5.67356e-05
2.7554e-05
-6.88426e-05
2.59013e-05
-8.01591e-05
2.42397e-05
-9.06713e-05
2.25597e-05
-0.000100379
2.08752e-05
-0.000109288
1.91887e-05
-0.000117394
1.75076e-05
-0.000124727
1.58707e-05
-0.000131284
1.42383e-05
-0.000137105
1.26593e-05
-0.00014218
1.10977e-05
-0.000146563
9.60546e-06
-0.000150255
8.1451e-06
-0.000153282
6.73195e-06
-0.000155685
5.3895e-06
-0.000157488
4.10249e-06
-0.000158717
2.87601e-06
-0.000159405
1.71138e-06
-0.000159576
6.01692e-07
-0.000159276
-4.03147e-07
-0.000158527
-1.36746e-06
-0.000157359
-2.26892e-06
-0.000155803
-3.10589e-06
-0.000153891
-3.87725e-06
-0.000151652
-4.58295e-06
-0.000149118
-5.22525e-06
-0.000146316
-5.80471e-06
-0.000143277
-6.32174e-06
-0.000140029
-6.77893e-06
-0.000136598
-7.17835e-06
-0.00013301
-7.52347e-06
-0.000129291
-7.81331e-06
-0.000125465
-8.05269e-06
-0.000121551
-8.24669e-06
-0.000117573
-8.39301e-06
-0.00011355
-8.49639e-06
-0.0001095
-8.56026e-06
-0.000105442
-8.58436e-06
-0.000101394
-8.57203e-06
-9.73693e-05
-8.52674e-06
-9.33846e-05
-8.44867e-06
-8.94531e-05
-8.34184e-06
-8.55861e-05
-8.21044e-06
-8.17951e-05
-8.05456e-06
-7.80876e-05
-7.8818e-06
-7.44707e-05
-7.6931e-06
-7.09514e-05
-7.48937e-06
-6.75328e-05
-7.27768e-06
-6.42204e-05
-7.05444e-06
-6.10159e-05
-6.82685e-06
-5.79225e-05
-6.59242e-06
-5.49411e-05
-6.35566e-06
-5.20731e-05
-6.11657e-06
-4.9317e-05
-5.87974e-06
-4.66716e-05
-5.64519e-06
-4.41354e-05
-5.41352e-06
-4.17048e-05
-5.18837e-06
-3.93772e-05
-4.96858e-06
-3.71502e-05
-4.75374e-06
-3.50218e-05
-4.54335e-06
-3.29901e-05
-4.3379e-06
-3.10532e-05
-4.13728e-06
-2.92075e-05
-3.94477e-06
-2.74487e-05
-3.76185e-06
-2.57697e-05
-3.59384e-06
-2.41618e-05
-3.44359e-06
-2.26147e-05
-3.31427e-06
-2.11174e-05
-3.20718e-06
-1.96576e-05
-3.12417e-06
-1.82254e-05
-3.06123e-06
-1.68129e-05
-3.01353e-06
-1.5416e-05
-2.97358e-06
-1.40362e-05
-2.93062e-06
-1.26803e-05
-2.87435e-06
-1.13598e-05
-2.79545e-06
-1.00902e-05
-2.68635e-06
-8.8888e-06
-2.54329e-06
-7.77321e-06
-2.36672e-06
-6.75532e-06
-2.16785e-06
-5.83954e-06
-1.96171e-06
-5.01996e-06
-1.76781e-06
-4.27794e-06
-1.61005e-06
-3.58496e-06
-1.50715e-06
-2.90995e-06
-1.46432e-06
-2.22447e-06
-1.47618e-06
-1.51074e-06
-1.52307e-06
-7.67205e-07
-1.57776e-06
-1.62137e-06
-4.82953e-05
0.000173071
-9.73567e-05
0.000175091
-0.000147776
0.000178139
-0.000200226
0.000181979
-0.000254983
0.000186167
-0.000311978
0.000190474
-0.00037217
0.000195734
-0.000435405
0.000200884
-0.000501884
0.000206353
-0.000571991
0.000212139
-0.000645719
0.000217599
-0.000723143
0.000223193
-0.000804039
0.000228198
-0.000888193
0.000232534
-0.000975245
0.000236285
-0.00106461
0.000238863
-0.00115596
0.000240404
-0.00124834
0.000240462
-0.00134108
0.000239088
-0.0014333
0.000236011
-0.00152408
0.000231136
-0.00161244
0.000224353
-0.0016974
0.000215644
-0.00177794
0.000204934
-0.00185302
0.000192295
-0.00192187
0.000177823
-0.00198362
0.000161592
-0.00203742
0.000143652
-0.00208271
0.000124449
-0.00211886
0.000103822
-0.00214574
8.22898e-05
-0.00216313
6.02674e-05
-0.00217069
3.71345e-05
-0.00216832
1.34849e-05
-0.00215736
-9.09711e-06
-0.002137
-3.15063e-05
-0.0021079
-5.3641e-05
-0.00207053
-7.52077e-05
-0.00202538
-9.60223e-05
-0.00197298
-0.000115958
-0.00191391
-0.000134854
-0.00184875
-0.000152625
-0.00177812
-0.000169149
-0.00170266
-0.000184367
-0.00162299
-0.000198212
-0.00153976
-0.000210607
-0.00145355
-0.000221579
-0.00136502
-0.000231014
-0.00127472
-0.000239018
-0.00118326
-0.000245474
-0.00109121
-0.000250449
-0.000999059
-0.000253996
-0.00090729
-0.000256151
-0.000816422
-0.000256869
-0.000726954
-0.000256162
-0.000639201
-0.0002543
-0.00055363
-0.000251068
-0.000470524
-0.000246893
-0.000390351
-0.000241341
-0.000313153
-0.000235058
-0.000239287
-0.000227711
-0.000168957
-0.000219594
-0.000102377
-0.000210708
-3.98181e-05
-0.00020097
1.88444e-05
-0.000190952
7.34062e-05
-0.000180191
0.000123748
-0.000169203
0.000169794
-0.000157532
0.000211744
-0.000146147
0.000249495
-0.000134093
0.000282957
-0.000122252
0.00031255
-0.000110539
0.000338342
-9.8703e-05
0.00036026
-8.70372e-05
0.000378277
-7.55469e-05
0.000392719
-6.43609e-05
0.000403848
-5.36296e-05
0.000411831
-4.3244e-05
0.000416862
-3.31593e-05
0.000418898
-2.33984e-05
0.000418332
-1.44969e-05
0.000415229
-5.69835e-06
0.000410267
1.81377e-06
0.000403072
9.17935e-06
0.000393909
1.60963e-05
0.000383011
2.24854e-05
0.000370568
2.83294e-05
0.000356765
3.36318e-05
0.000341758
3.84219e-05
0.000325728
4.2659e-05
0.000308822
4.64025e-05
0.000291209
4.96182e-05
0.000273013
5.23689e-05
0.000254367
5.46585e-05
0.000235408
5.64779e-05
0.000216255
5.78851e-05
0.000197029
5.88836e-05
0.000177815
5.94937e-05
0.000158717
5.97626e-05
0.000139825
5.96937e-05
0.00012124
5.92873e-05
0.000103019
5.86248e-05
8.52184e-05
5.768e-05
6.79234e-05
5.65048e-05
5.11273e-05
5.51485e-05
3.49247e-05
5.35604e-05
1.93566e-05
5.17972e-05
4.45004e-06
4.99073e-05
-9.77048e-06
4.78693e-05
-2.32855e-05
4.57467e-05
-3.60732e-05
4.35125e-05
-4.81181e-05
4.12004e-05
-5.9418e-05
3.88539e-05
-6.99732e-05
3.64564e-05
-7.97592e-05
3.40258e-05
-8.88039e-05
3.16043e-05
-9.71081e-05
2.91794e-05
-0.000104666
2.67464e-05
-0.000111511
2.43529e-05
-0.000117651
2.20105e-05
-0.000123099
1.96861e-05
-0.000127875
1.74361e-05
-0.000132001
1.52229e-05
-0.000135498
1.31031e-05
-0.000138396
1.10431e-05
-0.000140721
9.05619e-06
-0.000142482
7.15074e-06
-0.000143715
5.33613e-06
-0.000144454
3.61467e-06
-0.000144729
1.98657e-06
-0.000144577
4.49085e-07
-0.000144004
-9.75638e-07
-0.000143046
-2.3258e-06
-0.000141731
-3.58401e-06
-0.000140087
-4.75005e-06
-0.000138141
-5.82277e-06
-0.000135922
-6.80233e-06
-0.000133455
-7.69209e-06
-0.000130767
-8.49284e-06
-0.000127883
-9.20516e-06
-0.000124829
-9.83287e-06
-0.000121629
-1.03791e-05
-0.000118303
-1.08489e-05
-0.000114875
-1.12411e-05
-0.000111365
-1.1563e-05
-0.00010779
-1.18219e-05
-0.000104168
-1.20145e-05
-0.000100517
-1.21475e-05
-9.68521e-05
-1.22256e-05
-9.31884e-05
-1.2248e-05
-8.95412e-05
-1.22193e-05
-8.59239e-05
-1.2144e-05
-8.23503e-05
-1.20223e-05
-7.88321e-05
-1.186e-05
-7.53794e-05
-1.16632e-05
-7.20016e-05
-1.14324e-05
-6.87045e-05
-1.11788e-05
-6.54936e-05
-1.09041e-05
-6.23735e-05
-1.06094e-05
-5.93465e-05
-1.03047e-05
-5.64165e-05
-9.98447e-06
-5.35849e-05
-9.65841e-06
-5.08541e-05
-9.32324e-06
-4.82252e-05
-8.98451e-06
-4.56991e-05
-8.64269e-06
-4.32748e-05
-8.30401e-06
-4.09503e-05
-7.96968e-06
-3.87231e-05
-7.64077e-06
-3.6589e-05
-7.32244e-06
-3.45449e-05
-7.01276e-06
-3.25884e-05
-6.71019e-06
-3.07185e-05
-6.41321e-06
-2.89346e-05
-6.12181e-06
-2.72363e-05
-5.83559e-06
-2.56216e-05
-5.55947e-06
-2.4087e-05
-5.29643e-06
-2.2626e-05
-5.05488e-06
-2.12298e-05
-4.83978e-06
-1.9888e-05
-4.65612e-06
-1.85885e-05
-4.50664e-06
-1.73186e-05
-4.39411e-06
-1.60669e-05
-4.31291e-06
-1.48246e-05
-4.25577e-06
-1.3587e-05
-4.21127e-06
-1.23549e-05
-4.16265e-06
-1.11363e-05
-4.09299e-06
-9.94387e-06
-3.98785e-06
-8.79536e-06
-3.83486e-06
-7.71008e-06
-3.62856e-06
-6.70909e-06
-3.36771e-06
-5.80748e-06
-3.06946e-06
-5.01259e-06
-2.75659e-06
-4.31899e-06
-2.46141e-06
-3.70519e-06
-2.22385e-06
-3.13742e-06
-2.07492e-06
-2.57865e-06
-2.02309e-06
-1.99407e-06
-2.06076e-06
-1.36358e-06
-2.15355e-06
-6.9618e-07
-2.24516e-06
-2.31755e-06
-2.487e-05
0.000197941
-5.0923e-05
0.000201144
-7.91421e-05
0.000206358
-0.000110437
0.000213274
-0.000146217
0.000221946
-0.000187833
0.000232091
-0.000235735
0.000243635
-0.000290936
0.000256085
-0.000353932
0.000269349
-0.000424936
0.000283143
-0.000503982
0.000296645
-0.000590854
0.000310065
-0.000685893
0.000323236
-0.000788588
0.00033523
-0.000897962
0.000345659
-0.00101327
0.000354168
-0.00113333
0.000360473
-0.00125715
0.000364278
-0.00138276
0.000364701
-0.0015089
0.00036215
-0.00163357
0.000355808
-0.00175506
0.000345838
-0.00187155
0.00033213
-0.00198136
0.000314744
-0.00208254
0.000293475
-0.00217366
0.000268945
-0.00225331
0.000241241
-0.00232018
0.000210521
-0.00237366
0.000177935
-0.00241351
0.000143666
-0.00243858
0.000107364
-0.00244854
7.02209e-05
-0.00244403
3.26273e-05
-0.00242671
-3.83524e-06
-0.00239744
-3.83698e-05
-0.00235653
-7.24139e-05
-0.00230488
-0.000105289
-0.00224342
-0.000136666
-0.00217314
-0.000166306
-0.00209502
-0.000194074
-0.00201008
-0.000219793
-0.00191929
-0.000243417
-0.0018236
-0.000264835
-0.00172393
-0.00028404
-0.00162116
-0.000300981
-0.00151609
-0.00031568
-0.00140954
-0.00032813
-0.00130216
-0.000338391
-0.00119471
-0.000346468
-0.00108786
-0.00035232
-0.000982113
-0.0003562
-0.000877943
-0.000358166
-0.000775973
-0.000358121
-0.000676722
-0.00035612
-0.000580437
-0.000352447
-0.000487502
-0.000347236
-0.000398184
-0.000340386
-0.000312921
-0.000332155
-0.000231725
-0.000322538
-0.000155063
-0.00031172
-8.27703e-05
-0.000300004
-1.52112e-05
-0.000287153
4.75776e-05
-0.000273497
0.000105612
-0.000259004
0.000158707
-0.000244047
0.00020682
-0.000228304
0.000250369
-0.000212751
0.000289165
-0.000196328
0.000323206
-0.000180188
0.000353189
-0.000164076
0.000378855
-0.000147918
0.000400076
-0.00013176
0.000417178
-0.000115806
0.000430589
-0.000100448
0.000440511
-8.54694e-05
0.000447204
-7.10537e-05
0.000450797
-5.72224e-05
0.000451394
-4.38406e-05
0.000449093
-3.08584e-05
0.00044476
-1.90658e-05
0.000437681
-7.41794e-06
0.000429435
2.54829e-06
0.000418951
1.22975e-05
0.000406736
2.13939e-05
0.000393051
2.97816e-05
0.000378108
3.7428e-05
0.000362064
4.43732e-05
0.000345083
5.06135e-05
0.000327372
5.6133e-05
0.000309017
6.10134e-05
0.00029021
6.52099e-05
0.000271044
6.87841e-05
0.0002517
7.17126e-05
0.000232241
7.41179e-05
0.000212778
7.59413e-05
0.000193427
7.72359e-05
0.000174249
7.80608e-05
0.000155377
7.83662e-05
0.000136802
7.83379e-05
0.00011863
7.78657e-05
0.000100898
7.70193e-05
8.36984e-05
7.5824e-05
6.70349e-05
7.43436e-05
5.09692e-05
7.25704e-05
3.55376e-05
7.05801e-05
2.07802e-05
6.83178e-05
6.66804e-06
6.59093e-05
-6.74662e-06
6.3322e-05
-1.94454e-05
6.05681e-05
-3.14263e-05
5.77276e-05
-4.26946e-05
5.47808e-05
-5.32355e-05
5.17412e-05
-6.30598e-05
4.86783e-05
-7.21335e-05
4.55301e-05
-8.05245e-05
4.24168e-05
-8.8207e-05
3.92868e-05
-9.52007e-05
3.61731e-05
-0.000101532
3.30778e-05
-0.000107188
3.0009e-05
-0.000112203
2.70249e-05
-0.000116618
2.41012e-05
-0.000120404
2.12228e-05
-0.000123636
1.8454e-05
-0.000126306
1.57732e-05
-0.00012844
1.31772e-05
-0.000130069
1.0685e-05
-0.000131226
8.30768e-06
-0.000131932
6.0427e-06
-0.00013221
3.89266e-06
-0.000132079
1.8549e-06
-0.000131587
-4.27297e-08
-0.000130736
-1.82671e-06
-0.00012956
-3.50156e-06
-0.000128085
-5.05905e-06
-0.000126335
-6.50005e-06
-0.000124334
-7.82317e-06
-0.000122108
-9.02874e-06
-0.000119679
-1.01212e-05
-0.00011707
-1.11013e-05
-0.000114306
-1.19699e-05
-0.000111407
-1.27318e-05
-0.000108395
-1.33913e-05
-0.000105288
-1.39552e-05
-0.000102107
-1.44226e-05
-9.88669e-05
-1.48029e-05
-9.55828e-05
-1.5106e-05
-9.22696e-05
-1.53277e-05
-8.89408e-05
-1.54762e-05
-8.56093e-05
-1.55571e-05
-8.22883e-05
-1.55689e-05
-7.89909e-05
-1.55167e-05
-7.57292e-05
-1.54057e-05
-7.25156e-05
-1.52359e-05
-6.93608e-05
-1.50147e-05
-6.62736e-05
-1.47504e-05
-6.32616e-05
-1.44443e-05
-6.03291e-05
-1.41114e-05
-5.74791e-05
-1.3754e-05
-5.47144e-05
-1.33741e-05
-5.20357e-05
-1.29834e-05
-4.94458e-05
-1.25744e-05
-4.69456e-05
-1.21586e-05
-4.45372e-05
-1.17316e-05
-4.2222e-05
-1.12997e-05
-4.00013e-05
-1.08634e-05
-3.78738e-05
-1.04315e-05
-3.58369e-05
-1.00066e-05
-3.38872e-05
-9.59051e-06
-3.20189e-05
-9.19073e-06
-3.0228e-05
-8.80368e-06
-2.85123e-05
-8.42588e-06
-2.68718e-05
-8.05373e-06
-2.53077e-05
-7.68589e-06
-2.38216e-05
-7.32163e-06
-2.24135e-05
-6.96758e-06
-2.10807e-05
-6.6293e-06
-1.98169e-05
-6.31867e-06
-1.8613e-05
-6.04368e-06
-1.74581e-05
-5.811e-06
-1.63391e-05
-5.62562e-06
-1.5242e-05
-5.4912e-06
-1.41539e-05
-5.40107e-06
-1.30642e-05
-5.34541e-06
-1.19671e-05
-5.30843e-06
-1.08633e-05
-5.26638e-06
-9.76198e-06
-5.19433e-06
-8.67717e-06
-5.07266e-06
-7.62978e-06
-4.88225e-06
-6.64112e-06
-4.61722e-06
-5.73676e-06
-4.27207e-06
-4.9359e-06
-3.87032e-06
-4.25042e-06
-3.44208e-06
-3.67584e-06
-3.03598e-06
-3.18731e-06
-2.71239e-06
-2.74284e-06
-2.51938e-06
-2.29634e-06
-2.4696e-06
-1.80365e-06
-2.55345e-06
-1.24235e-06
-2.71485e-06
-6.36835e-07
-2.85068e-06
-2.95438e-06
2.51768e-05
0.000172764
4.85445e-05
0.000177776
6.78286e-05
0.000187073
8.01446e-05
0.000200958
8.3508e-05
0.000218582
7.57896e-05
0.000239809
5.55532e-05
0.000263872
2.05985e-05
0.000291039
-3.05007e-05
0.000320448
-9.87225e-05
0.000351365
-0.000184995
0.000382917
-0.000289047
0.000414117
-0.000409986
0.000444176
-0.000546916
0.00047216
-0.000698397
0.00049714
-0.000862524
0.000518295
-0.00103683
0.000534779
-0.00121852
0.000545968
-0.00140509
0.000551274
-0.00159299
0.000550045
-0.00177915
0.000541966
-0.00195998
0.000526667
-0.00213195
0.000504103
-0.00229144
0.000474235
-0.00243538
0.00043742
-0.00256058
0.000394138
-0.00266475
0.000345416
-0.00274652
0.000292286
-0.0028049
0.000236319
-0.00283982
0.000178584
-0.00285265
0.000120192
-0.0028435
6.10696e-05
-0.00281402
3.14862e-06
-0.00276867
-4.91874e-05
-0.0027069
-0.000100132
-0.00263109
-0.00014823
-0.00254323
-0.000193144
-0.00244513
-0.000234773
-0.00233846
-0.000272968
-0.00222481
-0.000307728
-0.00210561
-0.00033899
-0.00198221
-0.000366817
-0.00185581
-0.000391242
-0.00172746
-0.000412392
-0.00159815
-0.000430282
-0.00146892
-0.000444916
-0.00134038
-0.000456668
-0.00121341
-0.000465367
-0.00108875
-0.000471128
-0.000966865
-0.0004742
-0.000848232
-0.000474833
-0.00073331
-0.000473088
-0.000622665
-0.000468766
-0.000516486
-0.000462299
-0.000415014
-0.000453919
-0.00031868
-0.00044357
-0.000227682
-0.000431384
-0.000141995
-0.000417842
-6.19635e-05
-0.000402569
1.26736e-05
-0.000386357
8.13234e-05
-0.000368654
0.00014435
-0.00035018
0.000201625
-0.000330772
0.000253056
-0.000310436
0.000299223
-0.000290215
0.000340045
-0.000269126
0.000375152
-0.000247858
0.000405958
-0.000227133
0.000431807
-0.000206038
0.000452784
-0.000185053
0.000469285
-0.000164419
0.000481623
-0.000144098
0.00049029
-0.000124473
0.000495491
-0.000105649
0.000497456
-8.74344e-05
0.000496273
-6.98702e-05
0.000491862
-5.28111e-05
0.000485116
-3.70954e-05
0.000476319
-2.20609e-05
0.000465274
-8.02102e-06
0.000453221
4.63491e-06
0.000439047
1.67223e-05
0.000423419
2.79258e-05
0.000406607
3.82056e-05
0.000388848
4.75407e-05
0.000370216
5.606e-05
0.00035098
6.36088e-05
0.000331282
7.03119e-05
0.000311201
7.62138e-05
0.000290959
8.12558e-05
0.000270588
8.55802e-05
0.000250293
8.90793e-05
0.000230067
9.19388e-05
0.000210053
9.41316e-05
0.000190356
9.56384e-05
0.000171018
9.65739e-05
0.000152086
9.69928e-05
0.000133628
9.68246e-05
0.000115689
9.62773e-05
9.8321e-05
9.52333e-05
8.15378e-05
9.38025e-05
6.54087e-05
9.19531e-05
4.98989e-05
8.98534e-05
3.50699e-05
8.73993e-05
2.09855e-05
8.46645e-05
7.54249e-06
8.17609e-05
-5.15948e-06
7.86113e-05
-1.71411e-05
7.53036e-05
-2.84361e-05
7.18631e-05
-3.89921e-05
6.82836e-05
-4.88246e-05
6.46133e-05
-5.7947e-05
6.08637e-05
-6.63922e-05
5.71235e-05
-7.41632e-05
5.33011e-05
-8.12586e-05
4.95122e-05
-8.77e-05
4.57282e-05
-9.35072e-05
4.19803e-05
-9.86977e-05
3.82683e-05
-0.000103307
3.46181e-05
-0.000107318
3.10358e-05
-0.000110772
2.75551e-05
-0.000113713
2.41641e-05
-0.000116133
2.08741e-05
-0.000118058
1.76988e-05
-0.000119515
1.46341e-05
-0.000120536
1.17061e-05
-0.000121152
8.92358e-06
-0.00012138
6.27053e-06
-0.000121243
3.75531e-06
-0.000120752
1.36382e-06
-0.000119966
-8.28914e-07
-0.000118877
-2.91522e-06
-0.000117516
-4.86291e-06
-0.000115905
-6.66957e-06
-0.000114067
-8.33793e-06
-0.000112024
-9.86665e-06
-0.000109796
-1.12563e-05
-0.000107405
-1.25121e-05
-0.000104872
-1.36348e-05
-0.000102217
-1.46251e-05
-9.94594e-05
-1.5489e-05
-9.66189e-05
-1.62318e-05
-9.37118e-05
-1.68624e-05
-9.07541e-05
-1.73802e-05
-8.77593e-05
-1.77977e-05
-8.47383e-05
-1.8127e-05
-8.17029e-05
-1.83631e-05
-7.86637e-05
-1.85154e-05
-7.56308e-05
-1.859e-05
-7.26156e-05
-1.85842e-05
-6.96293e-05
-1.85029e-05
-6.66834e-05
-1.83517e-05
-6.37896e-05
-1.81297e-05
-6.09582e-05
-1.78462e-05
-5.81968e-05
-1.75118e-05
-5.55117e-05
-1.71294e-05
-5.29049e-05
-1.67181e-05
-5.03775e-05
-1.62814e-05
-4.793e-05
-1.58216e-05
-4.55614e-05
-1.5352e-05
-4.32734e-05
-1.48623e-05
-4.10667e-05
-1.43654e-05
-3.89435e-05
-1.38548e-05
-3.6906e-05
-1.33372e-05
-3.49557e-05
-1.28137e-05
-3.30922e-05
-1.22951e-05
-3.13121e-05
-1.17867e-05
-2.961e-05
-1.12926e-05
-2.79783e-05
-1.08224e-05
-2.64116e-05
-1.03704e-05
-2.49078e-05
-9.92971e-06
-2.34681e-05
-9.49343e-06
-2.20963e-05
-9.05764e-06
-2.07966e-05
-8.62136e-06
-1.95709e-05
-8.19328e-06
-1.8417e-05
-7.78319e-06
-1.73292e-05
-7.40649e-06
-1.62972e-05
-7.07568e-06
-1.531e-05
-6.79823e-06
-1.43531e-05
-6.58245e-06
-1.34115e-05
-6.43287e-06
-1.247e-05
-6.34249e-06
-1.15164e-05
-6.29905e-06
-1.05433e-05
-6.28149e-06
-9.55139e-06
-6.25834e-06
-8.55132e-06
-6.1944e-06
-7.55787e-06
-6.06611e-06
-6.59615e-06
-5.84397e-06
-5.68823e-06
-5.52514e-06
-4.8654e-06
-5.0949e-06
-4.151e-06
-4.58472e-06
-3.5628e-06
-4.03028e-06
-3.09778e-06
-3.50101e-06
-2.72803e-06
-3.08214e-06
-2.40157e-06
-2.84584e-06
-2.06034e-06
-2.81083e-06
-1.6482e-06
-2.96559e-06
-1.14292e-06
-3.22013e-06
-5.85378e-07
-3.40822e-06
-3.53976e-06
0.000113123
5.96413e-05
0.000224494
6.64052e-05
0.000328465
8.31026e-05
0.000421112
0.00010831
0.000497523
0.000142171
0.000552897
0.000184435
0.000581798
0.00023497
0.000580149
0.000292689
0.000544555
0.000356042
0.000473732
0.000422188
0.000368813
0.000487836
0.000231221
0.000551709
6.34697e-05
0.000611927
-0.000131644
0.000667273
-0.000351338
0.000716834
-0.000591398
0.000758355
-0.000848779
0.00079216
-0.00111857
0.000815756
-0.00139554
0.00082825
-0.0016752
0.000829699
-0.00195133
0.000818101
-0.00221859
0.000793923
-0.00247086
0.000756371
-0.00270198
0.000705354
-0.00290669
0.000642138
-0.0030794
0.000566849
-0.00321628
0.000482297
-0.00331388
0.000389882
-0.0033703
0.000292742
-0.00338725
0.000195535
-0.0033678
0.000100742
-0.00331599
9.25842e-06
-0.00324387
-6.89787e-05
-0.00314969
-0.000143367
-0.00303781
-0.000212007
-0.00291154
-0.000274502
-0.00277389
-0.000330787
-0.00262763
-0.00038104
-0.0024752
-0.000425397
-0.00231867
-0.000464254
-0.00215992
-0.000497746
-0.00200034
-0.000526398
-0.00184125
-0.000550327
-0.00168387
-0.000569771
-0.001529
-0.000585151
-0.00137729
-0.000596627
-0.00122936
-0.000604601
-0.001086
-0.000608721
-0.000947383
-0.000609749
-0.000813916
-0.000607668
-0.000686009
-0.00060274
-0.000564262
-0.000594835
-0.000448464
-0.000584564
-0.000338769
-0.000571993
-0.000235708
-0.00055698
-0.000138997
-0.000540281
-4.94537e-05
-0.000520927
3.37708e-05
-0.000501067
0.000109694
-0.000478493
0.000179345
-0.000456007
0.000242222
-0.000431531
0.000298437
-0.000406395
0.000348483
-0.000380818
0.000392444
-0.000354397
0.000429792
-0.000327562
0.000462023
-0.000301357
0.000489038
-0.000274874
0.000510429
-0.000248524
0.000526854
-0.000222462
0.000538701
-0.0001969
0.000546418
-0.000172136
0.000550385
-0.000148065
0.000550758
-0.000124845
0.000547699
-0.00010259
0.000541239
-8.09749e-05
0.000532301
-6.09315e-05
0.000521458
-4.19684e-05
0.000508008
-2.36456e-05
0.000492996
-7.04816e-06
0.000476968
8.00637e-06
0.000459202
2.24014e-05
0.000440254
3.56702e-05
0.00042039
4.77902e-05
0.000399864
5.87311e-05
0.000378721
6.86842e-05
0.000357265
7.75156e-05
0.000335596
8.52782e-05
0.000313836
9.20721e-05
0.000292167
9.78825e-05
0.000270607
0.000102815
0.000249365
0.000106822
0.000228351
0.000110093
0.000207788
0.000112502
0.00018771
0.00011421
0.00016814
0.000115208
0.00014912
0.000115594
0.000130717
0.000115395
0.000112922
0.00011462
9.58371e-05
0.000113362
7.93813e-05
0.000111689
6.36696e-05
0.000109514
4.86199e-05
0.000107003
3.43569e-05
0.000104116
2.08133e-05
0.000100943
7.95892e-06
9.75188e-05
-4.13019e-06
9.385e-05
-1.55037e-05
8.99848e-05
-2.61553e-05
8.59553e-05
-3.60674e-05
8.17752e-05
-4.52702e-05
7.74863e-05
-5.38076e-05
7.31507e-05
-6.16594e-05
6.87154e-05
-6.88519e-05
6.43161e-05
-7.54099e-05
5.9859e-05
-8.13441e-05
5.54464e-05
-8.66773e-05
5.10614e-05
-9.14303e-05
4.67333e-05
-9.56236e-05
4.24616e-05
-9.92798e-05
3.82743e-05
-0.000102435
3.41907e-05
-0.000105085
3.02055e-05
-0.000107249
2.6328e-05
-0.000108965
2.25897e-05
-0.000110256
1.89899e-05
-0.000111148
1.55258e-05
-0.000111654
1.22125e-05
-0.000111812
9.08216e-06
-0.000111639
6.09705e-06
-0.000111151
3.26713e-06
-0.000110392
6.05238e-07
-0.000109361
-1.86052e-06
-0.000108083
-4.19283e-06
-0.000106581
-6.36492e-06
-0.000104874
-8.3762e-06
-0.000102982
-1.02306e-05
-0.000100922
-1.19264e-05
-9.8714e-05
-1.34643e-05
-9.63758e-05
-1.48502e-05
-9.39262e-05
-1.60845e-05
-9.13841e-05
-1.71672e-05
-8.8768e-05
-1.81052e-05
-8.60946e-05
-1.89051e-05
-8.33786e-05
-1.95784e-05
-8.06335e-05
-2.01253e-05
-7.78695e-05
-2.05618e-05
-7.50943e-05
-2.09022e-05
-7.23163e-05
-2.1141e-05
-6.95433e-05
-2.12884e-05
-6.6783e-05
-2.13504e-05
-6.40449e-05
-2.13223e-05
-6.13391e-05
-2.12087e-05
-5.86767e-05
-2.1014e-05
-5.60697e-05
-2.07367e-05
-5.35282e-05
-2.03878e-05
-5.10594e-05
-1.99806e-05
-4.86679e-05
-1.95209e-05
-4.63539e-05
-1.90322e-05
-4.41157e-05
-1.85196e-05
-4.19517e-05
-1.79857e-05
-3.98591e-05
-1.74446e-05
-3.78388e-05
-1.68826e-05
-3.58913e-05
-1.63129e-05
-3.40196e-05
-1.57265e-05
-3.22261e-05
-1.51306e-05
-3.05147e-05
-1.45252e-05
-2.88852e-05
-1.39245e-05
-2.73332e-05
-1.33386e-05
-2.58516e-05
-1.27742e-05
-2.44298e-05
-1.22442e-05
-2.30607e-05
-1.17395e-05
-2.17418e-05
-1.12486e-05
-2.04762e-05
-1.0759e-05
-1.92712e-05
-1.02627e-05
-1.81335e-05
-9.75906e-06
-1.70677e-05
-9.25906e-06
-1.60711e-05
-8.77976e-06
-1.51389e-05
-8.33872e-06
-1.42587e-05
-7.95588e-06