#              y        d.bubbles                p       alpha.air1       alpha.air2       alpha.air3    alpha.bubbles
           0.015    0.00305600394       107406.475   2.37917934e-48   5.73421596e-46   6.17921175e-64            3e-06
           0.025    0.00305600394       107305.726   6.25696257e-38   1.67556258e-36   2.91903592e-54            3e-06
           0.035    0.00305600394       107204.976   2.27061366e-16   1.14685835e-25   3.20217449e-31            3e-06
           0.045    0.00300031955       107121.368      0.340864494   1.59186639e-10   4.80710395e-16      0.340866494
           0.055       0.00300096       107053.803       0.31895627    1.7186845e-08   1.81408307e-15       0.31895827
           0.065    0.00300160515       106985.254       0.32107255   1.12165766e-07   1.39783646e-14       0.32107455
           0.075     0.0030022504       106916.791      0.320618322   4.21573663e-07   1.07252602e-13      0.320620322
           0.085    0.00300289614       106848.312      0.320785598   1.19682544e-06   6.12028423e-13      0.320787795
           0.095    0.00300354233       106779.852      0.320976558   2.83719687e-06   2.70461905e-12      0.320980395
           0.105     0.0030041889       106711.413      0.321188606   5.92463489e-06   9.83234716e-12       0.32119553
           0.115    0.00300483585       106642.995      0.321403365   1.12527682e-05   3.07314081e-11      0.321415617
           0.125     0.0030054832         106574.6      0.321616911   1.98519278e-05   8.51861668e-11      0.321637763
           0.135    0.00300613097       106506.227      0.321826433   3.30085208e-05   2.14154114e-10      0.321860441
           0.145    0.00300677918       106437.877      0.322029965   5.22788231e-05   4.96433791e-10      0.322083244
           0.155    0.00300742781       106369.549      0.322225506   7.94968835e-05   1.07465524e-09      0.322306003
           0.165    0.00300807691       106301.243       0.32241088   0.000116776733   2.19400561e-09      0.322528656
           0.175    0.00300872646        106232.96      0.322583657   0.000166509507   4.25775978e-09      0.322751166
           0.185    0.00300937647         106164.7      0.322741253   0.000231355733   7.90431118e-09      0.322973608
           0.195    0.00301002696       106096.461      0.322880786   0.000314228165   1.41105307e-08      0.323196014
           0.205    0.00301067796       106028.245      0.322997061   0.000418279761   2.43291531e-08      0.323416341
           0.215    0.00301132937       105960.052      0.323092404   0.000547002929   4.06767499e-08      0.323640407
           0.225    0.00301198129       105891.883        0.3231972    0.00070382091   6.61122956e-08      0.323902021
           0.235    0.00301263375       105823.737        0.3232026   0.000892356633   1.04727644e-07      0.324095957
           0.245    0.00301328686       105755.611      0.323188634    0.00111661501   1.62118309e-07      0.324306249
           0.255    0.00301394032       105687.507      0.323143001    0.00138065104   2.45751507e-07      0.324524652
           0.265    0.00301459434       105619.424      0.323051742    0.00168851057   3.65420555e-07      0.324741253
           0.275    0.00301524891       105551.364      0.322912931    0.00204434227   5.33815894e-07      0.324958273
           0.285    0.00301590404       105483.326       0.32272188    0.00245229297    7.6714005e-07      0.325175173
           0.295    0.00301655979       105415.309      0.322474516    0.00291650507   1.08583107e-06      0.325392107
           0.305    0.00301721623       105347.315      0.322166766    0.00344106358   1.51535885e-06      0.325609345
           0.315    0.00301787331       105279.342      0.321794476    0.00402997385   2.08712709e-06      0.325826537
           0.325    0.00301853105       105211.391       0.32135353    0.00468714701   2.83948698e-06      0.326043517
           0.335    0.00301918948       105143.462      0.320840016    0.00541638238   3.81885628e-06      0.326260217
           0.345    0.00301984863       105075.555      0.320250305    0.00622133626   5.08092289e-06      0.326476722
           0.355    0.00302050853       105007.669      0.319580983    0.00710547576   6.69190864e-06      0.326693151
           0.365    0.00302116919       104939.806      0.318828692    0.00807203074   8.72988636e-06      0.326909452
           0.375    0.00302183064       104871.964      0.317989988    0.00912396568   1.12861839e-05       0.32712524
           0.385    0.00302249287       104804.144      0.317061421     0.0102639889   1.44669444e-05      0.327339877
           0.395    0.00302315593       104736.345      0.316039839      0.011494585   1.83948676e-05      0.327552819
           0.405    0.00302381984       104668.568      0.314922733     0.0128180267   2.32110373e-05      0.327763971
           0.415    0.00302448465       104600.812      0.313708268     0.0142363392   2.90766904e-05      0.327973684
           0.425    0.00302515038       104533.077      0.312394991      0.015751244   3.61749197e-05       0.32818241
           0.435    0.00302581707       104465.363      0.310981566     0.0173641333     4.471246e-05      0.328390411
           0.445    0.00302648474        104397.67      0.309466804      0.019076074    5.4921592e-05      0.328597799
           0.455    0.00302715342       104329.998      0.307849812     0.0208877961   6.70619373e-05       0.32880467
           0.465    0.00302782314       104262.347      0.306129936     0.0227996493   8.14219877e-05      0.329011008
           0.475     0.0030284939       104194.717      0.304306549     0.0248115857   9.83206944e-05      0.329216455
           0.485    0.00302916572       104127.107      0.302379039     0.0269232271   0.000118109671      0.329420376
           0.495    0.00302983862       104059.517      0.300347185      0.029133974    0.00014117592      0.329622335
           0.505    0.00303051266       103991.948      0.298211551     0.0314430361    0.00016794407      0.329822531
           0.515    0.00303118786         103924.4      0.295973419     0.0338493346   0.000198877247      0.330021631
           0.525    0.00303186426       103856.871      0.293634272      0.036351352   0.000234476861      0.330220101
           0.535    0.00303254185       103789.362      0.291195375     0.0389470451   0.000275282341      0.330417702
           0.545    0.00303322061       103721.873      0.288657599     0.0416339824   0.000321873647      0.330613455
           0.555    0.00303390058       103654.403      0.286021983     0.0444095713   0.000374875392       0.33080643
           0.565     0.0030345818       103586.953      0.283290377     0.0472711998   0.000434960326      0.330996537
           0.575    0.00303526432       103519.522      0.280465557     0.0502161525   0.000502849328      0.331184559
           0.585    0.00303594816        103452.11      0.277550732     0.0532413799   0.000579308089      0.331371421
           0.595    0.00303663334       103384.717      0.274548906     0.0563433249    0.00066514366      0.331557374
           0.605    0.00303731984       103317.342      0.271462597     0.0595179621   0.000761204461      0.331741763
           0.615    0.00303800766       103249.986      0.268294127     0.0627610213   0.000868384387      0.331923533
           0.625    0.00303869684       103182.648      0.265046161     0.0660682133   0.000987627641      0.332102002
           0.635     0.0030393874       103115.328      0.261722014      0.069435283    0.00111992982      0.332277226
           0.645    0.00304007938       103048.026      0.258325503     0.0728578768    0.00126633391      0.332449713
           0.655     0.0030407728       102980.741      0.254860534     0.0763313693    0.00142792442      0.332619827
           0.665    0.00304146767       102913.472      0.251330805     0.0798508087    0.00160582396      0.332787438
           0.675    0.00304216399       102846.221      0.247739834     0.0834110116    0.00180119417       0.33295204
           0.685    0.00304286178       102778.986      0.244091185     0.0870067105    0.00201523823      0.333113133
           0.695    0.00304356105       102711.768      0.240388645     0.0906326329    0.00224920121      0.333270479
           0.705    0.00304426185       102644.564      0.236636218     0.0942834789    0.00250436666      0.333424063
           0.715    0.00304496417       102577.377       0.23283798     0.0979538547    0.00278205128      0.333573885
           0.725    0.00304566804       102510.204       0.22899796       0.10163824    0.00308360056        0.3337198
           0.735    0.00304637346       102443.046      0.225120118      0.105331016     0.0034103865      0.333861521
           0.745    0.00304708046       102375.902      0.221208394      0.109026517    0.00376380612      0.333998717
           0.755    0.00304778905       102308.772      0.217266739      0.112719069    0.00414527939      0.334131088
           0.765    0.00304849925       102241.654      0.213299111      0.116403005    0.00455624586      0.334258362
           0.775    0.00304921107        102174.55      0.209309438      0.120072672    0.00499816186      0.334380272
           0.785    0.00304992454       102107.457      0.205301606      0.123722478    0.00547250033      0.334496585
           0.795    0.00305063969       102040.376      0.201279498       0.12734698    0.00598075487      0.334607233
           0.805    0.00305135656       101973.306      0.197247093      0.130941003    0.00652444593      0.334712542
           0.815    0.00305207521       101906.247      0.193208577      0.134499703    0.00710512168      0.334813403
           0.825    0.00305279567       101839.197      0.189168319      0.138018471    0.00772434461      0.334911135
           0.835    0.00305351799       101772.158      0.185130549      0.141492683    0.00838367073      0.335006903
           0.845    0.00305424219       101705.128      0.181099041      0.144917548    0.00908463989      0.335101229
           0.855    0.00305496829       101638.107      0.177077423      0.148288327    0.00982878167      0.335194532
           0.865    0.00305569632       101571.096      0.173069238      0.151600412     0.0106176172      0.335287267
           0.875    0.00305642631       101504.094       0.16907792       0.15484933      0.011452655      0.335379905
           0.885    0.00305715828       101437.102      0.165106798      0.158030744     0.0123353875       0.33547293
           0.895    0.00305789225       101370.119      0.161159087      0.161140468     0.0132672882      0.335566843
           0.905    0.00305862825       101303.145      0.157237882      0.164174472     0.0142498073      0.335662162
           0.915    0.00305936628       101236.181      0.153346158      0.167128885     0.0152843688      0.335759412
           0.925    0.00306010638       101169.227       0.14948676      0.169999992     0.0163723653      0.335859117
           0.935    0.00306084856       101102.283      0.145662392       0.17278423     0.0175151526      0.335961774
           0.945    0.00306159282        101035.35      0.141875611      0.175478172     0.0187140439      0.336067827
           0.955    0.00306233919       100968.428      0.138128815      0.178078518     0.0199703027      0.336177635
           0.965    0.00306308768       100901.516      0.134424235      0.180582085     0.0212851369      0.336291457
           0.975    0.00306383828       100834.617       0.13076394      0.182985815     0.0226596953      0.336409451
           0.985    0.00306459101       100767.729      0.127149852      0.185286812       0.02409507      0.336531734
           0.995    0.00306534587       100700.854      0.123583799      0.187482431     0.0255923075      0.336658537
