/*--------------------------------*- C++ -*----------------------------------*\
  =========                 |
  \\      /  F ield         | OpenFOAM: The Open Source CFD Toolbox
   \\    /   O peration     | Website:  https://openfoam.org
    \\  /    A nd           | Version:  12
     \\/     M anipulation  |
\*---------------------------------------------------------------------------*/
FoamFile
{
    format      ascii;
    class       volVectorField;
    location    "12.64";
    object      zeta;
}
// * * * * * * * * * * * * * * * * * * * * * * * * * * * * * * * * * * * * * //

dimensions      [0 1 0 0 0 0 0];

internalField   uniform (0 0 0);

boundaryField
{
    freeSurface
    {
        type            calculated;
        value           nonuniform List<vector> 
181
(
(0 -0.00410831 0)
(0 -0.00410778 0)
(0 -0.00410724 0)
(0 -0.00410723 0)
(0 -0.0041064 0)
(0 -0.00410674 0)
(0 -0.00410591 0)
(0 -0.00410648 0)
(0 0.000500419 0)
(0 0.000487889 0)
(0 0.000467757 0)
(0 0.000446415 0)
(0 0.000407598 0)
(0 0.000365924 0)
(0 0.000313063 0)
(0 0.000254714 0)
(0 0.00018897 0)
(0 0.000117951 0)
(0 4.15874e-05 0)
(0 -3.94084e-05 0)
(0 -0.000124336 0)
(0 -0.000212379 0)
(0 -0.000302514 0)
(0 -0.000393559 0)
(0 -0.000484611 0)
(0 -0.000574702 0)
(0 -0.000663079 0)
(0 -0.000748836 0)
(0 -0.00083104 0)
(0 -0.000908732 0)
(0 -0.000980905 0)
(0 -0.00104668 0)
(0 -0.00110516 0)
(0 -0.00115563 0)
(0 -0.0011974 0)
(0 -0.00122963 0)
(0 -0.00125164 0)
(0 -0.00126284 0)
(0 -0.00126261 0)
(0 -0.00125069 0)
(0 -0.00122669 0)
(0 -0.00119043 0)
(0 -0.00114191 0)
(0 -0.00108131 0)
(0 -0.00100893 0)
(0 -0.000925268 0)
(0 -0.000830916 0)
(0 -0.00072674 0)
(0 -0.000613701 0)
(0 -0.000493149 0)
(0 -0.000366218 0)
(0 -0.000234566 0)
(0 -9.97559e-05 0)
(0 3.65233e-05 0)
(0 0.000172435 0)
(0 0.00030589 0)
(0 0.000434859 0)
(0 0.000557306 0)
(0 0.000671085 0)
(0 0.000773989 0)
(0 0.000863942 0)
(0 0.000939027 0)
(0 0.000997728 0)
(0 0.00103823 0)
(0 0.00105929 0)
(0 0.00106007 0)
(0 0.00103986 0)
(0 0.000998627 0)
(0 0.000936598 0)
(0 0.000854594 0)
(0 0.000753794 0)
(0 0.000635861 0)
(0 0.000503076 0)
(0 0.000358144 0)
(0 0.000204195 0)
(0 4.47543e-05 0)
(0 -0.000116214 0)
(0 -0.000274907 0)
(0 -0.000427201 0)
(0 -0.000568877 0)
(0 -0.000695968 0)
(0 -0.000804563 0)
(0 -0.000891439 0)
(0 -0.000953445 0)
(0 -0.000988323 0)
(0 -0.000994523 0)
(0 -0.000971139 0)
(0 -0.000918304 0)
(0 -0.000837209 0)
(0 -0.000729922 0)
(0 -0.000599543 0)
(0 -0.000449908 0)
(0 -0.000285778 0)
(0 -0.000112872 0)
(0 6.29522e-05 0)
(0 0.000235353 0)
(0 0.000397968 0)
(0 0.000544231 0)
(0 0.000668404 0)
(0 0.000765121 0)
(0 0.000830114 0)
(0 0.000860089 0)
(0 0.000853311 0)
(0 0.000809767 0)
(0 0.000731148 0)
(0 0.000620406 0)
(0 0.000482282 0)
(0 0.000323396 0)
(0 0.000151232 0)
(0 -2.5793e-05 0)
(0 -0.000198943 0)
(0 -0.000359149 0)
(0 -0.000497754 0)
(0 -0.000607423 0)
(0 -0.000681689 0)
(0 -0.000716323 0)
(0 -0.000709311 0)
(0 -0.000661014 0)
(0 -0.00057441 0)
(0 -0.000455072 0)
(0 -0.00031075 0)
(0 -0.000151222 0)
(0 1.23312e-05 0)
(0 0.000169347 0)
(0 0.000308389 0)
(0 0.000419448 0)
(0 0.00049431 0)
(0 0.000527573 0)
(0 0.000516948 0)
(0 0.000463627 0)
(0 0.000372374 0)
(0 0.000251193 0)
(0 0.000111022 0)
(0 -3.52284e-05 0)
(0 -0.000174878 0)
(0 -0.000295233 0)
(0 -0.000384845 0)
(0 -0.000435453 0)
(0 -0.000442438 0)
(0 -0.000405673 0)
(0 -0.00032955 0)
(0 -0.000222672 0)
(0 -9.7104e-05 0)
(0 3.28176e-05 0)
(0 0.000152955 0)
(0 0.000250242 0)
(0 0.000313793 0)
(0 0.000336969 0)
(0 0.000318014 0)
(0 0.000260715 0)
(0 0.000173693 0)
(0 6.9441e-05 0)
(0 -3.7221e-05 0)
(0 -0.000132388 0)
(0 -0.000203507 0)
(0 -0.000241748 0)
(0 -0.000243487 0)
(0 -0.000210791 0)
(0 -0.000151174 0)
(0 -7.64875e-05 0)
(0 -4.87136e-07 0)
(0 6.51453e-05 0)
(0 0.000110395 0)
(0 0.000130207 0)
(0 0.000124744 0)
(0 9.86443e-05 0)
(0 5.95575e-05 0)
(0 1.75365e-05 0)
(0 -1.94048e-05 0)
(0 -4.47012e-05 0)
(0 -5.56757e-05 0)
(0 -5.32631e-05 0)
(0 -4.12799e-05 0)
(0 -2.47436e-05 0)
(0 -9.23385e-06 0)
(0 1.10428e-06 0)
(0 4.12082e-06 0)
(0 3.62399e-07 0)
(0 -7.64882e-06 0)
(0 -1.62271e-05 0)
(0 -2.1719e-05 0)
)
;
    }
    walls
    {
        type            calculated;
        value           uniform (0 0 0);
    }
    floatingObject
    {
        type            calculated;
        value           uniform (0 0 0);
    }
    frontAndBack
    {
        type            empty;
    }
}


// ************************************************************************* //
