/*--------------------------------*- C++ -*----------------------------------*\
  =========                 |
  \\      /  F ield         | OpenFOAM: The Open Source CFD Toolbox
   \\    /   O peration     | Website:  https://openfoam.org
    \\  /    A nd           | Version:  12
     \\/     M anipulation  |
\*---------------------------------------------------------------------------*/
FoamFile
{
    format      ascii;
    class       surfaceScalarField;
    location    "9.06";
    object      phi;
}
// * * * * * * * * * * * * * * * * * * * * * * * * * * * * * * * * * * * * * //

dimensions      [1 0 -1 0 0 0 0];

internalField   nonuniform List<scalar> 
7429
(
8.06944e-05
-8.06945e-05
0.000162827
-8.21332e-05
0.00024539
-8.25624e-05
0.00032813
-8.27403e-05
0.000410844
-8.27149e-05
0.000493435
-8.25906e-05
0.000575993
-8.25587e-05
0.000658859
-8.28662e-05
0.000741448
-8.25887e-05
0.000823157
-8.17092e-05
0.000903531
-8.03744e-05
0.000982274
-7.8743e-05
0.00105917
-7.68942e-05
0.00113409
-7.4919e-05
0.00120705
-7.29602e-05
0.00127813
-7.10825e-05
0.00134753
-6.94059e-05
0.00141559
-6.80565e-05
0.0014827
-6.71137e-05
0.00154935
-6.6646e-05
0.00161608
-6.67341e-05
0.0016835
-6.7416e-05
0.00175223
-6.87311e-05
0.00182288
-7.0648e-05
0.00189607
-7.31888e-05
0.00197232
-7.62523e-05
0.00205213
-7.98056e-05
0.00213586
-8.37389e-05
0.0022238
-8.79313e-05
0.00231605
-9.22496e-05
0.00241257
-9.65211e-05
0.00251319
-0.000100626
0.00261757
-0.000104375
0.00272513
-0.000107567
0.00283512
-0.000109989
0.00294607
-0.000110949
0.00305749
-0.00011142
0.00316941
-0.000111916
0.00328103
-0.000111617
0.00339137
-0.000110345
0.00349922
-0.000107854
0.00360328
-0.000104059
0.00370203
-9.87426e-05
0.00379371
-9.16793e-05
0.00387684
-8.31363e-05
0.00394996
-7.31187e-05
0.00401097
-6.10039e-05
0.00405798
-4.70148e-05
0.00408958
-3.16044e-05
0.00410405
-1.44691e-05
0.0040974
6.65013e-06
0.0040687
2.87041e-05
0.00401728
5.14251e-05
0.00394241
7.48622e-05
0.00384374
9.86721e-05
0.00372098
0.000122766
0.00357437
0.000146607
0.00340417
0.000170203
0.00321116
0.00019301
0.00299599
0.000215171
0.00275982
0.000236166
0.00250382
0.000255995
0.00222959
0.000274232
0.00193913
0.000290465
0.00163465
0.000304473
0.00131899
0.000315662
0.000995061
0.000323932
0.00066618
0.000328881
0.000335996
0.000330184
8.19789e-06
0.000327798
-0.000312892
0.00032109
-0.000623456
0.000310564
-0.000919329
0.000295873
-0.00119642
0.000277088
-0.00145057
0.000254158
-0.00167782
0.000227244
-0.00187464
0.000196823
-0.0020376
0.000162956
-0.00216386
0.000126266
-0.002251
8.71392e-05
-0.00229752
4.65153e-05
-0.00230251
4.99312e-06
-0.00225853
-4.39835e-05
-0.00217013
-8.83948e-05
-0.00203944
-0.000130693
-0.00186886
-0.000170584
-0.00166126
-0.000207595
-0.00141994
-0.000241319
-0.00114919
-0.000270752
-0.000854047
-0.000295144
-0.000540366
-0.000313681
-0.000214667
-0.000325699
0.000115963
-0.00033063
0.000444259
-0.000328296
0.000762426
-0.000318167
0.00106284
-0.000300413
0.00133802
-0.000275179
0.00158066
-0.000242638
0.0017844
-0.000203745
0.00194343
-0.000159031
0.00205305
-0.00010962
0.00210997
-5.69169e-05
0.00210928
6.8874e-07
0.00204836
6.0916e-05
0.00193148
0.000116882
0.00176226
0.000169226
0.00154486
0.000217397
0.00128485
0.000260013
0.000989574
0.000295271
0.000667761
0.000321813
0.000329408
0.000338353
-1.45934e-05
0.000344002
-0.00035302
0.000338426
-0.000674247
0.000321228
-0.000967077
0.00029283
-0.00122118
0.000254106
-0.00142728
0.000206098
-0.00157773
0.000150452
-0.001667
8.92707e-05
-0.00169276
2.57533e-05
-0.00164743
-4.53259e-05
-0.0015378
-0.000109628
-0.0013698
-0.000168001
-0.00115056
-0.000219243
-0.000889581
-0.000260978
-0.000598491
-0.00029109
-0.000290834
-0.000307657
1.95939e-05
-0.000310428
0.000317772
-0.000298178
0.000589888
-0.000272116
0.000822977
-0.000233089
0.00100646
-0.000183481
0.00113233
-0.000125875
0.00119586
-6.35252e-05
0.00119379
2.06787e-06
0.00112802
6.57709e-05
0.00100731
0.000120709
0.000840895
0.000166415
0.000640833
0.000200062
0.000421478
0.000219355
0.000198325
0.000223153
-1.29027e-05
0.000211228
-0.000197702
0.000184799
-0.000343714
0.000146012
-0.000441679
9.79648e-05
-0.000486603
4.49245e-05
-0.000474741
-1.18621e-05
-0.000410951
-6.37898e-05
-0.000303909
-0.000107042
-0.00016449
-0.00013942
-6.39064e-06
-0.000158099
0.000155528
-0.000161919
0.00030566
-0.000150131
0.000430254
-0.000124595
0.000518465
-8.82109e-05
0.000563163
-4.46977e-05
0.000560695
2.46741e-06
0.000512271
4.8425e-05
0.000425995
8.62759e-05
0.000311561
0.000114433
0.000181526
0.000130036
4.95734e-05
0.000131952
-7.07944e-05
0.000120368
-0.00016788
9.70861e-05
-0.00023313
6.52495e-05
-0.000262047
2.89167e-05
-0.000252982
-9.06426e-06
-0.000210876
-4.21064e-05
-0.000143373
-6.75029e-05
-6.05764e-05
-8.27967e-05
2.58139e-05
-8.63903e-05
0.000103984
-7.81705e-05
0.000163591
-5.96065e-05
0.00019673
-3.31387e-05
0.000198381
-1.65166e-06
0.000166401
3.198e-05
0.000105247
6.11545e-05
2.10077e-05
8.42392e-05
-7.76547e-05
9.86624e-05
-0.000179881
0.000102227
-0.000274624
9.47428e-05
-0.000351385
7.67608e-05
-0.000401496
5.01108e-05
-0.000418844
1.73479e-05
-0.000399214
-1.96292e-05
-0.000343933
-5.52818e-05
-0.000256792
-8.71406e-05
-0.000144493
-0.000112299
-1.61744e-05
-0.000128319
0.00011739
-0.000133564
0.00024471
-0.00012732
0.000354697
-0.000109988
0.000437544
-8.28464e-05
0.000485506
-4.79619e-05
0.000493948
-8.44261e-06
0.000460701
3.32471e-05
0.000387932
7.27695e-05
0.000280798
0.000107134
0.000147777
0.000133021
0.000147777
0.000109893
-0.000190588
0.000222159
-0.0001944
0.000334418
-0.000194821
0.000445928
-0.000194251
0.000555906
-0.000192693
0.000663491
-0.000190176
0.000767648
-0.000186717
0.0008672
-0.000182418
0.000961993
-0.000177382
0.00105213
-0.000171851
0.00113783
-0.000166075
0.00121987
-0.000160775
0.00129955
-0.000156575
0.00137583
-0.000151207
0.0014478
-0.000144923
0.0015152
-0.000138488
0.00157819
-0.000132395
0.00163721
-0.000127079
0.00169294
-0.000122847
0.00174623
-0.000119933
0.00179807
-0.000118576
0.00184955
-0.000118897
0.00190181
-0.000120984
0.00195594
-0.000124784
0.00201303
-0.000130279
0.00207403
-0.000137251
0.00213963
-0.000145405
0.00221036
-0.000154473
0.0022863
-0.000163867
0.00236697
-0.000172924
0.00245127
-0.000180816
0.00253996
-0.000189313
0.00263429
-0.000198714
0.00273477
-0.000208043
0.0028415
-0.000216716
0.00295469
-0.000224143
0.00307317
-0.000229899
0.00319491
-0.000233659
0.00331827
-0.000234976
0.00344162
-0.00023369
0.00356319
-0.000229422
0.00368114
-0.000222019
0.0037936
-0.0002112
0.00389884
-0.000196921
0.00399474
-0.00017903
0.00407925
-0.000157629
0.00415073
-0.000132486
0.00420756
-0.000103842
0.00424789
-7.19317e-05
0.00427037
-3.69558e-05
0.00426759
9.43546e-06
0.00423879
5.7503e-05
0.00418457
0.00010564
0.00410493
0.000154501
0.00399946
0.000204152
0.0038683
0.000253923
0.00371156
0.000303349
0.00352948
0.000352282
0.0033227
0.000399787
0.00309176
0.00044611
0.00283767
0.000490256
0.00256193
0.000531736
0.00226621
0.000569952
0.0019529
0.000603781
0.00162443
0.000632936
0.00128387
0.000656225
0.000934523
0.000673281
0.000580168
0.000683235
0.00022474
0.000685613
-0.000127283
0.000679821
-0.000472173
0.000665981
-0.000804939
0.00064333
-0.00112099
0.000611928
-0.00141604
0.000572134
-0.00168564
0.000523755
-0.0019254
0.000467004
-0.00213154
0.000402964
-0.00230049
0.000331909
-0.002429
0.000254775
-0.00251462
0.000172759
-0.00255552
8.74154e-05
-0.00254639
-4.13968e-06
-0.00248966
-0.000100712
-0.00238576
-0.000192291
-0.00223649
-0.000279962
-0.00204395
-0.000363125
-0.00181136
-0.000440189
-0.00154246
-0.000510218
-0.00124208
-0.000571128
-0.000915996
-0.00062123
-0.000570613
-0.000659064
-0.000213221
-0.000683091
0.000148447
-0.000692298
0.000506394
-0.000686243
0.000852058
-0.000663831
0.00117725
-0.0006256
0.00147384
-0.000571776
0.00173393
-0.000502728
0.00195049
-0.000420302
0.00211758
-0.000326118
0.00223031
-0.000222349
0.00228463
-0.000111238
0.00227522
1.00966e-05
0.00220332
0.00013281
0.00207148
0.000248724
0.00188281
0.0003579
0.00164198
0.000458222
0.00135545
0.000546542
0.00103168
0.000619043
0.00068037
0.000673126
0.000312306
0.000706417
-6.02535e-05
0.000716561
-0.000425116
0.000703288
-0.000769508
0.00066562
-0.00108158
0.000604903
-0.00135009
0.00052262
-0.00156524
0.000421246
-0.00171901
0.000304216
-0.00180555
0.000175812
-0.00182109
4.12931e-05
-0.00176251
-0.000103908
-0.0016357
-0.000236439
-0.00144613
-0.000357569
-0.00120195
-0.000463416
-0.000914042
-0.000548891
-0.000595755
-0.000609376
-0.000261301
-0.000642111
7.296e-05
-0.000644689
0.000391653
-0.000616871
0.000679445
-0.000559908
0.000922689
-0.000476333
0.00111016
-0.000370951
0.00123363
-0.000249342
0.00128838
-0.000118276
0.0012708
1.96437e-05
0.00118699
0.000149584
0.00104429
0.00026341
0.00085317
0.000357533
0.000627659
0.000425573
0.000383843
0.000463171
0.00013882
0.000468175
-9.02565e-05
0.000440305
-0.000287786
0.000382328
-0.000440542
0.000298768
-0.000538995
0.000196418
-0.000577977
8.39063e-05
-0.000554794
-3.50449e-05
-0.000476215
-0.000142369
-0.000350934
-0.000232323
-0.000191722
-0.000298631
-1.39714e-05
-0.00033585
0.000164874
-0.000340764
0.000328599
-0.000313856
0.000462304
-0.0002583
0.000554473
-0.000180379
0.000597904
-8.81291e-05
0.000588889
1.1483e-05
0.00053161
0.000105704
0.000433772
0.000184114
0.000306734
0.000241471
0.000164588
0.000272182
2.21809e-05
0.000274359
-0.000104706
0.000247255
-0.00020499
0.00019737
-0.00026967
0.00012993
-0.000294457
5.37036e-05
-0.000278741
-2.47804e-05
-0.000228324
-9.25239e-05
-0.000151513
-0.000144314
-5.98279e-05
-0.000174482
3.47151e-05
-0.000180933
0.00011922
-0.000162675
0.000183007
-0.000123394
0.000218108
-6.82399e-05
0.000219501
-3.04478e-06
0.000186663
6.48181e-05
0.000123508
0.000124309
3.66656e-05
0.000171082
-6.45271e-05
0.000199855
-0.000168928
0.000206628
-0.000265318
0.000191133
-0.000343082
0.000154525
-0.00039376
0.000100789
-0.0004114
3.49879e-05
-0.000392593
-3.84358e-05
-0.000338594
-0.000109281
-0.000253333
-0.000172402
-0.000143618
-0.000222014
-1.8592e-05
-0.000253345
0.000111121
-0.000263278
0.000234344
-0.000250542
0.000340512
-0.000216155
0.000420173
-0.000162507
0.000466119
-9.39078e-05
0.0004738
-1.61244e-05
0.000441699
6.53482e-05
0.000371706
0.000142763
0.000268939
0.000209901
0.000141514
0.000260446
0.000289291
0.000126554
-0.000317142
0.000252994
-0.00032084
0.000377594
-0.000319421
0.000498679
-0.000315337
0.000614584
-0.000308598
0.000723848
-0.00029944
0.00082525
-0.00028812
0.000918305
-0.000275474
0.00100331
-0.000262392
0.00108076
-0.000249297
0.00114768
-0.000232998
0.00119959
-0.000212684
0.00123368
-0.000190668
0.00125069
-0.000168216
0.00125218
-0.000146407
0.00124002
-0.000126331
0.00121632
-0.000108692
0.00118366
-9.442e-05
0.00114477
-8.39587e-05
0.0011028
-7.79654e-05
0.00106101
-7.67823e-05
0.0010228
-8.06909e-05
0.000991369
-8.95513e-05
0.000969693
-0.000103109
0.0009603
-0.000120887
0.000965393
-0.000142344
0.000986615
-0.000166627
0.0010254
-0.000193261
0.00108271
-0.000221175
0.00115969
-0.000249907
0.00125729
-0.000278413
0.00137399
-0.000306015
0.00150662
-0.000331341
0.00165077
-0.000352189
0.0018059
-0.00037185
0.00197319
-0.000391432
0.00215179
-0.000408504
0.00233976
-0.000421624
0.00253476
-0.000429976
0.00273406
-0.000432993
0.00293508
-0.000430444
0.00313467
-0.000421605
0.00332926
-0.000405792
0.0035162
-0.000383864
0.00369184
-0.000354667
0.00385344
-0.000319227
0.00399629
-0.000275331
0.00411805
-0.000225608
0.00421614
-0.00017002
0.00428869
-0.000109504
0.00434067
-4.25504e-05
0.00435807
4.01075e-05
0.00434375
0.000119956
0.00429653
0.000201722
0.00421562
0.000285066
0.00410065
0.000368896
0.00395159
0.000452406
0.00376849
0.000535383
0.00355197
0.000616302
0.00330289
0.000695194
0.00302286
0.000770286
0.00271385
0.000840743
0.00237869
0.000905113
0.00202063
0.000961844
0.00164307
0.00101049
0.00125019
0.00104911
0.000845979
0.00107749
0.000435225
0.00109399
2.30555e-05
0.00109778
-0.000385366
0.00108824
-0.000784901
0.00106552
-0.00116973
0.00102816
-0.00153429
0.000976486
-0.00187318
0.000911029
-0.00218133
0.000831904
-0.00245326
0.000738935
-0.00268441
0.000634109
-0.00287097
0.000518474
-0.00300861
0.000392411
-0.0030954
0.000259553
-0.00312914
0.000121155
-0.00310167
-3.16112e-05
-0.00301889
-0.000183493
-0.00288156
-0.000329617
-0.00269085
-0.000470677
-0.00244914
-0.000604829
-0.00216004
-0.000729293
-0.0018285
-0.000841759
-0.00146057
-0.000939061
-0.0010634
-0.0010184
-0.000644939
-0.00107752
-0.000213945
-0.00111409
0.000220459
-0.0011267
0.000648436
-0.00111422
0.00105973
-0.00107513
0.00144464
-0.00101051
0.00179358
-0.000920712
0.00209747
-0.000806619
0.00234794
-0.000670775
0.00253735
-0.000515525
0.0026599
-0.000344898
0.00271311
-0.000164451
0.00268986
3.33506e-05
0.00259426
0.000228407
0.00242777
0.000415212
0.00219388
0.000591792
0.00189851
0.000753587
0.00155021
0.000894848
0.00115917
0.00101008
0.000737287
0.00109501
0.000298511
0.00114519
-0.000143381
0.00115845
-0.000573475
0.00113338
-0.00097657
0.00106872
-0.00133872
0.000967049
-0.00164674
0.000830646
-0.00188919
0.000663693
-0.00205689
0.000471913
-0.00214377
0.000262696
-0.00214473
4.22477e-05
-0.00206003
-0.000188599
-0.00189549
-0.000400985
-0.0016577
-0.000595362
-0.00135695
-0.000764164
-0.00100706
-0.00089878
-0.000624152
-0.000992283
-0.000225855
-0.00104041
0.000168133
-0.00103868
0.000539519
-0.000988258
0.000870272
-0.000890661
0.00114467
-0.000750735
0.00134976
-0.000576041
0.00147651
-0.000376088
0.00151956
-0.000161328
0.00147736
6.18417e-05
0.00135791
0.000269039
0.00116966
0.000451656
0.000926297
0.000600898
0.00064564
0.000706231
0.000347117
0.000761693
5.17025e-05
0.00076359
-0.000219857
0.000711864
-0.000449329
0.000611801
-0.000621312
0.000470751
-0.000725562
0.000300668
-0.000756251
0.000114596
-0.00071334
-7.79555e-05
-0.000604773
-0.000250936
-0.000441545
-0.000395551
-0.000240364
-0.000499813
-2.07609e-05
-0.000555452
0.00019681
-0.000558335
0.000392149
-0.000509195
0.000547993
-0.000414144
0.000651359
-0.000283746
0.000694354
-0.000131124
0.000674313
3.15239e-05
0.000597925
0.000182092
0.000474454
0.000307585
0.00031871
0.000397215
0.000148242
0.00044265
-1.83926e-05
0.000440994
-0.000164782
0.000393644
-0.000276374
0.000308962
-0.000343841
0.000197397
-0.000363447
7.33098e-05
-0.000335947
-5.22799e-05
-0.000268649
-0.000159822
-0.000172269
-0.000240694
-6.01204e-05
-0.00028663
5.23413e-05
-0.000293395
0.000151472
-0.000261806
0.000225137
-0.000197058
0.000264863
-0.000107966
0.000265618
-3.79948e-06
0.000228455
0.000101981
0.000157435
0.000195329
6.06754e-05
0.000267842
-5.11313e-05
0.000311662
-0.000165632
0.000321129
-0.000270538
0.000296038
-0.000354735
0.000238722
-0.000409165
0.000155219
-0.000428162
5.39845e-05
-0.000408888
-5.77102e-05
-0.000352762
-0.000165407
-0.000264309
-0.000260854
-0.000151075
-0.000335248
-2.27328e-05
-0.000381687
0.000109868
-0.000395878
0.000235212
-0.000375887
0.000342608
-0.000323551
0.000422742
-0.000242641
0.000468564
-0.00013973
0.000475697
-2.32575e-05
0.000443019
9.80264e-05
0.000372464
0.000213319
0.000269281
0.000313083
0.000141598
0.000388129
0.000430889
0.000239453
-0.000556595
0.000480297
-0.000561685
0.000718062
-0.000557187
0.000949549
-0.000546823
0.00117109
-0.00053014
0.0013793
-0.000507649
0.00156957
-0.000478391
0.00173845
-0.000444352
0.00188001
-0.000403958
0.00199093
-0.000360216
0.00207084
-0.000312904
0.00212305
-0.000264898
0.00214958
-0.000217193
0.00215309
-0.000171729
0.00213516
-0.000128481
0.00209735
-8.85197e-05
0.00204227
-5.36158e-05
0.00197333
-2.54763e-05
0.0018949
-5.52729e-06
0.00181102
5.91224e-06
0.00172108
1.31593e-05
0.00162932
1.1063e-05
0.00153648
3.28947e-06
0.00144571
-1.23356e-05
0.00136191
-3.70896e-05
0.0012916
-7.20321e-05
0.0012428
-0.000117825
0.00122672
-0.000177185
0.00124413
-0.000238586
0.00129206
-0.00029784
0.00136788
-0.00035423
0.00147395
-0.000412081
0.0016103
-0.000467694
0.0017777
-0.000519586
0.00197219
-0.000566338
0.00218768
-0.000606926
0.00241953
-0.000640358
0.00266378
-0.000665869
0.0029164
-0.000682594
0.00317342
-0.000690011
0.00343043
-0.000687464
0.00368352
-0.00067469
0.00392899
-0.00065126
0.00416252
-0.000617398
0.00438039
-0.000572535
0.00457745
-0.000516286
0.00475321
-0.000451097
0.00490458
-0.00037697
0.00502687
-0.000292316
0.00511671
-0.00019934
0.00517277
-9.86168e-05
0.00518671
2.6176e-05
0.00515804
0.000148624
0.00508888
0.000270881
0.00497995
0.000393999
0.00483058
0.000518268
0.00464089
0.000642089
0.00441049
0.000765785
0.00413994
0.000886855
0.00383039
0.00100475
0.00348418
0.00111649
0.00310386
0.00122106
0.00269294
0.00131603
0.00225481
0.00139998
0.00179433
0.00147097
0.00131578
0.00152766
0.000824824
0.00156845
0.000327118
0.0015917
-0.000171227
0.00159613
-0.000663504
0.00158052
-0.00114359
0.0015456
-0.00160446
0.00148903
-0.00203937
0.00141139
-0.00244235
0.00131401
-0.00280645
0.00119601
-0.00312561
0.0010581
-0.00339439
0.000902882
-0.00360724
0.000731329
-0.00375982
0.000544988
-0.00384867
0.000348404
-0.00387195
0.000144433
-0.00382332
-8.02394e-05
-0.00370841
-0.000298398
-0.00352705
-0.000510981
-0.00328094
-0.000716791
-0.00297312
-0.000912645
-0.00260868
-0.00109373
-0.00219408
-0.00125637
-0.00173669
-0.00139645
-0.00124538
-0.00150971
-0.000730107
-0.00159279
-0.000201406
-0.00164279
0.000328799
-0.00165691
0.000849113
-0.00163453
0.00134684
-0.00157285
0.00181008
-0.00147375
0.00222768
-0.00133832
0.00258822
-0.00116715
0.00288242
-0.000964976
0.0031019
-0.000735009
0.00323993
-0.000482925
0.00328928
-0.000213805
0.00324776
7.48707e-05
0.00311886
0.00035731
0.00290403
0.000630037
0.00260815
0.000887673
0.00223908
0.00112266
0.00180761
0.00132631
0.0013263
0.0014914
0.00081056
0.00161075
0.000276135
0.00167962
-0.00025825
0.00169284
-0.000775323
0.00165046
-0.00125659
0.00154998
-0.00168513
0.00139559
-0.00204547
0.00119099
-0.00232402
0.000942235
-0.00251011
0.000658005
-0.00259667
0.000349262
-0.00257757
2.3146e-05
-0.0024579
-0.000308271
-0.00224214
-0.000616747
-0.00193895
-0.000898545
-0.00156194
-0.00114118
-0.00112922
-0.0013315
-0.000659748
-0.00146175
-0.000177114
-0.00152304
0.000296945
-0.00151274
0.000738975
-0.00143029
0.0011273
-0.00127899
0.0014432
-0.00106663
0.00167142
-0.000804263
0.00180155
-0.000506215
0.00182968
-0.000189465
0.00175576
0.000135763
0.00158872
0.000436087
0.00133975
0.000700622
0.00102751
0.00091314
0.000673744
0.00105999
0.000302952
0.00113249
-5.80597e-05
0.0011246
-0.000385422
0.00103923
-0.000656781
0.00088316
-0.000854074
0.000668043
-0.000965416
0.00041201
-0.000986014
0.000135194
-0.000915838
-0.000148131
-0.000766335
-0.00040044
-0.000552668
-0.000609217
-0.000295482
-0.000756999
-1.90417e-05
-0.000831893
0.000248477
-0.000825854
0.000484857
-0.000745575
0.000669334
-0.000598621
0.000785983
-0.000400394
0.000827746
-0.000172888
0.000792267
6.70027e-05
0.00068871
0.00028565
0.000530385
0.00046591
0.000336214
0.000591385
0.000128042
0.000650822
-7.17493e-05
0.000640786
-0.000242723
0.000564618
-0.00036883
0.000435069
-0.000439837
0.000268404
-0.000452019
8.54913e-05
-0.000408813
-9.54851e-05
-0.000319399
-0.000249237
-0.000197447
-0.000362646
-5.96065e-05
-0.000424471
7.63857e-05
-0.000429387
0.000194001
-0.000379421
0.000279933
-0.00028299
0.00032477
-0.000152803
0.000324172
-3.20124e-06
0.000280153
0.000145999
0.000197933
0.000277549
8.72923e-05
0.000378482
-3.90018e-05
0.000437956
-0.00016721
0.000449337
-0.00028365
0.000412478
-0.000376283
0.000331355
-0.00043576
0.000214696
-0.00045603
7.42541e-05
-0.00043531
-7.84298e-05
-0.000375277
-0.000225441
-0.000281252
-0.000354879
-0.000161634
-0.000454866
-2.68259e-05
-0.000516495
0.000111465
-0.000534169
0.000241489
-0.000505911
0.000352138
-0.0004342
0.000434153
-0.000324656
0.00048053
-0.000186107
0.000487104
-2.98315e-05
0.000452965
0.000132166
0.000380357
0.000285926
0.000274755
0.000418685
0.00014442
0.000518463
0.00057531
0.000441124
-0.00099772
0.000881923
-0.00100248
0.0013169
-0.000992165
0.0017404
-0.000970321
0.00214283
-0.000932574
0.00251404
-0.000878858
0.00283866
-0.000803013
0.00310664
-0.00071233
0.00330045
-0.000597769
0.00341503
-0.000474799
0.00344194
-0.000339816
0.00337694
-0.000199897
0.00320924
-4.94919e-05
0.00295347
8.4041e-05
0.0026565
0.000168487
0.00232096
0.00024702
0.00195417
0.000313172
0.00156452
0.000364176
0.00116089
0.000398109
0.000752642
0.000414156
0.000354814
0.000410987
-2.16277e-05
0.000387504
-0.000364374
0.000346036
-0.000660405
0.000283694
-0.000904155
0.00020666
-0.00109078
0.000114595
-0.00119186
-1.67494e-05
-0.0011866
-0.000182446
-0.00110542
-0.000319764
-0.000961165
-0.000442095
-0.000771947
-0.000543448
-0.000547424
-0.000636605
-0.000287239
-0.000727879
1.06439e-05
-0.00081747
0.000342738
-0.000898432
0.00070471
-0.000968898
0.00109118
-0.00102683
0.00149613
-0.00107082
0.00191324
-0.0010997
0.0023356
-0.00111237
0.0027577
-0.00110956
0.00317201
-0.001089
0.00357196
-0.00105121
0.00395222
-0.00099766
0.0043095
-0.000929812
0.00463782
-0.00084461
0.00492824
-0.00074151
0.00517704
-0.000625769
0.00538172
-0.000497002
0.00554268
-0.000360302
0.00565398
-0.000209916
0.00572186
-4.17002e-05
0.00573711
0.00013337
0.00569922
0.00030877
0.00560649
0.00048673
0.00545813
0.000666628
0.00525482
0.000845395
0.00499772
0.00102289
0.00468833
0.00119624
0.00432919
0.00136389
0.0039235
0.00152218
0.00347521
0.00166935
0.00298873
0.00180252
0.00246926
0.00191945
0.0019219
0.00201833
0.00135314
0.00209642
0.000769501
0.00215209
0.00017815
0.00218305
-0.000413271
0.00218755
-0.000997183
0.00216443
-0.0015655
0.00211392
-0.00211015
0.00203368
-0.00262261
0.00192384
-0.00309455
0.00178595
-0.00351871
0.00162017
-0.003888
0.00142738
-0.00419563
0.00121051
-0.00443549
0.000971188
-0.00460339
0.000712893
-0.00469422
0.00043923
-0.00470457
0.000154786
-0.00463054
-0.000154271
-0.00447689
-0.000452046
-0.0042437
-0.000744172
-0.00393334
-0.00102714
-0.00354991
-0.00129608
-0.0030998
-0.00154384
-0.00259044
-0.00176573
-0.00203145
-0.00195543
-0.00143365
-0.00210752
-0.000809048
-0.00221739
-0.000170757
-0.00228108
0.000467692
-0.00229536
0.00109187
-0.00225871
0.00168674
-0.00216772
0.00223786
-0.00202487
0.00273106
-0.00183152
0.00315374
-0.00158983
0.00349447
-0.0013057
0.00374281
-0.000983355
0.00389059
-0.000630697
0.00393739
-0.000260607
0.00387442
0.000137842
0.00370636
0.000525364
0.00343524
0.000901158
0.00306765
0.00125526
0.00261394
0.00157637
0.00208712
0.00185313
0.00150347
0.00207505
0.000880947
0.00223327
0.000239777
0.00232079
-0.000398889
0.0023315
-0.00101359
0.00226516
-0.00158178
0.00211817
-0.00208372
0.00189753
-0.00250101
0.00160827
-0.00281797
0.0012592
-0.00302233
0.00086237
-0.0031065
0.000433427
-0.00306241
-2.09444e-05
-0.00290153
-0.000469146
-0.00262547
-0.000892809
-0.00224695
-0.00127707
-0.00178332
-0.00160481
-0.00125548
-0.00185934
-0.000689365
-0.00202787
-0.00010984
-0.00210257
0.000453276
-0.00207585
0.000973332
-0.00195034
0.00142471
-0.00173037
0.00178527
-0.00142719
0.00203761
-0.0010566
0.0021706
-0.000639209
0.00218095
-0.000199811
0.00206826
0.000248455
0.00184443
0.000659911
0.00152517
0.00101988
0.00113383
0.00130448
0.000697219
0.00149661
0.000246067
0.00158364
-0.000189153
0.00155982
-0.000577889
0.00142796
-0.000894259
0.00119953
-0.00111766
0.000891442
-0.00123446
0.000528815
-0.00123924
0.000139967
-0.00113733
-0.000250039
-0.000939812
-0.000597957
-0.000667561
-0.000881468
-0.00034725
-0.00107731
-8.97991e-06
-0.00117016
0.000316105
-0.00115094
0.000598087
-0.00102756
0.000812899
-0.000813434
0.000943389
-0.000530884
0.000980039
-0.000209538
0.000925772
0.00012127
0.000789968
0.000421453
0.000590881
0.000664997
0.000352096
0.00083017
0.000101029
0.000901889
-0.000134767
0.000876581
-0.000332284
0.000762135
-0.000473259
0.000576043
-0.000546489
0.000341634
-0.000549081
8.80828e-05
-0.000487411
-0.000157155
-0.000372377
-0.00036427
-0.000221698
-0.000513325
-5.5739e-05
-0.00059043
0.000105558
-0.000590684
0.00024248
-0.000516344
0.000340486
-0.000380996
0.000389896
-0.000202213
0.000386944
-2.49645e-07
0.000334354
0.00019859
0.000239136
0.000372768
0.000113187
0.000504431
-2.90636e-05
0.000580207
-0.000171902
0.000592175
-0.000300413
0.00054099
-0.000401696
0.000432638
-0.000465898
0.000278899
-0.000486973
9.53292e-05
-0.000464149
-0.000101254
-0.000399266
-0.000290325
-0.000298798
-0.000455347
-0.000171981
-0.000581683
-3.00963e-05
-0.00065838
0.000114509
-0.000678775
0.000249533
-0.000640935
0.00036376
-0.000548428
0.00044779
-0.000408686
0.000494663
-0.000232981
0.000500529
-3.56967e-05
0.000464659
0.000168036
0.000389698
0.000360887
0.00028118
0.000527203
0.000147696
0.000651947
0.000723006
0.000613516
-0.00161124
0.00122221
-0.00161117
0.00181711
-0.00158707
0.00238792
-0.00154113
0.00292273
-0.00146738
0.00342092
-0.00137705
0.00385748
-0.00123957
0.00425896
-0.00111381
0.00455902
-0.00089783
0.00478268
-0.000698458
0.00490896
-0.000466102
0.0049554
-0.000246334
0.00494602
-4.01109e-05
0.00485607
0.000173989
0.00462196
0.000402601
0.00426778
0.000601192
0.00381708
0.000763874
0.00329143
0.000889822
0.00271399
0.000975553
0.00210848
0.00101967
0.00149949
0.00101998
0.000911698
0.000975292
0.000368379
0.000889355
-0.000101517
0.00075359
-0.000486132
0.000591274
-0.000736221
0.000364684
-0.000903798
0.000150828
-0.00100119
-8.50558e-05
-0.00107481
-0.000246145
-0.00105218
-0.000464724
-0.000938082
-0.000657545
-0.000719844
-0.000854843
-0.000416769
-0.00103095
-4.58131e-05
-0.00118843
0.000380077
-0.00132432
0.000847023
-0.00143584
0.00134252
-0.00152233
0.00185538
-0.00158368
0.00237556
-0.00161989
0.00289495
-0.00163176
0.00340433
-0.00161894
0.00389811
-0.00158278
0.00436917
-0.00152227
0.00481092
-0.00143941
0.0052155
-0.00133439
0.00558033
-0.00120944
0.00590394
-0.00106512
0.00618338
-0.000905208
0.00641257
-0.000726194
0.00658135
-0.000529081
0.00668923
-0.000317796
0.00675234
-0.000104812
0.00674191
0.000143803
0.00667141
0.000379272
0.0065394
0.000618739
0.00634533
0.000860695
0.00608898
0.00110175
0.00577034
0.00134153
0.00539271
0.00157387
0.00495856
0.00179805
0.00447182
0.00200892
0.00393651
0.00220465
0.00335764
0.00238139
0.00274168
0.0025354
0.00209474
0.00266527
0.00142435
0.00276682
0.000737928
0.0028385
4.41568e-05
0.00287682
-0.00064815
0.00287985
-0.00132993
0.00284622
-0.00199218
0.00277616
-0.00262452
0.00266602
-0.00321703
0.00251636
-0.00376166
0.00233059
-0.00424925
0.00210775
-0.00467078
0.00184891
-0.00501768
0.00155741
-0.00528369
0.0012372
-0.00546381
0.000893014
-0.00555373
0.000529144
-0.00554888
0.000149936
-0.00544896
-0.000254185
-0.00525501
-0.000645996
-0.00496668
-0.0010325
-0.00458782
-0.00140601
-0.00412449
-0.00175941
-0.00358432
-0.002084
-0.00297712
-0.00237293
-0.0023131
-0.00261946
-0.00160544
-0.00281518
-0.000868903
-0.00295392
-0.000118436
-0.00303154
0.000629375
-0.00304317
0.00135809
-0.00298743
0.00205088
-0.00286051
0.00268981
-0.00266381
0.00325895
-0.00240066
0.00374321
-0.00207409
0.00412968
-0.00169217
0.00440898
-0.00126266
0.00457166
-0.000793376
0.00460476
-0.00029371
0.0045164
0.000226206
0.00430393
0.000737828
0.00397162
0.00123347
0.00352805
0.00169883
0.00298537
0.00211905
0.0023594
0.00247911
0.00166923
0.00276522
0.000936458
0.00296604
0.00018558
0.00307167
-0.00055937
0.00307645
-0.00127286
0.00297865
-0.00192842
0.00277374
-0.00250348
0.00247258
-0.00297666
0.00208146
-0.00332998
0.00161252
-0.0035496
0.00108199
-0.00362671
0.000510532
-0.00355802
-8.96328e-05
-0.00335005
-0.00067711
-0.00300926
-0.0012336
-0.00255115
-0.00173518
-0.00199597
-0.00215999
-0.00137015
-0.00248516
-0.000703009
-0.00269501
-2.57214e-05
-0.00277986
0.000628071
-0.00272964
0.00122692
-0.00254919
0.00174093
-0.00224438
0.00214489
-0.00183114
0.002419
-0.00133072
0.00255238
-0.00077259
0.00253724
-0.000184674
0.00238344
0.000402263
0.00209876
0.000944589
0.00170673
0.00141192
0.00123278
0.00177843
0.000710029
0.00201936
0.000176011
0.00211766
-0.000333712
0.00206955
-0.000784206
0.00187846
-0.00114505
0.00156038
-0.00139257
0.00113896
-0.00151195
0.000648196
-0.00149758
0.000125597
-0.00135948
-0.000388137
-0.00111069
-0.000846745
-0.000776121
-0.00121604
-0.000389213
-0.00146422
1.40536e-05
-0.00157343
0.000396638
-0.00153352
0.000723812
-0.00135473
0.000967639
-0.00105726
0.00110845
-0.000671694
0.00113866
-0.000239751
0.00106162
0.000198313
0.000890181
0.000592892
0.000647569
0.000907609
0.000362919
0.00111482
6.84055e-05
0.0011964
-0.00020389
0.00114888
-0.000427158
0.000985404
-0.000581145
0.00073003
-0.000654539
0.000415029
-0.000646373
7.99171e-05
-0.000563739
-0.00023979
-0.000421955
-0.000506054
-0.000241835
-0.000693444
-4.73347e-05
-0.000784931
0.000137838
-0.000775857
0.000292867
-0.000671373
0.000401751
-0.00048988
0.000454402
-0.000254864
0.000447888
6.26395e-06
0.000385804
0.000260674
0.00027719
0.000481381
0.000135964
0.000645657
-2.16535e-05
0.000737824
-0.000178265
0.000748786
-0.000317809
0.000680534
-0.000426558
0.000541387
-0.000494553
0.000346894
-0.00051602
0.000116797
-0.00049041
-0.000126864
-0.000420652
-0.000360082
-0.000313964
-0.000562034
-0.000180457
-0.00071519
-3.22083e-05
-0.000806628
0.000117885
-0.000828867
0.000257187
-0.000780237
0.000374178
-0.000665419
0.000459583
-0.000494091
0.000506599
-0.000279997
0.000511566
-4.06632e-05
0.000474132
0.00020547
0.000397049
0.00043797
0.000286221
0.000638032
0.000150247
0.00078792
0.000873253
0.00144301
-0.00305425
0.00288268
-0.00305084
0.00430411
-0.00300849
0.0056852
-0.00292223
0.00699576
-0.00277794
0.00821428
-0.00259558
0.00924062
-0.00226591
0.0100731
-0.00194633
0.010423
-0.00124774
0.0103893
-0.000664705
0.00996867
-4.54782e-05
0.0092721
0.000450233
0.00834756
0.000884434
0.00726016
0.00126138
0.00607903
0.00158374
0.00483342
0.0018468
0.00354637
0.00205092
0.00224206
0.00219413
0.000942484
0.00227513
-0.000328468
0.00229062
-0.00155255
0.00224406
-0.00269054
0.00211328
-0.00371954
0.00191836
-0.0045973
0.00163134
-0.00530066
0.00129464
-0.0057921
0.000856118
-0.00607621
0.000434944
-0.00597906
-0.000182215
-0.00564329
-0.000581907
-0.00511888