/*--------------------------------*- C++ -*----------------------------------*\
  =========                 |
  \\      /  F ield         | OpenFOAM: The Open Source CFD Toolbox
   \\    /   O peration     | Website:  https://openfoam.org
    \\  /    A nd           | Version:  12
     \\/     M anipulation  |
\*---------------------------------------------------------------------------*/
FoamFile
{
    format      ascii;
    class       volScalarField;
    location    "4.5";
    object      p;
}
// * * * * * * * * * * * * * * * * * * * * * * * * * * * * * * * * * * * * * //

dimensions      [0 2 -2 0 0 0 0];

internalField   nonuniform List<scalar> 
400
(
5.03997e-08
-6.36677e-05
-0.000181794
-0.000157531
-0.000390284
-0.00126092
-0.00247952
-0.00361976
-0.00454791
-0.00519271
-0.00553811
-0.0055795
-0.00533038
-0.00472875
-0.00352172
-0.00146283
0.00147631
0.00503003
0.00812032
0.00919677
4.62665e-05
-1.7257e-05
-0.000113702
-0.000408871
-0.00106998
-0.00208888
-0.00318275
-0.00422472
-0.00505532
-0.00562766
-0.0059365
-0.00600076
-0.00582537
-0.00536924
-0.00449915
-0.00293898
-0.000511654
0.00275308
0.00604668
0.00771954
0.000180201
-2.38962e-05
-0.000447824
-0.00117686
-0.00219735
-0.00330195
-0.0043735
-0.0053466
-0.00603881
-0.00648112
-0.00669395
-0.00669306
-0.00647897
-0.00607522
-0.00547262
-0.00451596
-0.0028824
-0.000363668
0.00272144
0.00473006
0.000183333
-0.000254657
-0.00107843
-0.00223468
-0.0034765
-0.004612
-0.00554257
-0.00620526
-0.00664899
-0.00690881
-0.00699606
-0.00692962
-0.00672857
-0.00640562
-0.00597378
-0.00539804
-0.00449746
-0.00280784
-0.000461808
0.00149623
-0.000274914
-0.000870199
-0.00200107
-0.00334958
-0.0045628
-0.00549778
-0.0061704
-0.00666424
-0.00702351
-0.00724489
-0.00731561
-0.00722648
-0.00699931
-0.00666828
-0.00627014
-0.00585304
-0.00539711
-0.00438839
-0.00290958
-0.0012194
-0.00116988
-0.0018201
-0.00302491
-0.00430818
-0.00534471
-0.00603915
-0.00658311
-0.00705293
-0.00744422
-0.00768983
-0.00776075
-0.0076589
-0.00740937
-0.00705646
-0.00664917
-0.00627377
-0.00599957
-0.00539541
-0.00460627
-0.0032972
-0.00223622
-0.00285292
-0.00395375
-0.00507193
-0.00591546
-0.00647826
-0.00702268
-0.00756875
-0.00804825
-0.00836196
-0.0084618
-0.00834277
-0.00804908
-0.00763332
-0.00716548
-0.0067626
-0.00657955
-0.00615525
-0.00575297
-0.00481703
-0.00320859
-0.00375755
-0.00470868
-0.00566348
-0.00638395
-0.00691973
-0.00754816
-0.00823121
-0.00884979
-0.00926567
-0.00941995
-0.0092918
-0.00893113
-0.00841054
-0.00782602
-0.00732733
-0.00716127
-0.00677935
-0.00662571
-0.00588174
-0.00394001
-0.00442395
-0.00526682
-0.00613673
-0.00679499
-0.0073782
-0.00814098
-0.00899017
-0.00977624
-0.0103213
-0.010534
-0.0103982
-0.00996612
-0.00932093
-0.00858668
-0.00792405
-0.0077255
-0.00727511
-0.00725719
-0.00661837
-0.00440364
-0.00482725
-0.00561657
-0.00648292
-0.0071411
-0.00780701
-0.00871349
-0.00971989
-0.0106497
-0.0112867
-0.011544
-0.0114058
-0.0109196
-0.0101706
-0.00932035
-0.00845537
-0.00819261
-0.00757431
-0.00773277
-0.00705683
-0.00457299
-0.00498746
-0.00576239
-0.00665784
-0.00738103
-0.00811774
-0.00912546
-0.0102342
-0.0112499
-0.0119479
-0.0122303
-0.0120763
-0.0115533
-0.0107359
-0.00981592
-0.00875575
-0.00848253
-0.00761348
-0.00801595
-0.00719035
-0.00446349
-0.00488108
-0.00567294
-0.00662933
-0.00741757
-0.00822985
-0.00927007
-0.0104225
-0.0114719
-0.012201
-0.0124959
-0.0123253
-0.0117703
-0.0109003
-0.00994092
-0.00873546
-0.00849297
-0.007346
-0.00806898
-0.0069639
-0.00413882
-0.00461293
-0.00540485
-0.00636377
-0.00720987
-0.0080646
-0.00909702
-0.0102364
-0.0112793
-0.0120107
-0.0123107
-0.0121395
-0.0115583
-0.0106757
-0.00964953
-0.00845456
-0.00808946
-0.00681728
-0.00782775
-0.00635581
-0.00372092
-0.00419433
-0.00495051
-0.00584297
-0.00674204
-0.00760176
-0.00857967
-0.00965323
-0.0106511
-0.0113658
-0.0116814
-0.0115381
-0.0109698
-0.0100848
-0.0090289
-0.00789274
-0.00730923
-0.00611634
-0.00726307
-0.00537187
-0.00350674
-0.00382654
-0.00441716
-0.00513986
-0.00599174
-0.00685369
-0.00778516
-0.00878799
-0.00973123
-0.0104255
-0.0107567
-0.0106544
-0.0101171
-0.00924124
-0.00818028
-0.00707013
-0.00632872
-0.00531856
-0.00641987
-0.00408391
-0.00360664
-0.00365746
-0.00386095
-0.00429461
-0.0050036
-0.00587059
-0.00681653
-0.00779615
-0.00870679
-0.00938795
-0.00972904
-0.00965962
-0.00916242
-0.00830021
-0.00722387
-0.00611289
-0.00529892
-0.00448304
-0.00541955
-0.00252548
-0.00365356
-0.00346659
-0.00321162
-0.00330149
-0.00385177
-0.00472798
-0.00573484
-0.00675013
-0.00767647
-0.00837571
-0.00874718
-0.00871869
-0.00825998
-0.0074104
-0.00632988
-0.00521414
-0.00437229
-0.00370942
-0.00423546
-0.000550892
-0.0034837
-0.00304879
-0.00240213
-0.00217843
-0.0026224
-0.00352735
-0.00461102
-0.00569251
-0.00666253
-0.00740018
-0.00781227
-0.00783316
-0.00744773
-0.00668267
-0.00566586
-0.00455495
-0.00365187
-0.00290763
-0.00250647
0.00334069
-0.00311333
-0.00256892
-0.00165025
-0.0012521
-0.00165738
-0.00257719
-0.003726
-0.00488956
-0.00593316
-0.00674154
-0.00723982
-0.00734989
-0.00704833
-0.00633452
-0.00539766
-0.00432438
-0.00331022
-0.00162994
0.00254493
0.0150716
-0.00466731
-0.00194819
-0.000742436
-0.000536081
-0.000984767
-0.00192399
-0.00313673
-0.00439347
-0.00551108
-0.0063959
-0.00695204
-0.00715367
-0.00693805
-0.00632186
-0.00531273
-0.00392584
-0.00176312
0.00343642
0.0162056
0.0385779
)
;

boundaryField
{
    movingWall
    {
        type            zeroGradient;
    }
    fixedWalls
    {
        type            zeroGradient;
    }
    frontAndBack
    {
        type            empty;
    }
}


// ************************************************************************* //
