/*--------------------------------*- C++ -*----------------------------------*\
  =========                 |
  \\      /  F ield         | OpenFOAM: The Open Source CFD Toolbox
   \\    /   O peration     | Website:  https://openfoam.org
    \\  /    A nd           | Version:  12
     \\/     M anipulation  |
\*---------------------------------------------------------------------------*/
FoamFile
{
    format      ascii;
    class       surfaceScalarField;
    location    "4.5";
    object      phi;
}
// * * * * * * * * * * * * * * * * * * * * * * * * * * * * * * * * * * * * * //

dimensions      [0 3 -1 0 0 0 0];

internalField   nonuniform List<scalar> 
760
(
2.04628e-07
-2.04633e-07
1.67088e-07
3.754e-08
-2.64073e-07
4.31161e-07
-1.34512e-06
1.08104e-06
-2.77525e-06
1.43013e-06
-4.02703e-06
1.25178e-06
-5.07168e-06
1.04466e-06
-5.8552e-06
7.8352e-07
-6.45714e-06
6.01938e-07
-6.88638e-06
4.29236e-07
-7.18566e-06
2.99281e-07
-7.36405e-06
1.78391e-07
-7.40277e-06
3.87225e-08
-7.31427e-06
-8.85e-08
-7.04039e-06
-2.73878e-07
-6.50314e-06
-5.37258e-07
-5.4934e-06
-1.00974e-06
-3.88779e-06
-1.6056e-06
-1.72176e-06
-2.16604e-06
-1.72176e-06
-1.72012e-07
-3.26217e-08
-8.63069e-07
7.28597e-07
-2.14868e-06
1.71677e-06
-3.53437e-06
2.46673e-06
-4.49941e-06
2.39517e-06
-5.29551e-06
2.04787e-06
-5.91648e-06
1.66563e-06
-6.42626e-06
1.29329e-06
-6.79791e-06
9.73588e-07
-7.03406e-06
6.6539e-07
-7.15953e-06
4.24753e-07
-7.15336e-06
1.72221e-07
-7.06494e-06
-4.97014e-08
-6.88623e-06
-2.6721e-07
-6.62261e-06
-5.37494e-07
-6.17434e-06
-9.85528e-07
-5.44121e-06
-1.74287e-06
-4.15548e-06
-2.89134e-06
-2.2286e-06
-4.09292e-06
-3.95035e-06
-6.86939e-07
6.54317e-07
-1.86953e-06
1.91118e-06
-3.11192e-06
2.95917e-06
-3.96638e-06
3.32119e-06
-4.57238e-06
3.00117e-06
-5.00984e-06
2.48533e-06
-5.22289e-06
1.87868e-06
-5.27265e-06
1.34305e-06
-5.16264e-06
8.63577e-07
-5.02016e-06
5.22912e-07
-4.8662e-06
2.70789e-07
-4.75021e-06
5.62393e-08
-4.65677e-06
-1.43142e-07
-4.54039e-06
-3.8359e-07
-4.42011e-06
-6.57778e-07
-4.25204e-06
-1.1536e-06
-3.95667e-06
-2.03824e-06
-3.24937e-06
-3.59864e-06
-1.95112e-06
-5.39116e-06
-5.90148e-06
-1.02993e-06
1.68425e-06
-2.22948e-06
3.11074e-06
-3.12191e-06
3.85159e-06
-3.65278e-06
3.85207e-06
-3.86135e-06
3.20973e-06
-3.76299e-06
2.38698e-06
-3.54648e-06
1.66217e-06
-3.36215e-06
1.15872e-06
-3.27805e-06
7.79478e-07
-3.20804e-06
4.529e-07
-3.13163e-06
1.94377e-07
-3.00389e-06
-7.15008e-08
-2.84822e-06
-2.98808e-07
-2.67317e-06
-5.58638e-07
-2.53081e-06
-8.00139e-07
-2.47706e-06
-1.20735e-06
-2.50548e-06
-2.00982e-06
-2.32994e-06
-3.77418e-06
-1.48549e-06
-6.23561e-06
-7.38697e-06
-1.0245e-06
2.70875e-06
-1.974e-06
4.06024e-06
-2.55302e-06
4.43061e-06
-2.79044e-06
4.08949e-06
-2.69919e-06
3.11848e-06
-2.54135e-06
2.22914e-06
-2.49261e-06
1.61343e-06
-2.57245e-06
1.23856e-06
-2.68407e-06
8.91098e-07
-2.75927e-06
5.28097e-07
-2.73579e-06
1.70902e-07
-2.60032e-06
-2.06977e-07
-2.35628e-06
-5.42843e-07
-2.05697e-06
-8.57949e-07
-1.75469e-06
-1.10242e-06
-1.52852e-06
-1.43351e-06
-1.45254e-06
-2.0858e-06
-1.45354e-06
-3.77319e-06
-1.12793e-06
-6.56121e-06
-8.5149e-06
-8.45414e-07
3.55417e-06
-1.50406e-06
4.71888e-06
-1.89417e-06
4.82071e-06
-1.99275e-06
4.18807e-06
-1.92413e-06
3.04987e-06
-1.93849e-06
2.2435e-06
-2.15172e-06
1.82666e-06
-2.4446e-06
1.53144e-06
-2.69384e-06
1.14034e-06
-2.83898e-06
6.73237e-07
-2.80715e-06
1.39065e-07
-2.64445e-06
-3.69677e-07
-2.34539e-06
-8.41901e-07
-1.95428e-06
-1.24906e-06
-1.51764e-06
-1.53906e-06
-1.14099e-06
-1.81017e-06
-9.30974e-07
-2.29582e-06
-8.72867e-07
-3.83129e-06
-7.59038e-07
-6.67504e-06
-9.27394e-06
-5.72682e-07
4.12685e-06
-1.01477e-06
5.16097e-06
-1.29273e-06
5.09868e-06
-1.36717e-06
4.2625e-06
-1.42605e-06
3.10876e-06
-1.68241e-06
2.49985e-06
-2.09145e-06
2.2357e-06
-2.48393e-06
1.92392e-06
-2.79351e-06
1.44992e-06
-2.95981e-06
8.39535e-07
-2.94749e-06
1.26746e-07
-2.77112e-06
-5.4604e-07
-2.45096e-06
-1.16207e-06
-2.02022e-06
-1.67979e-06
-1.52377e-06
-2.03551e-06
-1.04588e-06
-2.28806e-06
-6.94121e-07
-2.64758e-06
-6.19544e-07
-3.90587e-06
-6.23205e-07
-6.67138e-06
-9.89715e-06
-3.34834e-07
4.46168e-06
-6.32755e-07
5.45889e-06
-8.42346e-07
5.30827e-06
-9.60532e-07
4.38069e-06
-1.15888e-06
3.30711e-06
-1.52454e-06
2.86551e-06
-1.96999e-06
2.68115e-06
-2.37381e-06
2.32774e-06
-2.68037e-06
1.75648e-06
-2.84289e-06
1.00205e-06
-2.85931e-06
1.43173e-07
-2.71291e-06
-6.92443e-07
-2.41863e-06
-1.45635e-06
-1.99541e-06
-2.10301e-06
-1.49071e-06
-2.54021e-06
-9.97756e-07
-2.78102e-06
-5.74896e-07
-3.07044e-06
-4.38458e-07
-4.04231e-06
-4.39162e-07
-6.67068e-06
-1.03363e-05
-1.25219e-07
4.5869e-06
-2.93296e-07
5.62697e-06
-4.33666e-07
5.44864e-06
-5.69203e-07
4.51623e-06
-8.36817e-07
3.57472e-06
-1.22891e-06
3.2576e-06
-1.65447e-06
3.10671e-06
-2.01839e-06
2.69166e-06
-2.27943e-06
2.01751e-06
-2.4123e-06
1.13493e-06
-2.42913e-06
1.60004e-07
-2.3395e-06
-7.82076e-07
-2.12948e-06
-1.66637e-06
-1.79043e-06
-2.44206e-06
-1.3511e-06
-2.97954e-06
-8.92992e-07
-3.23912e-06
-4.94219e-07
-3.46921e-06
-3.4576e-07
-4.19077e-06
-3.95843e-07
-6.62059e-06
-1.07322e-05
7.65611e-08
4.51034e-06
7.98547e-09
5.69554e-06
-6.69431e-08
5.52357e-06
-2.08627e-07
4.65791e-06
-4.73528e-07
3.83962e-06
-7.9333e-07
3.5774e-06
-1.10559e-06
3.41897e-06
-1.35361e-06
2.93968e-06
-1.52455e-06
2.18845e-06
-1.62761e-06
1.23799e-06
-1.66647e-06
1.98862e-07
-1.63319e-06
-8.15354e-07
-1.5299e-06
-1.76966e-06
-1.33752e-06
-2.63443e-06
-1.03055e-06
-3.28652e-06
-6.6e-07
-3.60967e-06
-3.49616e-07
-3.77959e-06
-2.31264e-07
-4.30912e-06
-2.949e-07
-6.55696e-06
-1.10271e-05
2.51563e-07
4.25878e-06
3.42583e-07
5.60452e-06
3.4065e-07
5.5255e-06
2.22706e-07
4.77586e-06
5.13812e-08
4.01095e-06
-1.73993e-07
3.80278e-06
-3.48864e-07
3.59384e-06
-4.90503e-07
3.08131e-06
-5.87538e-07
2.28549e-06
-6.57191e-07
1.30764e-06
-7.03494e-07
2.45164e-07
-7.15065e-07
-8.03782e-07
-7.03625e-07
-1.7811e-06
-6.78365e-07
-2.65969e-06
-5.4139e-07
-3.42349e-06
-3.54896e-07
-3.79616e-06
-1.55568e-07
-3.97892e-06
-1.30363e-07
-4.33432e-06
-2.84561e-07
-6.40276e-06
-1.13116e-05
4.76935e-07
3.78184e-06
6.81445e-07
5.40001e-06
7.67229e-07
5.43972e-06
6.63592e-07
4.87949e-06
5.64853e-07
4.10969e-06
5.12024e-07
3.85561e-06
4.79715e-07
3.62615e-06
4.44877e-07
3.11615e-06
4.16413e-07
2.31395e-06
3.81594e-07
1.34246e-06
3.38353e-07
2.88405e-07
2.77438e-07
-7.42868e-07
2.13477e-07
-1.71714e-06
1.24062e-07
-2.57028e-06
9.50901e-08
-3.39452e-06
1.35562e-08
-3.71463e-06
1.01697e-07
-4.06706e-06
-6.01973e-08
-4.17243e-06
-2.07916e-07
-6.25504e-06
-1.15195e-05
6.3503e-07
3.14681e-06
1.00803e-06
5.02702e-06
1.22809e-06
5.21965e-06
1.21534e-06
4.89225e-06
1.19296e-06
4.13207e-06
1.27865e-06
3.76992e-06
1.394e-06
3.51081e-06
1.47645e-06
3.0337e-06
1.51113e-06
2.27928e-06
1.48472e-06
1.36887e-06
1.40858e-06
3.64543e-07
1.28457e-06
-6.18857e-07
1.11734e-06
-1.5499e-06
9.27559e-07
-2.3805e-06
6.86867e-07
-3.15383e-06
5.23193e-07
-3.55096e-06
3.4636e-07
-3.89023e-06
5.48099e-08
-3.88088e-06
-1.57003e-07
-6.04323e-06
-1.16765e-05
8.97898e-07
2.24892e-06
1.32341e-06
4.60151e-06
1.56887e-06
4.97419e-06
1.6984e-06
4.76271e-06
1.73624e-06
4.09423e-06
1.91958e-06
3.58658e-06
2.16388e-06
3.26651e-06
2.37291e-06
2.82467e-06
2.49316e-06
2.15903e-06
2.5101e-06
1.35193e-06
2.42637e-06
4.48268e-07
2.25825e-06
-4.50736e-07
2.01785e-06
-1.3095e-06
1.70729e-06
-2.06994e-06
1.34319e-06
-2.78972e-06
1.01153e-06
-3.2193e-06
5.98879e-07
-3.47757e-06
1.86245e-07
-3.46824e-06
-1.30247e-08
-5.84396e-06
-1.16896e-05
1.04395e-06
1.20496e-06
1.63055e-06
4.01491e-06
1.97752e-06
4.62722e-06
2.2427e-06
4.49754e-06
2.36119e-06
3.97574e-06
2.56297e-06
3.3848e-06
2.86061e-06
2.96887e-06
3.14966e-06
2.53562e-06
3.35096e-06
1.95772e-06
3.42157e-06
1.28132e-06
3.35125e-06
5.18588e-07
3.14659e-06
-2.46076e-07
2.83798e-06
-1.00089e-06
2.44469e-06
-1.67665e-06
1.96451e-06
-2.30954e-06
1.45029e-06
-2.70508e-06
8.67775e-07
-2.89506e-06
3.63049e-07
-2.96352e-06
1.13881e-07
-5.59479e-06
-1.15757e-05
7.09136e-07
4.95827e-07
1.54018e-06
3.18386e-06
2.09309e-06
4.07431e-06
2.54683e-06
4.0438e-06
2.87009e-06
3.65249e-06
3.13679e-06
3.1181e-06
3.45248e-06
2.65317e-06
3.76607e-06
2.22203e-06
4.00083e-06
1.72297e-06
4.1069e-06
1.17524e-06
4.06507e-06
5.6042e-07
3.86825e-06
-4.92483e-08
3.54924e-06
-6.81886e-07
3.10797e-06
-1.23537e-06
2.54394e-06
-1.74551e-06
1.86436e-06
-2.0255e-06
1.12686e-06
-2.15757e-06
5.17275e-07
-2.35393e-06
2.98061e-07
-5.37557e-06
-1.12776e-05
2.79879e-07
2.15948e-07
1.21458e-06
2.24916e-06
1.99974e-06
3.28915e-06
2.6838e-06
3.35974e-06
3.24505e-06
3.09124e-06
3.68466e-06
2.67849e-06
4.0798e-06
2.25803e-06
4.43071e-06
1.87111e-06
4.69196e-06
1.46172e-06
4.83058e-06
1.03662e-06
4.81663e-06
5.74371e-07
4.63139e-06
1.35995e-07
4.2868e-06
-3.37295e-07
3.76657e-06
-7.15145e-07
3.07849e-06
-1.05743e-06
2.23035e-06
-1.17737e-06
1.37495e-06
-1.30216e-06
7.99256e-07
-1.77824e-06
6.04905e-07
-5.18122e-06
-1.06727e-05
-3.84347e-07
6.00294e-07
4.67035e-07
1.39778e-06
1.43787e-06
2.31831e-06
2.39936e-06
2.39825e-06
3.22103e-06
2.26957e-06
3.89238e-06
2.00713e-06
4.4468e-06
1.70361e-06
4.89319e-06
1.42472e-06
5.20355e-06
1.15136e-06
5.36598e-06
8.74191e-07
5.34337e-06
5.96982e-07
5.17272e-06
3.06642e-07
4.79879e-06
3.66329e-08
4.21861e-06
-1.3496e-07
3.46465e-06
-3.03472e-07
2.58622e-06
-2.98937e-07
1.78428e-06
-5.00222e-07
1.40528e-06
-1.39924e-06
1.1574e-06
-4.93334e-06
-9.51531e-06
-1.2067e-06
1.80699e-06
-7.32433e-07
9.23513e-07
5.00051e-07
1.08583e-06
1.72986e-06
1.16844e-06
2.82772e-06
1.17171e-06
3.74378e-06
1.09107e-06
4.4699e-06
9.77496e-07
5.04542e-06
8.49192e-07
5.45447e-06
7.42322e-07
5.72016e-06
6.08497e-07
5.78743e-06
5.29712e-07
5.69436e-06
3.99712e-07
5.38584e-06
3.45149e-07
4.97264e-06
2.7824e-07
4.44016e-06
2.29014e-07
4.00263e-06
1.38589e-07
3.61997e-06
-1.17562e-07
3.38578e-06
-1.16505e-06
2.43187e-06
-3.97943e-06
-7.08344e-06
1.80699e-06
2.73051e-06
3.81633e-06
4.98477e-06
6.15649e-06
7.24756e-06
8.22506e-06
9.07425e-06
9.81657e-06
1.04251e-05
1.09548e-05
1.13545e-05
1.16996e-05
1.19779e-05
1.22069e-05
1.23455e-05
1.22279e-05
1.10629e-05
7.08344e-06
)
;

boundaryField
{
    movingWall
    {
        type            calculated;
        value           uniform 0;
    }
    fixedWalls
    {
        type            calculated;
        value           uniform 0;
    }
    frontAndBack
    {
        type            empty;
    }
}


// ************************************************************************* //
