/*--------------------------------*- C++ -*----------------------------------*\
  =========                 |
  \\      /  F ield         | OpenFOAM: The Open Source CFD Toolbox
   \\    /   O peration     | Website:  https://openfoam.org
    \\  /    A nd           | Version:  12
     \\/     M anipulation  |
\*---------------------------------------------------------------------------*/
FoamFile
{
    format      ascii;
    class       volVectorField;
    location    "4.5";
    object      U;
}
// * * * * * * * * * * * * * * * * * * * * * * * * * * * * * * * * * * * * * //

dimensions      [0 1 -1 0 0 0 0];

internalField   nonuniform List<vector> 
400
(
(0.00213341 -0.00330152 0)
(0.00589877 -0.00207653 0)
(2.64423e-05 0.00109473 0)
(-0.00922399 0.00816805 0)
(-0.041644 0.0165143 0)
(-0.0727631 0.0134844 0)
(-0.0934125 0.0117255 0)
(-0.112314 0.00999477 0)
(-0.123767 0.00801375 0)
(-0.134908 0.00688116 0)
(-0.140651 0.00529052 0)
(-0.146301 0.00445708 0)
(-0.148734 0.00278558 0)
(-0.149663 0.00172092 0)
(-0.146439 -0.00162804 0)
(-0.136594 -0.00457826 0)
(-0.11899 -0.0112402 0)
(-0.0911788 -0.0169249 0)
(-0.0541274 -0.0205748 0)
(-0.0200992 -0.00850942 0)
(5.56168e-05 -0.00522676 0)
(-0.00722589 0.00384139 0)
(-0.0257996 0.0180391 0)
(-0.0578915 0.0372823 0)
(-0.0834383 0.0383973 0)
(-0.100812 0.0334825 0)
(-0.113394 0.0282255 0)
(-0.125663 0.020349 0)
(-0.13255 0.0155243 0)
(-0.139154 0.0100059 0)
(-0.141619 0.00631141 0)
(-0.144157 0.00201729 0)
(-0.143154 -0.00171491 0)
(-0.142495 -0.00621411 0)
(-0.138123 -0.0115915 0)
(-0.130876 -0.0206511 0)
(-0.115815 -0.034635 0)
(-0.0936339 -0.053723 0)
(-0.0615437 -0.0716511 0)
(-0.0272796 -0.0600354 0)
(-0.00462908 0.00429139 0)
(-0.0223934 0.0267447 0)
(-0.0509629 0.0491289 0)
(-0.0736888 0.0584265 0)
(-0.0882155 0.0540658 0)
(-0.0969799 0.0454828 0)
(-0.104564 0.035126 0)
(-0.106752 0.0274176 0)
(-0.103683 0.0196976 0)
(-0.102189 0.0134588 0)
(-0.0979022 0.00815751 0)
(-0.0961873 0.003328 0)
(-0.0931912 -0.00101361 0)
(-0.0929247 -0.00595757 0)
(-0.0914598 -0.0120411 0)
(-0.0899986 -0.0225479 0)
(-0.0837994 -0.0410715 0)
(-0.0703392 -0.070735 0)
(-0.0501968 -0.10156 0)
(-0.0227029 -0.106751 0)
(-0.0089628 0.0238274 0)
(-0.0329795 0.051759 0)
(-0.0571586 0.0691303 0)
(-0.0707871 0.071239 0)
(-0.07829 0.0620165 0)
(-0.0781495 0.049621 0)
(-0.073737 0.0364195 0)
(-0.0670599 0.0248364 0)
(-0.0666482 0.0161911 0)
(-0.0639366 0.00920494 0)
(-0.0635394 0.00421081 0)
(-0.0605498 -0.000335782 0)
(-0.0591474 -0.00362876 0)
(-0.0546804 -0.00792757 0)
(-0.0527635 -0.0125308 0)
(-0.0509294 -0.021297 0)
(-0.0524874 -0.0391401 0)
(-0.04566 -0.0758963 0)
(-0.0415103 -0.119909 0)
(-0.0118183 -0.136254 0)
(-0.00846133 0.042978 0)
(-0.0332668 0.0716667 0)
(-0.048628 0.0821937 0)
(-0.0570883 0.0795355 0)
(-0.0568711 0.0643251 0)
(-0.0511847 0.0474783 0)
(-0.0490704 0.0330139 0)
(-0.0498087 0.024103 0)
(-0.0534285 0.0169722 0)
(-0.054321 0.0101627 0)
(-0.0555836 0.00416644 0)
(-0.0528865 -0.0021981 0)
(-0.0500409 -0.00754235 0)
(-0.0434918 -0.0130658 0)
(-0.037688 -0.0175054 0)
(-0.0322797 -0.0241813 0)
(-0.0325107 -0.0376093 0)
(-0.0243338 -0.0711809 0)
(-0.0315454 -0.129037 0)
(-0.00751248 -0.161478 0)
(-0.00750435 0.0621643 0)
(-0.0272504 0.0876142 0)
(-0.0361307 0.092291 0)
(-0.0426509 0.0832468 0)
(-0.0385858 0.0625332 0)
(-0.036024 0.0446431 0)
(-0.0404389 0.0340569 0)
(-0.0463742 0.0274265 0)
(-0.0526587 0.0200523 0)
(-0.0557082 0.0119226 0)
(-0.0570792 0.003279 0)
(-0.0541609 -0.00538545 0)
(-0.0502836 -0.0132666 0)
(-0.0425171 -0.0204348 0)
(-0.0341274 -0.0258765 0)
(-0.0252716 -0.0318074 0)
(-0.0233151 -0.0429207 0)
(-0.0124217 -0.0754329 0)
(-0.0245366 -0.130873 0)
(-0.00094864 -0.177156 0)
(-0.00539112 0.0766438 0)
(-0.0185906 0.0980004 0)
(-0.024859 0.0987039 0)
(-0.0293379 0.0849002 0)
(-0.0254195 0.0614652 0)
(-0.0291428 0.0467785 0)
(-0.0384084 0.0399827 0)
(-0.0468442 0.033861 0)
(-0.0543682 0.0253651 0)
(-0.0580095 0.0149195 0)
(-0.0597887 0.00229034 0)
(-0.0567268 -0.00940245 0)
(-0.0525117 -0.0202623 0)
(-0.0441744 -0.0294087 0)
(-0.0348075 -0.0356764 0)
(-0.0241983 -0.040732 0)
(-0.0205783 -0.0483507 0)
(-0.00538866 -0.075525 0)
(-0.0215862 -0.133656 0)
(0.000487106 -0.191692 0)
(-0.00280745 0.0859604 0)
(-0.0114911 0.106262 0)
(-0.0159504 0.104331 0)
(-0.0195745 0.0864282 0)
(-0.0179569 0.0636195 0)
(-0.0260756 0.0529248 0)
(-0.0360562 0.0484104 0)
(-0.0447756 0.0417875 0)
(-0.0524043 0.0313163 0)
(-0.0557566 0.0176866 0)
(-0.0575854 0.00235866 0)
(-0.055312 -0.0135293 0)
(-0.0513276 -0.0275935 0)
(-0.043689 -0.0391619 0)
(-0.0340748 -0.0467801 0)
(-0.0231144 -0.0517036 0)
(-0.0199468 -0.0583354 0)
(-0.000887738 -0.0803916 0)
(-0.0189169 -0.132898 0)
(0.00435805 -0.201193 0)
(-0.000514217 0.0913396 0)
(-0.00501443 0.111013 0)
(-0.0080642 0.107158 0)
(-0.010637 0.0879141 0)
(-0.0109559 0.067747 0)
(-0.0206064 0.0601198 0)
(-0.0300444 0.0568467 0)
(-0.0382287 0.0490974 0)
(-0.0448798 0.0366485 0)
(-0.0477421 0.0204599 0)
(-0.048336 0.00261484 0)
(-0.0473053 -0.0160231 0)
(-0.0444481 -0.0331146 0)
(-0.0386835 -0.0475121 0)
(-0.0310506 -0.0568076 0)
(-0.0201377 -0.0611652 0)
(-0.0189576 -0.065994 0)
(0.00169654 -0.0828678 0)
(-0.0179299 -0.133414 0)
(0.00491085 -0.211022 0)
(0.00237669 0.0917085 0)
(0.000422492 0.114029 0)
(-0.000312895 0.109955 0)
(-0.002976 0.0911523 0)
(-0.00444706 0.0735894 0)
(-0.0130772 0.0680499 0)
(-0.0201331 0.064791 0)
(-0.0259551 0.0557594 0)
(-0.0303896 0.0413986 0)
(-0.0318086 0.0230098 0)
(-0.0330206 0.00307164 0)
(-0.0324093 -0.0171541 0)
(-0.0313936 -0.036153 0)
(-0.0277167 -0.0530241 0)
(-0.0247201 -0.0649638 0)
(-0.0133796 -0.0704881 0)
(-0.0163018 -0.0742033 0)
(0.00502083 -0.0859608 0)
(-0.0169009 -0.131747 0)
(0.00796299 -0.217652 0)
(0.00413862 0.0889982 0)
(0.00558938 0.113946 0)
(0.00691463 0.110768 0)
(0.00537276 0.0937362 0)
(0.00440421 0.0777567 0)
(-0.00184681 0.0731309 0)
(-0.00587698 0.0697211 0)
(-0.0091963 0.0597323 0)
(-0.0118192 0.0444059 0)
(-0.0125854 0.0251778 0)
(-0.013748 0.00439476 0)
(-0.0134415 -0.0165373 0)
(-0.0142343 -0.036228 0)
(-0.0123906 -0.0543718 0)
(-0.0145016 -0.0682235 0)
(-0.00418763 -0.0749417 0)
(-0.0130238 -0.0788872 0)
(0.00915612 -0.0867819 0)
(-0.016887 -0.130919 0)
(0.00885196 -0.224547 0)
(0.00726579 0.0825044 0)
(0.0112916 0.111976 0)
(0.0144757 0.110832 0)
(0.0142048 0.0968313 0)
(0.0138091 0.0819228 0)
(0.0102044 0.0771318 0)
(0.00917074 0.0728839 0)
(0.00863027 0.0625408 0)
(0.00783022 0.0462334 0)
(0.00794093 0.0264881 0)
(0.00708119 0.00516329 0)
(0.00720907 -0.0156056 0)
(0.00446871 -0.0351165 0)
(0.00502342 -0.0519627 0)
(-0.000624783 -0.0692623 0)
(0.00594132 -0.076 0)
(-0.00632478 -0.0821677 0)
(0.0127642 -0.0850658 0)
(-0.0172658 -0.126639 0)
(0.0123955 -0.22842 0)
(0.00790644 0.0715128 0)
(0.0161305 0.105723 0)
(0.0226894 0.107383 0)
(0.0243497 0.0985865 0)
(0.0253641 0.0821075 0)
(0.0241209 0.076914 0)
(0.0256603 0.0723876 0)
(0.0278755 0.0625972 0)
(0.0289043 0.0468312 0)
(0.0299846 0.0276336 0)
(0.0290333 0.00656095 0)
(0.0286166 -0.0134402 0)
(0.0241796 -0.032273 0)
(0.0222921 -0.0496648 0)
(0.0153803 -0.0649128 0)
(0.0156653 -0.0730493 0)
(0.0011143 -0.0793592 0)
(0.017361 -0.0801465 0)
(-0.0175176 -0.123538 0)
(0.0147195 -0.232054 0)
(0.0130802 0.0579514 0)
(0.0213212 0.0994969 0)
(0.0298399 0.103465 0)
(0.0317935 0.0984547 0)
(0.035129 0.0835893 0)
(0.0362085 0.0752046 0)
(0.0395268 0.0701471 0)
(0.0445152 0.0612204 0)
(0.0476726 0.0467311 0)
(0.0501676 0.0290454 0)
(0.0494333 0.0089468 0)
(0.0488921 -0.0100295 0)
(0.0432604 -0.0280011 0)
(0.0396768 -0.0436229 0)
(0.0304629 -0.0591268 0)
(0.0271014 -0.0678786 0)
(0.00878063 -0.0737994 0)
(0.0209256 -0.0734142 0)
(-0.0178877 -0.117205 0)
(0.0197975 -0.232815 0)
(0.0155496 0.0318959 0)
(0.0260083 0.0843252 0)
(0.0374456 0.0959295 0)
(0.0420264 0.092852 0)
(0.0457849 0.0817514 0)
(0.0488757 0.0699985 0)
(0.0527336 0.0625914 0)
(0.0592046 0.0541608 0)
(0.0638607 0.0419747 0)
(0.068022 0.0269901 0)
(0.0676146 0.0101343 0)
(0.0673862 -0.0067841 0)
(0.0605017 -0.0225356 0)
(0.0557176 -0.0369558 0)
(0.0445825 -0.0502528 0)
(0.0376302 -0.0587566 0)
(0.0164273 -0.0632311 0)
(0.0243657 -0.0639778 0)
(-0.016061 -0.11425 0)
(0.0242071 -0.233495 0)
(0.00464054 0.0135723 0)
(0.0247503 0.073327 0)
(0.03814 0.0887937 0)
(0.0466564 0.0875477 0)
(0.0533832 0.0791219 0)
(0.0595262 0.06735 0)
(0.0642712 0.0577698 0)
(0.0714001 0.0487989 0)
(0.076352 0.0379092 0)
(0.0814304 0.0257277 0)
(0.0815364 0.0116763 0)
(0.0817138 -0.00214712 0)
(0.0750075 -0.0158399 0)
(0.0700027 -0.0280008 0)
(0.0573346 -0.0395872 0)
(0.0479204 -0.0467757 0)
(0.0237095 -0.0505349 0)
(0.0271046 -0.0534513 0)
(-0.0137972 -0.110136 0)
(0.0319633 -0.23339 0)
(-0.00492213 0.00533749 0)
(0.0168427 0.0519159 0)
(0.0345283 0.0731871 0)
(0.0473388 0.075142 0)
(0.058086 0.0689488 0)
(0.0686568 0.0595509 0)
(0.0761122 0.0501967 0)
(0.0845137 0.0415615 0)
(0.0898395 0.0321488 0)
(0.0956495 0.0221055 0)
(0.0961621 0.0111684 0)
(0.096897 0.000352464 0)
(0.0903351 -0.0105221 0)
(0.0844803 -0.0197805 0)
(0.06944 -0.0281209 0)
(0.0572364 -0.0321321 0)
(0.0299335 -0.0346125 0)
(0.0297936 -0.0418309 0)
(-0.00680436 -0.109786 0)
(0.0405957 -0.233765 0)
(-0.0141152 0.0036475 0)
(-7.03052e-05 0.0400382 0)
(0.0210397 0.0612651 0)
(0.0389079 0.0631327 0)
(0.0547417 0.0586804 0)
(0.0706863 0.0511631 0)
(0.0821032 0.0433031 0)
(0.0932546 0.0361443 0)
(0.0998075 0.0289103 0)
(0.106278 0.0216227 0)
(0.107225 0.0136091 0)
(0.10742 0.00599331 0)
(0.101078 -0.00150689 0)
(0.0939372 -0.00721276 0)
(0.0779295 -0.0125123 0)
(0.0642507 -0.0131432 0)
(0.0371547 -0.0160473 0)
(0.0364481 -0.0324736 0)
(0.00759965 -0.112781 0)
(0.0545484 -0.226485 0)
(-0.0220844 0.0250462 0)
(-0.0250708 0.0146966 0)
(-0.000930187 0.0289205 0)
(0.0223744 0.0321153 0)
(0.0445893 0.0319347 0)
(0.0657229 0.0292196 0)
(0.0814206 0.0251526 0)
(0.0951132 0.0210014 0)
(0.104544 0.0169115 0)
(0.111954 0.0127384 0)
(0.115652 0.00930142 0)
(0.116095 0.0054725 0)
(0.112251 0.00269312 0)
(0.106561 0.00146562 0)
(0.0945358 -0.000723097 0)
(0.0855914 -0.00061659 0)
(0.0681608 -0.00770283 0)
(0.0673358 -0.0322575 0)
(0.049794 -0.105576 0)
(0.0786286 -0.179701 0)
(0.0397046 0.0375791 0)
(0.043378 0.0253655 0)
(0.0621344 0.0187802 0)
(0.0874059 0.0175426 0)
(0.110082 0.0173471 0)
(0.133337 0.0166985 0)
(0.152987 0.0159084 0)
(0.172791 0.0144191 0)
(0.187634 0.0137794 0)
(0.202954 0.0119753 0)
(0.213332 0.0117076 0)
(0.224403 0.00979974 0)
(0.231078 0.0101389 0)
(0.237969 0.00838302 0)
(0.241164 0.00937679 0)
(0.244758 0.00723657 0)
(0.243138 0.00527878 0)
(0.2331 -0.00172483 0)
(0.197802 -0.0143052 0)
(0.14882 -0.0345035 0)
)
;

boundaryField
{
    movingWall
    {
        type            fixedValue;
        value           uniform (1 0 0);
    }
    fixedWalls
    {
        type            noSlip;
    }
    frontAndBack
    {
        type            empty;
    }
}


// ************************************************************************* //
