#           v             n
     0.523599             0
     0.648652             0
     0.790112             0
     0.953116             0
      1.13449             0
      1.34047             0
      1.56672             0
      1.82069             0
      2.09677   8.42336e-11
      2.40376   3.24877e-09
      2.73462   6.78466e-08
      3.09966   7.10839e-07
      3.49026   5.44975e-06
      3.91837   2.75194e-05
      4.37366   0.000111215
      4.86986   0.000332075
       5.3948   0.000830717
      5.96412    0.00163155
      6.56366    0.00275368
      7.21112    0.00377988
      7.89023    0.00452842
      8.62085    0.00451618
      9.38447    0.00397702
      10.2033    0.00296725
      11.0564    0.00197485
      11.9684    0.00112983
      12.9159   0.000581994
      13.9262    0.00026089
      14.9731   0.000355394
