#           v             n
  9.71334e-06       2.29297
  1.21417e-05      0.326111
  1.51771e-05      0.417422
  1.89714e-05        0.5343
  2.37142e-05       0.64116
  2.96428e-05      0.793329
  3.70535e-05      0.997953
  4.63168e-05       1.23256
   5.7896e-05       1.54182
  7.23701e-05       1.92763
  9.04626e-05       2.40569
  0.000113078       2.99844
  0.000141348       3.73815
  0.000176685       4.65546
  0.000220856       5.79391
   0.00027607       7.20236
  0.000345087       8.94107
  0.000431359       11.0803
  0.000539199       13.7019
  0.000673999        16.898
  0.000842498       20.7695
   0.00105312       25.4207
    0.0013164       30.9503
    0.0016455       37.4354
   0.00205688       44.9083
    0.0025711       53.3217
   0.00321388       62.5029
   0.00401735       72.0967
   0.00502168       81.5093
    0.0062771       89.8659
   0.00784638       96.0178
   0.00980797       98.6443
      0.01226       96.4924
     0.015325       88.7753
    0.0191562        75.651
    0.0239452       58.5784
    0.0299316       40.2406
    0.0374144       23.8011
    0.0467681       11.6758
    0.0584601       4.53334
    0.0730751       1.31403
    0.0913439       0.26431
      0.11418     0.0336721
     0.142725    0.00242375
     0.178406   8.54638e-05
     0.223007   1.23494e-06
     0.278759   5.87743e-09
     0.348449             0
     0.435561             0
     0.544452             0
     0.680565             0
     0.850706             0
      1.06338             0
      1.32923             0
      1.66153             0
      2.07692             0
      2.59615             0
      3.24519             0
      4.05648             0
       5.0706             0
      6.33825             0
      7.92282             0
      9.90352             0
      12.3794             0
      15.4743             0
      19.3428             0
      24.1785             0
      30.2231             0
      37.7789             0
      47.2237             0
      59.0296             0
