/*--------------------------------*- C++ -*----------------------------------*\
  =========                 |
  \\      /  F ield         | OpenFOAM: The Open Source CFD Toolbox
   \\    /   O peration     | Website:  https://openfoam.org
    \\  /    A nd           | Version:  12
     \\/     M anipulation  |
\*---------------------------------------------------------------------------*/
FoamFile
{
    format      ascii;
    class       volScalarField;
    location    "0.2";
    object      epsilon;
}
// * * * * * * * * * * * * * * * * * * * * * * * * * * * * * * * * * * * * * //

dimensions      [0 2 -3 0 0 0 0];

internalField   nonuniform List<scalar> 
12225
(
278.515
263.66
249.434
236.839
226.738
219.483
215.069
213.263
213.706
215.991
219.713
224.504
230.043
236.066
242.373
248.793
255.363
264.876
61.116
86.6953
97.9914
107.208
118.465
132.557
149.411
168.612
189.578
211.684
234.338
257.029
279.354
301.015
321.919
341.901
362.483
381.036
25.2776
36.183
43.3817
48.6213
53.3864
58.3363
63.7706
69.8256
76.5263
83.8242
91.6294
99.8325
108.322
116.998
125.793
134.688
143.831
153.215
17.5217
21.2986
24.7145
27.61
30.162
32.5401
34.8667
37.228
39.6772
42.2407
44.9261
47.7289
50.6381
53.6412
56.7297
59.9111
63.2041
66.635
15.4878
16.7519
18.1858
19.5889
20.9095
22.149
23.3264
24.4652
25.5864
26.7052
27.8313
28.9705
30.1255
31.298
32.4894
33.7048
34.9491
36.2189
14.9084
15.2396
15.7463
16.3341
16.9476
17.5589
18.1558
18.7356
19.3002
19.8526
20.3962
20.9336
21.4668
21.9978
22.5282
23.0604
23.596
24.1294
14.7451
14.7391
14.8342
15.0036
15.2215
15.4679
15.7286
15.9948
16.262
16.5275
16.7902
17.0499
17.3066
17.5605
17.8122
18.0624
18.3116
18.5555
14.7012
14.5825
14.5116
14.4858
14.4981
14.5403
14.6043
14.6837
14.7737
14.8708
14.9725
15.0772
15.1837
15.2914
15.3997
15.5085
15.6175
15.7241
14.6901
14.5373
14.407
14.3009
14.2182
14.1571
14.1145
14.0875
14.0733
14.0693
14.0735
14.0844
14.1007
14.1212
14.1453
14.1723
14.2017
14.232
14.6874
14.5252
14.3761
14.2411
14.1204
14.0137
13.9203
13.8391
13.7688
13.7083
13.6564
13.6119
13.574
13.5419
13.5147
13.492
13.4731
13.4574
14.6868
14.5221
14.3677
14.2236
14.0896
13.9656
13.8512
13.746
13.6495
13.5611
13.4801
13.4061
13.3383
13.2763
13.2197
13.1678
13.1204
13.0772
14.6866
14.5213
14.3656
14.219
14.0812
13.9518
13.8305
13.7169
13.6105
13.5111
13.4182
13.3314
13.2503
13.1747
13.104
13.038
12.9764
12.9194
14.6865
14.521
14.3648
14.2175
14.0785
13.9473
13.8234
13.7065
13.5963
13.4922
13.3941
13.3015
13.2142
13.1319
13.0543
12.981
12.912
12.8475
14.6864
14.5208
14.3645
14.2169
14.0774
13.9456
13.8209
13.7029
13.5913
13.4855
13.3853
13.2904
13.2005
13.1152
13.0344
12.9578
12.8853
12.8171
14.6864
14.5207
14.3643
14.2165
14.0769
13.9449
13.8199
13.7016
13.5895
13.4832
13.3824
13.2868
13.196
13.1098
13.0279
12.9501
12.8762
12.8068
14.6863
14.5206
14.3641
14.2163
14.0766
13.9444
13.8194
13.7009
13.5886
13.4822
13.3812
13.2854
13.1943
13.1079
13.0257
12.9475
12.8732
12.8033
14.6863
14.5205
14.364
14.2161
14.0763
13.9441
13.8189
13.7004
13.5881
13.4815
13.3805
13.2845
13.1934
13.1068
13.0245
12.9462
12.8718
12.8018
14.6863
14.5204
14.3639
14.216
14.0761
13.9439
13.8187
13.7001
13.5877
13.4811
13.3799
13.2839
13.1927
13.1061
13.0237
12.9454
12.8709
12.8008
14.6863
14.5204
14.3639
14.2159
14.0761
13.9438
13.8186
13.6999
13.5875
13.4809
13.3797
13.2837
13.1925
13.1058
13.0233
12.9449
12.8704
12.8003
14.6863
14.5205
14.3639
14.216
14.0762
13.9439
13.8187
13.7001
13.5877
13.4811
13.38
13.284
13.1928
13.1061
13.0237
12.9454
12.8709
12.8008
14.6863
14.5205
14.364
14.2162
14.0764
13.9443
13.8192
13.7007
13.5885
13.4821
13.3812
13.2854
13.1945
13.1082
13.0262
12.9483
12.8742
12.8046
14.6863
14.5206
14.3643
14.2167
14.0773
13.9457
13.8214
13.7039
13.5928
13.4879
13.3886
13.2947
13.2059
13.1218
13.0423
12.9669
12.8956
12.8288
14.6865
14.5212
14.3659
14.2202
14.0837
13.956
13.8368
13.7256
13.6218
13.525
13.4348
13.3506
13.272
13.1986
13.13
13.0659
13.006
12.9505
14.6876
14.5264
14.3793
14.2467
14.1282
14.0231
13.9302
13.8484
13.7762
13.7126
13.6565
13.6068
13.5628
13.5237
13.489
13.4581
13.4306
13.4066
14.6976
14.5664
14.4707
14.4075
14.3714
14.3568
14.3584
14.372
14.3941
14.4224
14.455
14.4908
14.5286
14.568
14.6085
14.6496
14.6912
14.7332
14.7737
14.8187
14.9603
15.1591
15.3863
15.6233
15.8597
16.0904
16.3134
16.5284
16.7358
16.9364
17.1312
17.3209
17.5064
17.6882
17.8667
18.0415
15.2587
16.1151
17.0712
17.9727
18.7879
19.5238
20.1944
20.8148
21.3987
21.9572
22.4986
23.0289
23.5525
24.0723
24.59
25.1064
25.6218
26.1337
18.0414
22.0079
24.9885
27.1532
28.8883
30.4049
31.8125
33.1784
34.5437
35.9309
37.3511
38.8081
40.301
41.8258
43.3769
44.948
46.5326
48.1176
34.024
45.6878
51.3768
54.9424
58.0809
61.2981
64.751
68.4834
72.4795
76.6962
81.0833
85.5911
90.1731
94.7875
99.3986
103.978
108.509
112.965
163.308
157.417
151.704
146.261
141.3
136.947
133.25
130.206
127.78
125.918
124.558
123.637
123.093
122.87
122.917
123.187
123.641
124.242
0.265131
0.309003
0.505994
0.686246
0.882896
1.10733
1.36255
1.65408
1.9814
2.32052
2.67278
3.03639
3.40885
3.78768
4.17057
4.55536
4.93999
5.32249
5.70091
6.07332
6.43777
6.79221
7.13443
7.46201
7.77226
8.06228
8.32906
8.56961
8.78083
8.95864
9.09572
9.17884
9.19358
9.16195
9.22217
9.29146
9.31843
9.39169
39.9502
9.45008
40.0031
40.9191
40.6037
41.0625
43.8215
46.8358
50.0402
53.4194
56.9704
60.6911
64.5818
68.6435
72.878
77.2873
81.8737
86.6394
91.5865
96.7171
102.033
107.536
113.226
119.106
125.176
131.436
137.885
144.524
151.351
158.365
165.565
172.946
180.508
188.246
196.157
204.237
212.48
220.882
229.436
238.138
246.979
255.954
265.055
274.275
283.604
293.035
302.559
312.166
321.847
331.592
341.39
351.232
361.104
370.997
380.897
390.794
400.674
410.529
420.35
430.136
439.897
449.667
459.402
469.006
478.478
487.809
496.987
505.995
514.82
523.444
531.853
540.03
547.96
555.629
563.022
570.125
576.924
583.407
589.56
595.372
600.833
605.931
610.658
615.005
618.963
622.526
625.688
628.444
630.789
632.72
634.235
635.333
636.013
636.277
636.126
635.562
634.591
633.216
631.443
629.28
626.732
623.81
620.523
616.879
612.892
608.571
603.93
598.981
593.738
588.214
582.425
576.385
570.11
563.614
556.914
550.026
542.964
535.746
528.389
520.906
513.317
505.635
497.87
490.063
482.183
474.325
466.57
460.188
457.174
454.5
451.833
449.153
446.462
443.76
441.038
438.275
435.427
432.39
428.931
424.443
417.445
401.524
0.962314
0.59322
0.610788
0.704389
0.839858
1.00764
1.2061
1.43315
1.68499
1.95615
2.24313
2.54332
2.85463
3.17541
3.50428
3.84007
4.18181
4.5287
4.88011
5.23565
5.59517
5.95886
6.32726
6.70141
7.08301
7.4747
7.88066
8.30748
8.76576
9.27235
9.85312
10.5431
11.3677
12.2807
13.1422
14.0627
15.1335
16.3698
18.3033
19.0423
21.2874
22.7174
24.6211
26.2806
27.8582
29.459
31.1055
32.8099
34.5743
36.4004
38.2898
40.2438
42.2636
44.3503
46.5048
48.7278
51.0201
53.382
55.8142
58.3167
60.8897
63.5334
66.2474
69.0316
71.8856
74.8088
77.8006
80.8601
83.9864
87.1783
90.4347
93.7539
97.1346
100.575
104.073
107.627
111.235
114.895
118.603
122.358
126.157
129.996
133.874
137.787
141.732
145.705
149.703
153.722
157.759
161.809
165.868
169.932
173.998
178.061
182.117
186.165
190.203
194.236
198.27
202.329
206.41
210.453
214.448
218.39
222.273
226.091
229.839
233.51
237.097
240.596
244
247.304
250.501
253.587
256.555
259.402
262.121
264.708
267.158
269.468
271.634
273.651
275.517
277.228
278.781
280.175
281.407
282.475
283.378
284.116
284.687
285.091
285.329
285.401
285.308
285.051
284.632
284.052
283.316
282.424
281.38
280.188
278.851
277.373
275.759
274.013
272.14
270.145
268.033
265.81
263.481
261.053
258.529
255.919
253.226
250.456
247.619
244.716
241.757
238.748
235.688
232.602
229.452
226.325
223.256
220.492
218.362
216.387
214.443
212.509
210.582
208.66
206.745
204.836
202.929
201.018
199.078
197.098
194.955
193.72
1.8883
0.982724
0.905847
0.96071
1.06894
1.21516
1.39375
1.60095
1.8329
2.08565
2.35574
2.64045
2.93772
3.24616
3.5648
3.8931
4.2308
4.57792
4.93474
5.30187
5.6802
6.07105
6.47611
6.8976
7.33832
7.80178
8.29238
8.81568
9.3787
9.99011
10.6601
11.3985
12.2061
13.0621
13.9412
14.8631
15.8419
16.8765
17.9973
19.1248
20.3593
21.6131
22.933
24.2485
25.568
26.9183
28.3125
29.756
31.2503
32.796
34.3935
36.0434
37.7461
39.502
41.3115
43.1748
45.0923
47.0641
49.0904
51.1712
53.3066
55.4965
57.7406
60.0387
62.3905
64.7956
67.2533
69.7632
72.3244
74.9361
77.5975
80.3074
83.0647
85.8682
88.7166
91.6083
94.5418
97.5154
100.527
103.576
106.659
109.774
112.92
116.093
119.292
122.514
125.757
129.018
132.294
135.582
138.881
142.187
145.498
148.813
152.129
155.447
158.766
162.087
165.413
168.743
172.058
175.343
178.59
181.795
184.952
188.057
191.104
194.089
197.007
199.853
202.621
205.308
207.909
210.419
212.834
215.15
217.362
219.467
221.462
223.342
225.104
226.746
228.265
229.658
230.923
232.058
233.062
233.933
234.67
235.272
235.739
236.07
236.267
236.328
236.255
236.049
235.711
235.243
234.647
233.925
233.08
232.114
231.03
229.832
228.522
227.105
225.585
223.966
222.251
220.445
218.554
216.58
214.529
212.407
210.217
207.963
205.654
203.29
200.88
198.427
195.926
193.416
190.879
188.346
185.846
183.472
181.321
179.266
177.247
175.246
173.26
171.289
169.334
167.401
165.494
163.625
161.812
160.117
158.631
158.152
2.93139
1.41994
1.2286
1.23961
1.32592
1.45792
1.62514
1.82213
2.0448
2.28953
2.55316
2.83309
3.12737
3.43469
3.75428
4.08582
4.42939
4.78537
5.15447
5.53764
5.93615
6.35154
6.78564
7.24057
7.7188
8.22306
8.75642
9.32223
9.924
10.5653
11.2494
11.9789
12.7538
13.5702
14.4242
15.3187
16.257
17.24
18.2701
19.3426
20.4616
21.6203
22.8191
24.0509
25.3155
26.618
27.963
29.3537
30.7917
32.2779
33.8132
35.3979
37.0327
38.7179
40.4541
42.2415
44.0806
45.9716
47.9148
49.9104
51.9586
54.0595
56.213
58.4192
60.678
62.989
65.3521
67.7669
70.2327
72.7492
75.3155
77.9308
80.5943
83.305
86.0616
88.8628
91.7074
94.5938
97.5204
100.485
103.487
106.523
109.592
112.692
115.819
118.972
122.149
125.347
128.563
131.796
135.042
138.3
141.567
144.841
148.12
151.404
154.691
157.978
161.264
164.538
167.789
171.009
174.192
177.333
180.426
183.468
186.451
189.372
192.226
195.007
197.711
200.333
202.869
205.313
207.661
209.91
212.055
214.092
216.018
217.829
219.523
221.096
222.545
223.868
225.064
226.13
227.064
227.867
228.535
229.069
229.469
229.735
229.866
229.863
229.728
229.462
229.065
228.54
227.889
227.114
226.218
225.204
224.074
222.833
221.483
220.029
218.475
216.824
215.081
213.251
211.338
209.346
207.278
205.144
202.946
200.684
198.374
196.007
193.599
191.162
188.691
186.201
183.695
181.186
178.698
176.275
173.956
171.701
169.481
167.285
165.109
162.956
160.829
158.735
156.684
154.695
152.802
151.081
149.648
148.969
3.93633
1.84509
1.53853
1.50899
1.57579
1.69595
1.85437
2.04388
2.25992
2.49899
2.75814
3.03502
3.3278
3.63525
3.95667
4.29182
4.64087
5.00431
5.3829
5.77768
6.18989
6.62097
7.07255
7.54644
8.04457
8.56903
9.122
9.7057
10.3223
10.9738
11.6619
12.3882
13.1534
13.9576
14.8009
15.684
16.6083
17.5744
18.5828
19.6334
20.7263
21.8607
23.0366
24.2533
25.5111
26.8115
28.1566
29.548
30.9872
32.4753
34.0131
35.6016
37.2414
38.9332
40.6777
42.4757
44.3276
46.234
48.1956
50.2127
52.2859
54.4155
56.6018
58.845
61.1454
63.5029
65.9176
68.3893
70.9177
73.5024
76.143
78.8388
81.5891
84.3928
87.249
90.1565
93.1138
96.1194
99.1718
102.269
105.409
108.591
111.811
115.067
118.358
121.68
125.031
128.408
131.809
135.231
138.671
142.126
145.594
149.072
152.558
156.049
159.542
163.035
166.516
169.978
173.412
176.813
180.173
183.488
186.752
189.959
193.103
196.179
199.182
202.106
204.946
207.697
210.353
212.91
215.362
217.706
219.938
222.052
224.045
225.914
227.655
229.265
230.741
232.082
233.284
234.347
235.267
236.046
236.681
237.171
237.518
237.721
237.78
237.697
237.472
237.108
236.605
235.967
235.196
234.293
233.263
232.109
230.835
229.443
227.938
226.324
224.607
222.789
220.876
218.873
216.786
214.618
212.371
210.059
207.682
205.236
202.75
200.217
197.643
195.038
192.403
189.749
187.079
184.407
181.746
179.124
176.559
174.041
171.556
169.099
166.668
164.267
161.901
159.58
157.316
155.134
153.07
151.201
149.621
148.59
4.84148
2.22715
1.81984
1.75439
1.80379
1.91335
2.06387
2.24655
2.45633
2.68966
2.9438
3.21657
3.50632
3.81191
4.13268
4.46841
4.81925
5.18569
5.56845
5.96851
6.387
6.82524
7.28468
7.76686
8.27344
8.80616
9.36681
9.95717
10.579
11.234
11.9236
12.6492
13.412
14.213
15.0531
15.9331
16.8539
17.8163
18.821
19.8685
20.9592
22.0938
23.2725
24.4961
25.7651
27.0807
28.444
29.8566
31.3196
32.8344
34.4021
36.0238
37.7006
39.4335
41.2236
43.0718
44.9792
46.9467
48.9752
51.0656
53.2186
55.435
57.7154
60.0605
62.4707
64.9463
67.4876
70.0948
72.7678
75.5064
78.3103
81.179
84.1119
87.108
90.1663
93.2856
96.4644
99.7012
102.994
106.341
109.741
113.19
116.686
120.226
123.809
127.431
131.088
134.779
138.499
142.246
146.016
149.805
153.611
157.43
161.258
165.091
168.926
172.757
176.568
180.354
184.108
187.824
191.494
195.113
198.674
202.17
205.597
208.946
212.212
215.389
218.471
221.452
224.326
227.089
229.734
232.257
234.652
236.916
239.044
241.033
242.877
244.576
246.124
247.521
248.764
249.851
250.78
251.551
252.163
252.616
252.908
253.042
253.018
252.837
252.501
252.012
251.371
250.583
249.649
248.573
247.358
246.009
244.53
242.925
241.198
239.353
237.399
235.339
233.177
230.917
228.572
226.142
223.624
221.045
218.403
215.698
212.945
210.146
207.307
204.436
201.537
198.618
195.686
192.75
189.822
186.918
184.052
181.223
178.426
175.661
172.929
170.235
167.584
164.989
162.465
160.037
157.744
155.652
153.827
152.416
5.60727
2.56044
2.06591
1.96847
2.0019
2.10141
2.24415
2.41984
2.62287
2.8496
3.09739
3.36425
3.64867
3.94963
4.26652
4.59914
4.94763
5.31243
5.69424
6.09395
6.51265
6.95155
7.41198
7.89539
8.4033
8.9373
9.49902
10.0901
10.7122
11.3669
12.0558
12.7802
13.5415
14.3411
15.1799
16.0592
16.98
17.9434
18.9501
20.0013
21.0977
22.2405
23.4305
24.6688
25.9564
27.2945
28.6844
30.1276
31.6254
33.1794
34.7911
36.4619
38.1934
39.987
41.8441
43.7662
45.7547
47.8109
49.9364
52.1322
54.3998
56.7401
59.1543
61.6434
64.2082
66.8494
69.5676
72.3631
75.2362
78.187
81.2152
84.3205
87.5022
90.7597
94.0916
97.4969
100.974
104.521
108.135
111.816
115.559
119.363
123.224
127.14
131.107
135.122
139.181
143.28
147.416
151.584
155.782
160.003
164.244
168.501
172.769
177.043
181.319
185.578
189.815
194.021
198.188
202.311
206.381
210.392
214.336
218.205
221.993
225.693
229.296
232.797
236.189
239.464
242.618
245.642
248.533
251.284
253.889
256.345
258.645
260.786
262.764
264.576
266.219
267.689
268.985
270.106
271.049
271.813
272.399
272.807
273.035
273.087
272.962
272.662
272.189
271.547
270.738
269.765
268.632
267.343
265.9
264.312
262.581
260.714
258.714
256.585
254.339
251.98
249.51
246.933
244.27
241.52
238.685
235.779
232.808
229.775
226.69
223.559
220.388
217.185
213.954
210.705
207.443
204.177
200.918
197.677
194.465
191.285
188.139
185.029
181.958
178.933
175.961
173.055
170.232
167.518
164.949
162.581
160.456
158.656
6.24743
2.84427
2.27395
2.14758
2.16591
2.25543
2.39007
2.55821
2.75369
2.97271
3.21272
3.47185
3.74875
4.04251
4.3526
4.67886
5.02145
5.38079
5.75755
6.15261
6.567
7.00189
7.45858
7.93845
8.44297
8.97367
9.53213
10.12
10.7388
11.3902
12.0758
12.797
13.5554
14.3525
15.1895
16.0678
16.9888
17.9537
18.9638
20.0204
21.1248
22.2784
23.4825
24.7386
26.0481
27.4126
28.8336
30.3128
31.8522
33.4534
35.1185
36.8493
38.6477
40.5158
42.4556
44.4688
46.5576
48.7238
50.9692
53.2957
55.7049
58.1986
60.7783
63.4453
66.2009
69.0462
71.9822
75.0094
78.1284
81.3395
84.6425
88.0373
91.5233
95.0996
98.765
102.518
106.357
110.28
114.284
118.367
122.526
126.758
131.059
135.425
139.852
144.338
148.876
153.463
158.094
162.764
167.468
172.202
176.959
181.734
186.521
191.314
196.105
200.871
205.607
210.305
214.958
219.557
224.095
228.562
232.951
237.252
241.459
245.561
249.553
253.425
257.171
260.782
264.253
267.575
270.742
273.749
276.589
279.257
281.748
284.057
286.18
288.113
289.853
291.399
292.747
293.896
294.845
295.593
296.14
296.485
296.631
296.578
296.328
295.883
295.246
294.419
293.408
292.217
290.848
289.307
287.597
285.726
283.702
281.529
279.21
276.748
274.164
271.46
268.64
265.709
262.682
259.563
256.358
253.076
249.726
246.312
242.845
239.33
235.776
232.188
228.576
224.945
221.303
217.659
214.021
210.4
206.805
203.241
199.714
196.227
192.786
189.399
186.075
182.827
179.673
176.64
173.758
171.073
168.61
166.419
6.76071
3.07725
2.44271
2.29035
2.29424
2.3736
2.49962
2.65949
2.84653
3.0568
3.28775
3.53763
3.80523
4.08975
4.39076
4.70816
5.04215
5.39316
5.76187
6.14913
6.55597
6.98354
7.4331
7.90603
8.40377
8.92783
9.47978
10.0612
10.6738
11.3191
11.9988
12.7146
13.4681
14.2608
15.0944
15.9706
16.8908
17.8568
18.87
19.9323
21.0454
22.2109
23.4307
24.7066
26.0406
27.4347
28.8908
30.4112
31.9981
33.6538
35.3809
37.1816
39.0586
41.0144
43.0515
45.1724
47.3798
49.676
52.0636
54.5449
57.1222
59.7976
62.5732
65.4509
68.4324
71.5192
74.7125
78.0133
81.4224
84.9401
88.5666
92.3017
96.1447
100.095
104.15
108.31
112.572
116.933
121.39
125.941
130.581
135.308
140.116
145.001
149.959
154.985
160.072
165.217
170.414
175.656
180.938
186.253
191.596
196.959
202.335
207.718
213.079
218.411
223.704
228.952
234.145
239.273
244.327
249.297
254.175
258.949
263.611
268.152
272.563
276.835
280.96
284.929
288.734
292.369
295.827
299.099
302.181
305.065
307.748
310.222
312.484
314.531
316.36
317.967
319.352
320.513
321.448
322.157
322.64
322.899
322.933
322.747
322.341
321.718
320.881
319.836
318.587
317.139
315.496
313.665
311.644
309.451
307.093
304.573
301.897
299.072
296.111
293.021
289.808
286.48
283.047
279.517
275.897
272.197
268.425
264.589
260.697
256.757
252.777
248.766
244.731
240.679
236.618
232.557
228.504
224.469
220.46
216.484
212.548
208.659
204.822
201.047
197.345
193.73
190.22
186.838
183.613
180.582
177.754
175.168
7.14989
3.25982
2.57269
2.39737
2.38745
2.45643
2.57327
2.72413
2.90191
3.10252
3.3234
3.56289
3.81988
4.09371
4.38404
4.69084
5.01435
5.35504
5.71359
6.09087
6.48788
6.90578
7.34582
7.80935
8.29783
8.81275
9.35571
9.92833
10.5323
11.1693
11.8411
12.5495
13.2963
14.0834
14.9125
15.7856
16.7046
17.6716
18.6884
19.7572
20.8802
22.0595
23.2976
24.5966
25.9591
27.3876
28.8848
30.4533
32.096
33.8158
35.6158
37.4991
39.4689
41.5283
43.6805
45.9289
48.2765
50.7266
53.2823
55.9465
58.722
61.6118
64.6182
67.7437
70.9905
74.3603
77.8549
81.4754
85.2228
89.0976
93.0999
97.2295
101.486
105.867
110.373
115
119.746
124.608
129.583
134.667
139.855
145.142
150.524
155.995
161.549
167.18
172.883
178.651
184.478
190.356
196.278
202.238
208.227
214.237
220.262
226.279
232.262
238.206
244.101
249.939
255.708
261.4
267.002
272.504
277.894
283.163
288.299
293.292
298.134
302.813
307.322
311.65
315.79
319.734
323.474
327.002
330.313
333.4
336.257
338.877
341.257
343.394
345.285
346.927
348.319
349.46
350.348
350.985
351.37
351.505
351.392
351.033
350.432
349.593
348.517
347.21
345.682
343.937
341.98
339.818
337.456
334.905
332.174
329.269
326.198
322.969
319.593
316.079
312.435
308.67
304.794
300.816
296.745
292.591
288.362
284.068
279.717
275.319
270.881
266.413
261.923
257.419
252.909
248.402
243.905
239.429
234.982
230.572
226.206
221.893
217.641
213.459
209.359
205.356
201.467
197.715
194.124
190.724
187.515
184.53
7.42179
3.39423
2.66594
2.47071
2.44774
2.50621
2.61337
2.75461
2.92246
3.11271
3.3228
3.55113
3.7967
4.05894
4.3376
4.63272
4.9446
5.27373
5.62082
5.98673
6.37247
6.77919
7.20816
7.66072
8.13834
8.64255
9.17499
9.73733
10.3314
10.9589
11.6219
12.3222
13.062
13.8432
14.6682
15.5391
16.4582
17.428
18.4508
19.5294
20.6663
21.8643
23.1262
24.4551
25.854
27.3261
28.8747
30.5031
32.2151
34.0141
35.9041
37.8888
39.9721
42.1581
44.4507
46.8539
49.3717
52.0079
54.7663
57.6506
60.6642
63.8103
67.0921
70.5124
74.0737
77.7783
81.6279
85.624
89.7676
94.0592
98.4988
103.086
107.82
112.698
117.719
122.881
128.179
133.611
139.171
144.856
150.659
156.575
162.596
168.718
174.932
181.233
187.612
194.063
200.577
207.148
213.766
220.424
227.112
233.82
240.536
247.215
253.851
260.434
266.956
273.404
279.768
286.036
292.197
298.236
304.142
309.903
315.507
320.944
326.203
331.274
336.148
340.814
345.264
349.49
353.482
357.235
360.742
363.996
366.989
369.716
372.173
374.358
376.267
377.9
379.254
380.329
381.126
381.644
381.883
381.847
381.538
380.96
380.118
379.015
377.657
376.05
374.2
372.116
369.804
367.271
364.525
361.576
358.433
355.105
351.601
347.931
344.104
340.131
336.022
331.787
327.435
322.978
318.426
313.787
309.073
304.293
299.456
294.573
289.652
284.703
279.734
274.754
269.773
264.798
259.838
254.902
249.999
245.138
240.328
235.577
230.895
226.291
221.779
217.373
213.091
208.952
204.979
201.195
197.593
194.209
7.58681
3.48428
2.72564
2.51364
2.47849
2.52648
2.62365
2.75484
2.91233
3.0918
3.29072
3.50753
3.74133
3.99162
4.25822
4.54125
4.84103
5.15811
5.4932
5.84719
6.2211
6.61608
7.03342
7.47452
7.94087
8.43407
8.95584
9.50799
10.0924
10.7111
11.3663
12.0601
12.7948
13.5729
14.397
15.2696
16.1937
17.172
18.2076
19.3037
20.4635
21.6905
22.9882
24.3603
25.8106
27.3431
28.9618
30.6711
32.4752
34.3788
36.3864
38.5027
40.7326
43.0808
45.5522
48.1517
50.8839
53.7535
56.7651
59.9226
63.2302
66.6915
70.31
74.0889
78.0309
82.1384
86.4134
90.8572
95.4706
100.254
105.207
110.328
115.616
121.069
126.683
132.455
138.382
144.457
150.677
157.034
163.523
170.135
176.863
183.699
190.634
197.661
204.771
211.957
219.209
226.519
233.878
241.274
248.7
256.144
263.547
270.903
278.199
285.427
292.573
299.627
306.574
313.404
320.104
326.66
333.054
339.275
345.312
351.154
356.789
362.208
367.399
372.353
377.06
381.513
385.702
389.621
393.264
396.628
399.698
402.469
404.941
407.11
408.975
410.535
411.789
412.737
413.379
413.717
413.753
413.489
412.93
412.08
410.943
409.527
407.836
405.878
403.66
401.191
398.479
395.532
392.36
388.972
385.379
381.591
377.618
373.471
369.161
364.698
360.095
355.36
350.507
345.545
340.486
335.341
330.119
324.833
319.491
314.104
308.683
303.236
297.773
292.304
286.836
281.381
275.945
270.538
265.17
259.85
254.587
249.391
244.271
239.238
234.306
229.489
224.804
220.27
215.905
211.729
207.73
203.947
7.65831
3.53489
2.75584
2.53016
2.48389
2.52168
2.60882
2.72983
2.87683
3.04548
3.23327
3.43869
3.6609
3.89948
4.15431
4.42557
4.71362
5.01905
5.3426
5.68519
6.04787
6.43186
6.8385
7.26925
7.72571
8.20963
8.72284
9.26737
9.84533
10.459
11.1108
11.8033
12.5392
13.3215
14.153
15.0371
15.9771
16.9765
18.0391
19.1688
20.3696
21.6457
23.0017
24.442
25.9713
27.5946
29.3168
31.1431
33.0791
35.13
37.3016
39.5995
42.0295
44.5972
47.3084
50.1688
53.1839
56.3592
59.6997
63.21
66.894
70.7557
74.7986
79.0261
83.4408
88.045
92.8402
97.8274
103.007
108.378
113.94
119.69
125.626
131.745
138.042
144.513
151.152
157.952
164.908
172.013
179.258
186.635
194.131
201.737
209.444
217.245
225.129
233.087
241.111
249.19
257.314
265.471
273.655
281.793
289.874
297.886
305.818
313.657
321.391
329.006
336.49
343.828
351.012
358.025
364.841
371.453
377.85
384.02
389.953
395.638
401.064
406.221
411.1
415.693
419.992
423.989
427.678
431.055
434.111
436.841
439.244
441.315
443.056
444.464
445.539
446.283
446.697
446.784
446.545
445.985
445.11
443.923
442.431
440.641
438.561
436.197
433.559
430.656
427.496
424.091
420.45
416.584
412.504
408.221
403.747
399.093
394.271
389.293
384.17
378.915
373.54
368.055
362.473
356.806
351.064
345.258
339.401
333.501
327.571
321.619
315.656
309.691
303.734
297.793
291.879
286
280.165
274.385
268.669
263.027
257.47
252.008
246.656
241.427
236.338
231.406
226.647
222.078
217.685
213.509
7.65211
3.55178
2.76105
2.52472
2.46863
2.49682
2.57431
2.68545
2.82236
2.9807
3.158
3.35284
3.56441
3.79237
4.03668
4.29754
4.57541
4.8709
5.18485
5.51823
5.8722
6.24807
6.64731
7.07155
7.52258
8.00235
8.51299
9.0568
9.63626
10.2541
10.9131
11.6163
12.3672
13.1691
14.0258
14.9411
15.9193
16.9647
18.082
19.276
20.552
21.9151
23.3711
24.9254
26.5839
28.3524
30.2371
32.2444
34.3807
36.6528
39.0671
41.6303
44.3492
47.2303
50.2801
53.5049
56.911
60.5043
64.2907
68.275
72.4594
76.8472
81.442
86.2467
91.2634
96.4935
101.938
107.596
113.467
119.549
125.839
132.335
139.031
145.922
153.003
160.267
167.707
175.314
183.081
191
199.064
207.264
215.574
223.989
232.5
241.098
249.773
258.516
267.316
276.164
285.05
293.955
302.803
311.58
320.275
328.874
337.365
345.734
353.967
362.049
369.968
377.709
385.259
392.603
399.724
406.609
413.247
419.626
425.735
431.564
437.102
442.34
447.268
451.88
456.166
460.122
463.74
467.016
469.945
472.521
474.744
476.612
478.123
479.277
480.077
480.523
480.618
480.364
479.767
478.831
477.562
475.965
474.049
471.82
469.287
466.459
463.346
459.958
456.304
452.397
448.246
443.864
439.263
434.455
429.452
424.266
418.91
413.397
407.74
401.95
396.04
390.023
383.911
377.715
371.449
365.123
358.749
352.337
345.9
339.446
332.987
326.532
320.09
313.672
307.286
300.942
294.65
288.418
282.258
276.18
270.194
264.311
258.546
252.913
247.426
242.102
236.956
232.001
227.222
222.664
7.58602
3.54107
2.74603
2.50209
2.43783
2.45758
2.52641
2.62875
2.75677
2.90622
3.07471
3.26088
3.46402
3.68387
3.92045
4.1741
4.44533
4.73492
5.04381
5.37315
5.72428
6.09875
6.49827
6.92479
7.38044
7.86758
8.38879
8.94688
9.54491
10.1862
10.8743
11.6132
12.4069
13.26
14.1769
15.1628
16.2227
17.3625
18.588
19.9055
21.3215
22.843
24.4771
26.2309
28.1112
30.1246
32.2787
34.5812
37.0398
39.6621
42.4558
45.4281
48.5865
51.9378
55.4888
59.246
63.2156
67.4036
71.8165
76.4628
81.3335
86.4319
91.7618
97.325
103.122
109.152
115.415
121.907
128.626
135.568
142.727
150.099
157.675
165.45
173.414
181.559
189.876
198.355
206.986
215.758
224.661
233.683
242.809
252.027
261.328
270.701
280.137
289.626
299.156
308.727
318.286
327.769
337.164
346.457
355.634
364.681
373.584
382.33
390.904
399.292
407.48
415.455
423.202
430.708
437.959
444.942
451.645
458.058
464.169
469.968
475.447
480.595
485.406
489.872
493.986
497.742
501.135
504.161
506.816
509.098
511.005
512.535
513.689
514.468
514.875
514.91
514.579
513.885
512.833
511.43
509.681
507.594
505.178
502.44
499.391
496.039
492.396
488.473
484.28
479.829
475.133
470.203
465.053
459.695
454.143
448.409
442.507
436.449
430.249
423.921
417.476
410.928
404.289
397.572
390.79
383.953
377.073
370.163
363.232
356.292
349.353
342.425
335.517
328.639
321.8
315.01
308.279
301.616
295.032
288.536
282.14
275.855
269.694
263.672
257.803
252.103
246.583
241.257
236.109
231.187
7.4746
3.50777
2.71475
2.4664
2.39616
2.40936
2.47149
2.56719
2.68882
2.83228
2.99531
3.17668
3.37582
3.59259
3.82722
4.08022
4.35233
4.64459
4.95825
5.29482
5.65605
6.04394
6.46076
6.90905
7.39163
7.91162
8.47248
9.07795
9.73208
10.4393
11.2045
12.033
12.9305
13.9032
14.9569
16.098
17.3336
18.6713
20.119
21.6848
23.3775
25.206
27.1801
29.3109
31.6031
34.0628
36.7
39.5237
42.5426
45.7645
49.1972
52.8479
56.7233
60.8293
65.1715
69.7548
74.5833
79.6607
84.9899
90.5727
96.4067
102.491
108.824
115.405
122.229
129.295
136.597
144.129
151.885
159.859
168.041
176.424
184.999
193.755
202.683
211.77
221.007
230.381
239.881
249.496
259.213
269.02
278.905
288.858
298.866
308.922
319.015
329.143
339.279
349.342
359.303
369.149
378.867
388.442
397.861
407.109
416.174
425.042
433.7
442.133
450.329
458.275
465.959
473.368
480.489
487.312
493.825
500.018
505.882
511.408
516.587
521.411
525.875
529.97
533.693
537.038
540.001
542.579
544.77
546.572
547.984
549.007
549.641
549.889
549.753
549.238
548.347
547.087
545.462
543.479
541.147
538.473
535.467
532.137
528.495
524.549
520.313
515.796
511.012
505.973
500.691
495.179
489.451
483.519
477.398
471.1
464.64
458.031
451.286
444.418
437.442
430.369
423.213
415.986
408.701
401.369
394.003
386.613
379.21
371.806
364.41
357.032
349.683
342.37
335.105
327.896
320.752
313.684
306.7
299.813
293.031
286.368
279.836
273.448
267.218
261.162
255.289
249.613
244.117
238.852
7.35832
3.46484
2.67762
2.42881
2.35662
2.36763
2.4279
2.52246
2.64394
2.78848
2.95404
3.13966
3.34504
3.57038
3.81627
4.08368
4.37389
4.68852
5.02955
5.39926
5.80033
6.23578
6.70903
7.22392
7.78467
8.39598
9.06317
9.79206
10.5884
11.4586
12.41
13.4506
14.5896
15.8376
17.2008
18.6866
20.306
22.0694
23.9875
26.071
28.3304
30.7766
33.42
36.2707
39.3368
42.6262
46.1467
49.9061
53.9109
58.167
62.6794
67.4517
72.4872
77.7876
83.3539
89.1863
95.284
101.645
108.267
115.146
122.276
129.653
137.269
145.117
153.192
161.483
169.984
178.684
187.575
196.646
205.887
215.288
224.836
234.522
244.333
254.258
264.286
274.405
284.604
294.871
305.197
315.57
325.98
336.422
346.881
357.364
367.839
378.228
388.489
398.618
408.602
418.427
428.08
437.549
446.821
455.884
464.726
473.334
481.697
489.802
497.639
505.197
512.463
519.428
526.082
532.413
538.414
544.075
549.388
554.345
558.94
563.166
567.018
570.49
573.578
576.279
578.59
580.509
582.035
583.166
583.905
584.25
584.206
583.775
582.959
581.765
580.197
578.261
575.963
573.313
570.316
566.984
563.324
559.347
555.064
550.486
545.624
540.491
535.098
529.458
523.585
517.491
511.191
504.697
498.023
491.182
484.189
477.057
469.799
462.428
454.958
447.402
439.773
432.082
424.341
416.564
408.761
400.943
393.12
385.305
377.505
369.732
361.994
354.301
346.662
339.085
331.581
324.158
316.825
309.594
302.475
295.479
288.618
281.906
275.357
268.982
262.795
256.805
250.998
245.427
7.26165
3.42145
2.64373
2.40016
2.33256
2.34884
2.41578
2.51893
2.65134
2.80957
2.99208
3.19842
3.42896
3.68464
3.96697
4.27795
4.62007
4.99638
5.41044
5.86637
6.36893
6.92341
7.53586
8.21321
8.9624
9.79131
10.7096
11.729
12.8572
14.1028
15.4786
16.9974
18.6722
20.5161
22.5413
24.7598
27.1842
29.8272
32.7005
35.8155
39.1822
42.81
46.7067
50.8786
55.3304
60.0652
65.0848
70.3897
75.9794
81.8518
88.0035
94.4302
101.127
108.086
115.302
122.766
130.47
138.405
146.563
154.932
163.504
172.268
181.214
190.331
199.609
209.038
218.607
228.306
238.124
248.053
258.08
268.196
278.391
288.656
298.98
309.354
319.769
330.217
340.689
351.176
361.675
372.175
382.662
393.171
403.632
413.973
424.163
434.203
444.08
453.783
463.302
472.627
481.747
490.65
499.327
507.767
515.96
523.896
531.564
538.954
546.058
552.866
559.368
565.555
571.419
576.952
582.146
586.993
591.488
595.622
599.392
602.791
605.815
608.461
610.725