/*--------------------------------*- C++ -*----------------------------------*\
  =========                 |
  \\      /  F ield         | OpenFOAM: The Open Source CFD Toolbox
   \\    /   O peration     | Website:  https://openfoam.org
    \\  /    A nd           | Version:  12
     \\/     M anipulation  |
\*---------------------------------------------------------------------------*/
FoamFile
{
    format      ascii;
    class       volScalarField;
    location    "0.2";
    object      k;
}
// * * * * * * * * * * * * * * * * * * * * * * * * * * * * * * * * * * * * * //

dimensions      [0 2 -2 0 0 0 0];

internalField   nonuniform List<scalar> 
12225
(
0.353921
0.335043
0.316966
0.300961
0.288125
0.278907
0.273298
0.271002
0.271565
0.274468
0.279198
0.285286
0.292325
0.299979
0.307993
0.316152
0.3245
0.336589
0.436864
0.448979
0.438085
0.433061
0.438787
0.453585
0.474799
0.499978
0.527135
0.554784
0.581896
0.607808
0.63214
0.654715
0.675641
0.694813
0.714305
0.729609
0.395187
0.410874
0.410631
0.405747
0.402011
0.400924
0.402614
0.406807
0.413081
0.420977
0.430063
0.439957
0.45035
0.460999
0.471761
0.482526
0.493578
0.504285
0.379641
0.38484
0.386546
0.38573
0.383905
0.382026
0.380567
0.379739
0.379606
0.380147
0.3813
0.382984
0.385116
0.38762
0.390444
0.393552
0.396963
0.400574
0.374976
0.3759
0.376239
0.375721
0.37457
0.373084
0.371496
0.369967
0.368593
0.367426
0.366484
0.365768
0.365267
0.364967
0.364855
0.364921
0.36516
0.365542
0.373488
0.372555
0.371759
0.370807
0.369631
0.368275
0.366809
0.3653
0.363803
0.362358
0.36099
0.359714
0.358537
0.357461
0.356488
0.355616
0.354845
0.354168
0.373012
0.371296
0.369813
0.368416
0.367025
0.36561
0.364168
0.362711
0.361257
0.359824
0.358425
0.357073
0.355773
0.354533
0.353354
0.352239
0.351191
0.350215
0.372865
0.370838
0.369004
0.367311
0.365711
0.364174
0.362679
0.361216
0.359783
0.358381
0.357015
0.355687
0.354402
0.353161
0.351967
0.350822
0.349728
0.348696
0.37282
0.37068
0.368691
0.366836
0.365095
0.363449
0.36188
0.360376
0.358928
0.357531
0.356182
0.354879
0.353622
0.352409
0.351241
0.350118
0.349041
0.348022
0.372806
0.370628
0.368578
0.366648
0.364829
0.36311
0.361482
0.359934
0.358457
0.357045
0.355693
0.354397
0.353152
0.351958
0.350811
0.349712
0.348659
0.347663
0.372801
0.370609
0.368537
0.366576
0.36472
0.362964
0.361299
0.359718
0.358216
0.356785
0.35542
0.354118
0.352874
0.351684
0.350547
0.349459
0.34842
0.347439
0.372799
0.370602
0.368522
0.36655
0.36468
0.362907
0.361225
0.359627
0.358108
0.356664
0.355288
0.353978
0.352729
0.351537
0.350399
0.349314
0.348279
0.347303
0.372797
0.370599
0.368514
0.366537
0.36466
0.36288
0.361188
0.359581
0.358053
0.3566
0.355216
0.353899
0.352644
0.351448
0.350308
0.34922
0.348185
0.347209
0.372796
0.370596
0.368509
0.366528
0.364649
0.362864
0.361168
0.359555
0.358022
0.356563
0.355174
0.353851
0.352591
0.351391
0.350247
0.349157
0.348118
0.347141
0.372795
0.370593
0.368505
0.366523
0.364641
0.362853
0.361154
0.359539
0.358003
0.35654
0.355148
0.353823
0.35256
0.351356
0.350209
0.349116
0.348074
0.347094
0.372794
0.370592
0.368502
0.366518
0.364634
0.362845
0.361145
0.359527
0.357989
0.356525
0.355131
0.353803
0.352538
0.351333
0.350184
0.349088
0.348044
0.347061
0.372794
0.37059
0.368499
0.366515
0.36463
0.362839
0.361137
0.359519
0.357979
0.356513
0.355118
0.353789
0.352523
0.351316
0.350165
0.349067
0.348021
0.347037
0.372794
0.370589
0.368498
0.366512
0.364627
0.362835
0.361132
0.359513
0.357972
0.356506
0.355109
0.353779
0.352511
0.351303
0.350151
0.349052
0.348005
0.347019
0.372793
0.370589
0.368497
0.366512
0.364626
0.362834
0.361131
0.359511
0.357969
0.356502
0.355105
0.353775
0.352506
0.351297
0.350144
0.349045
0.347997
0.34701
0.372794
0.37059
0.368498
0.366513
0.364628
0.362836
0.361133
0.359514
0.357973
0.356506
0.355109
0.353779
0.352511
0.351302
0.350149
0.34905
0.348002
0.347015
0.372794
0.370591
0.3685
0.366516
0.364632
0.362841
0.36114
0.359522
0.357982
0.356517
0.355122
0.353793
0.352526
0.351319
0.350168
0.349069
0.348023
0.347038
0.372795
0.370593
0.368504
0.366522
0.364641
0.362855
0.361158
0.359546
0.358012
0.356552
0.355163
0.353839
0.352578
0.351376
0.350229
0.349134
0.348091
0.347108
0.372796
0.370598
0.368518
0.366547
0.364681
0.362912
0.361235
0.359642
0.358127
0.356685
0.355311
0.354001
0.352751
0.351556
0.350415
0.349324
0.348282
0.347298
0.372804
0.370631
0.368592
0.366676
0.364872
0.363166
0.361548
0.360006
0.358532
0.357121
0.355767
0.354467
0.353219
0.35202
0.350868
0.349762
0.348701
0.347697
0.372856
0.370818
0.368973
0.367264
0.365645
0.364085
0.362567
0.361083
0.359631
0.358213
0.356833
0.355493
0.354196
0.352946
0.351744
0.35059
0.349487
0.348445
0.373166
0.37177
0.370579
0.369371
0.368049
0.366605
0.365072
0.363492
0.361905
0.360342
0.358826
0.357372
0.355991
0.354689
0.353468
0.352329
0.351272
0.350303
0.374797
0.375829
0.376175
0.375401
0.373834
0.371876
0.369792
0.36774
0.365814
0.364067
0.362524
0.361195
0.360075
0.359156
0.358424
0.357863
0.357456
0.357189
0.382729
0.39167
0.392375
0.388805
0.384384
0.380403
0.377247
0.374997
0.373621
0.373038
0.373152
0.373866
0.375083
0.376715
0.378684
0.38092
0.383362
0.385943
0.407499
0.414514
0.405423
0.395992
0.390555
0.389292
0.391455
0.396215
0.402835
0.410725
0.419432
0.428617
0.438026
0.447469
0.456812
0.465961
0.474868
0.48345
0.360554
0.347547
0.334933
0.322917
0.311965
0.302353
0.29419
0.287471
0.282115
0.278004
0.275001
0.272967
0.271767
0.271274
0.271377
0.271973
0.272976
0.274302
0.000923204
0.00490776
0.00803019
0.0108811
0.0139859
0.0175255
0.0215458
0.026133
0.0312799
0.0366041
0.0421263
0.0478177
0.0536383
0.0595485
0.0655115
0.0714928
0.0774601
0.0833822
0.0892287
0.0949694
0.100574
0.10601
0.111244
0.116237
0.12095
0.125337
0.129354
0.132955
0.136088
0.138682
0.140617
0.141732
0.141975
0.141879
0.142775
0.143756
0.144306
0.144834
0.143165
0.145548
0.142754
0.145443
0.144726
0.147308
0.153782
0.160691
0.16787
0.175273
0.182881
0.19068
0.19866
0.206817
0.215145
0.22364
0.232301
0.241123
0.250105
0.259243
0.268535
0.277978
0.287567
0.2973
0.307171
0.317177
0.327313
0.337573
0.347952
0.358444
0.369043
0.379742
0.390534
0.401411
0.412368
0.423394
0.434484
0.445627
0.456816
0.468042
0.479296
0.49057
0.501854
0.513138
0.524414
0.535673
0.546904
0.558099
0.569248
0.58034
0.591367
0.602318
0.613183
0.623952
0.634614
0.64516
0.65558
0.665866
0.676015
0.686027
0.695917
0.705723
0.715402
0.724857
0.734092
0.743103
0.751882
0.760418
0.768701
0.776718
0.78446
0.791917
0.799077
0.805931
0.81247
0.818685
0.824567
0.830109
0.835302
0.840141
0.844619
0.84873
0.852469
0.855831
0.858813
0.861411
0.863622
0.865445
0.866879
0.867921
0.868574
0.868836
0.86871
0.868197
0.867301
0.866024
0.864372
0.862348
0.859957
0.857207
0.854103
0.850653
0.846865
0.842746
0.838307
0.833556
0.828504
0.823161
0.817537
0.811644
0.805494
0.799099
0.792471
0.785621
0.778563
0.771312
0.763878
0.756275
0.748519
0.740619
0.732593
0.724453
0.716205
0.707888
0.699471
0.691046
0.682689
0.675644
0.671883
0.668451
0.66502
0.661571
0.658106
0.654623
0.651116
0.647564
0.643921
0.640086
0.635827
0.630544
0.622755
0.605994
0.00335229
0.0132369
0.0197308
0.024966
0.0298108
0.034571
0.0395245
0.0447818
0.0503497
0.0561705
0.0621939
0.0683748
0.0746734
0.081056
0.0874935
0.0939601
0.100433
0.10689
0.113311
0.119679
0.125973
0.132175
0.138268
0.144231
0.150045
0.155694
0.161164
0.166448
0.171543
0.176439
0.181124
0.185645
0.190243
0.195318
0.200926
0.206839
0.213208
0.220041
0.227272
0.235622
0.244791
0.25424
0.266025
0.278368
0.290147
0.301724
0.313702
0.326085
0.338844
0.351957
0.365408
0.379191
0.393299
0.407729
0.42248
0.437549
0.452934
0.468634
0.484648
0.500971
0.517602
0.534537
0.551773
0.569305
0.587128
0.605236
0.623623
0.642282
0.661205
0.680384
0.69981
0.719473
0.739362
0.759467
0.779776
0.800278
0.820958
0.841804
0.862804
0.883941
0.905203
0.926574
0.94804
0.969585
0.991194
1.01285
1.03454
1.05625
1.07795
1.09964
1.1213
1.1429
1.16444
1.18589
1.20724
1.22847
1.24955
1.27048
1.29121
1.31166
1.33167
1.35139
1.37082
1.38995
1.40875
1.42721
1.44531
1.46301
1.48031
1.49717
1.51358
1.52952
1.54497
1.5599
1.5743
1.58815
1.60143
1.61413
1.62623
1.63772
1.64857
1.65879
1.66835
1.67725
1.68548
1.69302
1.69987
1.70603
1.71148
1.71623
1.72027
1.7236
1.72622
1.72813
1.72933
1.72983
1.72963
1.72874
1.72716
1.72491
1.72198
1.7184
1.71418
1.70932
1.70385
1.69778
1.69112
1.68389
1.67611
1.6678
1.65898
1.64967
1.63989
1.62966
1.61901
1.60795
1.59652
1.58474
1.57262
1.56021
1.54749
1.53457
1.52132
1.50799
1.4946
1.48139
1.46869
1.45604
1.44333
1.43058
1.4178
1.405
1.39218
1.37936
1.36651
1.35359
1.34045
1.32697
1.31191
1.29241
0.00657911
0.0214794
0.0300871
0.0365881
0.0423438
0.0479122
0.0535572
0.0594028
0.065487
0.071798
0.0783033
0.0849655
0.0917501
0.0986278
0.105575
0.112572
0.119605
0.12666
0.133728
0.140801
0.147874
0.154942
0.162004
0.16906
0.176114
0.183175
0.190264
0.197409
0.20465
0.212038
0.219631
0.227522
0.235838
0.244684
0.25404
0.263906
0.274352
0.285405
0.297086
0.309474
0.322571
0.336315
0.35077
0.365682
0.380832
0.396254
0.412077
0.428337
0.445033
0.462156
0.479699
0.497654
0.516016
0.53478
0.553944
0.573503
0.593455
0.613797
0.634524
0.655633
0.67712
0.69898
0.721207
0.743796
0.766738
0.790028
0.813655
0.837612
0.861889
0.886473
0.911355
0.936521
0.961958
0.987653
1.01359
1.03976
1.06613
1.09271
1.11946
1.14637
1.17342
1.2006
1.22788
1.25525
1.28268
1.31017
1.33767
1.36519
1.39269
1.42016
1.44758
1.47492
1.50216
1.52929
1.55628
1.58312
1.60979
1.63626
1.66251
1.68839
1.71391
1.73909
1.76391
1.78834
1.81236
1.83594
1.85905
1.88166
1.90374
1.92527
1.94621
1.96655
1.98625
2.0053
2.02366
2.04131
2.05824
2.07441
2.08981
2.10442
2.11822
2.1312
2.14334
2.15463
2.16505
2.17459
2.18325
2.19101
2.19787
2.20382
2.20886
2.21299
2.21621
2.21852
2.21992
2.22041
2.22001
2.21872
2.21656
2.21352
2.20962
2.20489
2.19933
2.19296
2.18579
2.17786
2.16917
2.15976
2.14964
2.13884
2.12738
2.1153
2.10261
2.08935
2.07554
2.06121
2.04641
2.03114
2.01546
1.99939
1.98291
1.96622
1.94924
1.93207
1.91478
1.8975
1.88042
1.86334
1.84621
1.82903
1.81183
1.79463
1.77746
1.76033
1.74326
1.72629
1.70939
1.69265
1.67549
1.65757
0.0102152
0.0290589
0.0393321
0.0468267
0.0533536
0.0595487
0.065713
0.0719991
0.0784743
0.0851545
0.0920271
0.0990677
0.106249
0.113548
0.120945
0.128426
0.135982
0.143606
0.151298
0.159059
0.166893
0.174807
0.182812
0.190922
0.199156
0.207539
0.216104
0.224892
0.233954
0.243342
0.253118
0.263347
0.274098
0.285424
0.297338
0.30985
0.322982
0.33675
0.351158
0.366214
0.381911
0.398212
0.415081
0.432447
0.450237
0.468439
0.487078
0.506174
0.525735
0.545763
0.566256
0.587212
0.608629
0.630504
0.652836
0.675621
0.698858
0.722543
0.746674
0.771246
0.796257
0.8217
0.847571
0.873862
0.900568
0.92768
0.955188
0.983084
1.01136
1.03999
1.06898
1.0983
1.12795
1.1579
1.18815
1.21866
1.24943
1.28044
1.31165
1.34306
1.37465
1.40638
1.43824
1.47021
1.50225
1.53436
1.5665
1.59866
1.6308
1.6629
1.69494
1.7269
1.75875
1.79047
1.82204
1.85343
1.88463
1.9156
1.94626
1.97653
2.00642
2.03591
2.06496
2.09357
2.12168
2.14926
2.17629
2.20272
2.22853
2.25368
2.27814
2.30187
2.32486
2.34706
2.36844
2.38899
2.40867
2.42746
2.44533
2.46227
2.47825
2.49325
2.50726
2.52026
2.53223
2.54316
2.55305
2.56188
2.56964
2.57633
2.58195
2.58649
2.58996
2.59235
2.59368
2.59394
2.59314
2.5913
2.58843
2.58453
2.57963
2.57374
2.56689
2.55908
2.55034
2.54071
2.53019
2.51882
2.50663
2.49363
2.47988
2.46539
2.45018
2.43432
2.41783
2.4007
2.38305
2.36483
2.34614
2.32705
2.30756
2.28775
2.26763
2.24727
2.22674
2.20614
2.18557
2.16499
2.14435
2.12368
2.103
2.08234
2.06176
2.0413
2.02101
2.00099
1.98134
1.96226
1.94359
1.9255
0.013719
0.0357976
0.0474733
0.0559017
0.0631236
0.0698598
0.0764548
0.0830925
0.0898679
0.0968219
0.103963
0.111282
0.118762
0.126388
0.134146
0.142026
0.150024
0.158139
0.166376
0.174742
0.18325
0.191914
0.200752
0.209788
0.219049
0.228567
0.23838
0.248531
0.259067
0.270039
0.281495
0.293483
0.306047
0.31922
0.333018
0.34745
0.362521
0.378234
0.394585
0.411567
0.429167
0.447364
0.46613
0.485433
0.505242
0.525542
0.546337
0.567633
0.589438
0.611754
0.634584
0.657929
0.681789
0.706165
0.731056
0.756461
0.78238
0.808811
0.835753
0.863202
0.891156
0.91961
0.948559
0.977999
1.00792
1.03832
1.06918
1.1005
1.13226
1.16445
1.19706
1.23007
1.26347
1.29723
1.33134
1.36578
1.40053
1.43556
1.47085
1.50638
1.54212
1.57805
1.61413
1.65035
1.68668
1.72308
1.75953
1.79601
1.83248
1.86892
1.9053
1.94159
1.97777
2.0138
2.04965
2.08531
2.12074
2.15591
2.19068
2.22504
2.25896
2.29243
2.3254
2.35784
2.38972
2.42099
2.45162
2.48156
2.51078
2.53924
2.5669
2.59373
2.61969
2.64475
2.66887
2.69203
2.71419
2.73533
2.75541
2.77441
2.79232
2.8091
2.82474
2.83922
2.85252
2.86464
2.87556
2.88526
2.89375
2.90101
2.90705
2.91185
2.91543
2.91779
2.91893
2.91886
2.91758
2.91512
2.91149
2.90669
2.90075
2.89369
2.88554
2.87631
2.86602
2.85472
2.84242
2.82916
2.81497
2.79987
2.78392
2.76714
2.74954
2.73123
2.71219
2.69242
2.67211
2.65121
2.62979
2.6079
2.58557
2.56286
2.53981
2.51648
2.49293
2.46925
2.44552
2.42174
2.3979
2.37404
2.35019
2.3264
2.30273
2.27926
2.25609
2.23335
2.21123
2.19001
2.16966
2.1504
0.0168756
0.0415624
0.0545186
0.0637988
0.0716511
0.0788705
0.0858405
0.0927727
0.0997867
0.106946
0.114279
0.121793
0.129485
0.137348
0.145373
0.153558
0.161903
0.170411
0.179092
0.187958
0.197025
0.206314
0.215849
0.225656
0.235767
0.246217
0.257043
0.268287
0.279992
0.292198
0.304946
0.318272
0.332205
0.346769
0.361977
0.377835
0.394345
0.411503
0.429307
0.447746
0.466811
0.486489
0.506763
0.527616
0.549033
0.571005
0.59353
0.616612
0.640255
0.664463
0.689241
0.714591
0.740518
0.767023
0.794109
0.821777
0.850028
0.878862
0.908281
0.938281
0.968863
1.00002
1.03175
1.06406
1.09692
1.13034
1.1643
1.1988
1.23382
1.26935
1.30538
1.34188
1.37884
1.41624
1.45405
1.49227
1.53085
1.56977
1.60901
1.64855
1.68834
1.72836
1.76858
1.80897
1.84949
1.89012
1.93082
1.97155
2.0123
2.05302
2.09367
2.13424
2.17468
2.21497
2.25506
2.29492
2.33453
2.3738
2.41262
2.45098
2.48885
2.5262
2.56299
2.59918
2.63473
2.66958
2.70371
2.73705
2.76958
2.80124
2.832
2.86181
2.89063
2.91844
2.94518
2.97083
2.99535
3.01871
3.04088
3.06184
3.08155
3.09999
3.11714
3.13299
3.14751
3.1607
3.17254
3.18301
3.19212
3.19985
3.2062
3.21118
3.21479
3.21702
3.21789
3.21741
3.21559
3.21244
3.20798
3.20223
3.19521
3.18694
3.17745
3.16677
3.15492
3.14193
3.12785
3.1127
3.09652
3.07933
3.06121
3.04217
3.0222
3.00147
2.97998
2.95774
2.93485
2.91133
2.88723
2.86261
2.83752
2.81199
2.7861
2.75988
2.73341
2.70676
2.68
2.65316
2.62627
2.59935
2.57247
2.54569
2.51909
2.49275
2.46683
2.44149
2.41696
2.39355
2.37127
2.35022
0.0195464
0.0464392
0.0604865
0.0705068
0.0789119
0.0865549
0.0938498
0.10103
0.108235
0.115548
0.123015
0.130658
0.138488
0.146506
0.154716
0.163117
0.171715
0.180519
0.189541
0.198797
0.208307
0.218094
0.228184
0.238607
0.249396
0.260583
0.272206
0.284301
0.296906
0.310054
0.32378
0.33811
0.353067
0.36867
0.384928
0.401848
0.419431
0.437676
0.456581
0.476139
0.496345
0.517191
0.53867
0.560772
0.583492
0.606826
0.630772
0.655335
0.680519
0.706329
0.732772
0.759854
0.787579
0.815954
0.844982
0.874668
0.905016
0.936027
0.967704
1.00005
1.03306
1.06673
1.10107
1.13606
1.17171
1.208
1.24493
1.28249
1.32066
1.35942
1.39877
1.43868
1.47913
1.52011
1.56157
1.60351
1.6459
1.68869
1.73186
1.77539
1.81922
1.86334
1.9077
1.95226
1.997
2.04187
2.08683
2.13185
2.17689
2.22191
2.26687
2.31173
2.35646
2.40101
2.44535
2.48944
2.53325
2.5766
2.61946
2.66181
2.70361
2.74483
2.78542
2.82532
2.8645
2.90291
2.94048
2.97719
3.01297
3.04777
3.08156
3.11429
3.14592
3.1764
3.20569
3.23376
3.26056
3.28607
3.31025
3.33306
3.35449
3.3745
3.39308
3.41021
3.42586
3.44002
3.45269
3.46385
3.47348
3.4816
3.48819
3.49325
3.4968
3.49884
3.49937
3.49841
3.49597
3.49207
3.48673
3.47997
3.47181
3.46228
3.45142
3.43925
3.4258
3.41109
3.3952
3.37816
3.35996
3.34066
3.32038
3.29911
3.27688
3.25379
3.22987
3.20516
3.17972
3.15361
3.12687
3.09956
3.07173
3.04344
3.01474
2.98568
2.95634
2.92678
2.89708
2.86726
2.83739
2.80751
2.77768
2.74799
2.71852
2.68941
2.66079
2.63289
2.60593
2.58023
2.55576
2.53256
0.0217793
0.0504628
0.0654015
0.0760356
0.0849036
0.0929027
0.100469
0.107852
0.115206
0.122628
0.130181
0.137899
0.145807
0.153916
0.162236
0.170775
0.179543
0.188553
0.19782
0.207362
0.217203
0.227365
0.237877
0.248769
0.26007
0.271815
0.284036
0.296766
0.310037
0.323879
0.338318
0.353379
0.369081
0.385438
0.402461
0.420158
0.438531
0.457584
0.477316
0.497726
0.518813
0.540576
0.563011
0.586118
0.609896
0.634346
0.659471
0.685276
0.711767
0.738954
0.766843
0.795444
0.824764
0.854812
0.885595
0.91712
0.949393
0.982419
1.0162
1.05075
1.08605
1.12212
1.15895
1.19653
1.23487
1.27395
1.31377
1.35432
1.39558
1.43754
1.48017
1.52346
1.56739
1.61193
1.65705
1.70273
1.74892
1.7956
1.84273
1.89027
1.93819
1.98643
2.03497
2.08375
2.13274
2.18189
2.23116
2.2805
2.32987
2.37922
2.42852
2.47771
2.52676
2.57561
2.62422
2.67255
2.72053
2.76797
2.81487
2.86121
2.90693
2.952
2.99635
3.03995
3.08273
3.12464
3.16563
3.20563
3.2446
3.28249
3.31925
3.35483
3.38917
3.42225
3.454
3.4844
3.5134
3.54096
3.56705
3.59164
3.61468
3.63617
3.65608
3.67438
3.69106
3.70611
3.71951
3.73125
3.74133
3.74973
3.75647
3.76154
3.76494
3.7667
3.76681
3.76529
3.76217
3.75746
3.75117
3.74335
3.73399
3.72316
3.71089
3.6972
3.68211
3.66566
3.64794
3.62899
3.60882
3.58748
3.56505
3.54157
3.51708
3.49165
3.46532
3.43815
3.4102
3.38153
3.35218
3.32222
3.2917
3.26068
3.22922
3.19738
3.16521
3.1328
3.10021
3.0675
3.03472
3.00194
2.96924
2.9367
2.90444
2.87259
2.84132
2.81086
2.78144
2.75334
2.7265
2.70093
0.0235699
0.0536668
0.0693023
0.0804205
0.0896552
0.0979365
0.105716
0.113253
0.120714
0.128206
0.135802
0.143552
0.151487
0.159631
0.168001
0.17661
0.185475
0.19461
0.204034
0.213768
0.223833
0.234257
0.245065
0.256286
0.267949
0.280086
0.292725
0.305897
0.31963
0.33395
0.348881
0.364444
0.380657
0.397534
0.415089
0.43333
0.452264
0.471897
0.492233
0.513277
0.535031
0.5575
0.580687
0.604595
0.62923
0.654598
0.680706
0.707562
0.735176
0.763559
0.792723
0.822678
0.853436
0.885009
0.917406
0.950638
0.984714
1.01964
1.05543
1.09208
1.12959
1.16797
1.20723
1.24734
1.28832
1.33016
1.37284
1.41636
1.4607
1.50584
1.55176
1.59844
1.64586
1.69398
1.74277
1.79221
1.84225
1.89285
1.94397
1.99557
2.0476
2.10002
2.15277
2.20581
2.25908
2.31254
2.36614
2.41982
2.47355
2.52725
2.5809
2.63443
2.6878
2.74095
2.79384
2.84642
2.89848
2.94997
3.00088
3.05115
3.10074
3.1496
3.19766
3.24488
3.29118
3.33651
3.38081
3.42402
3.46608
3.50695
3.54656
3.58486
3.62181
3.65736
3.69145
3.72405
3.75512
3.78461
3.81248
3.8387
3.86324
3.88608
3.90718
3.92654
3.94412
3.95993
3.97395
3.98616
3.99657
4.00515
4.01193
4.0169
4.02007
4.02146
4.02107
4.01892
4.01503
4.00944
4.00216
3.99321
3.98261
3.97043
3.95671
3.94148
3.92477
3.90661
3.88709
3.86624
3.8441
3.82073
3.79619
3.77053
3.7438
3.71606
3.68738
3.65779
3.62738
3.59619
3.56429
3.53173
3.49858
3.46489
3.43074
3.39617
3.36125
3.32607
3.29067
3.25514
3.21955
3.18396
3.14846
3.11315
3.07816
3.04363
3.00975
2.97674
2.94483
2.91426
2.88493
2.85688
0.0249278
0.0560989
0.0722476
0.0837229
0.0932272
0.101714
0.109644
0.117285
0.124808
0.13233
0.139933
0.147674
0.155595
0.163728
0.172094
0.180716
0.189611
0.1988
0.208302
0.218139
0.228333
0.238911
0.249897
0.26132
0.273207
0.285585
0.298483
0.311927
0.325944
0.340557
0.35579
0.371662
0.388192
0.405396
0.423288
0.441881
0.461186
0.481212
0.50197
0.523467
0.545713
0.568716
0.592486
0.617032
0.642363
0.668492
0.69543
0.72319
0.751785
0.78123
0.81154
0.842731
0.874816
0.907811
0.941729
0.976584
1.01239
1.04915
1.08688
1.12559
1.16527
1.20594
1.24759
1.29023
1.33385
1.37843
1.42398
1.47048
1.51791
1.56626
1.6155
1.6656
1.71653
1.76827
1.82078
1.87401
1.92793
1.98248
2.03763
2.09332
2.14949
2.2061
2.26308
2.32039
2.37795
2.43572
2.49364
2.55166
2.60971
2.66774
2.72569
2.78352
2.84116
2.89856
2.95566
3.01233
3.0684
3.12386
3.17866
3.23276
3.28609
3.33861
3.39025
3.44093
3.4906
3.5392
3.58665
3.63289
3.67787
3.72154
3.76382
3.80467
3.84403
3.88186
3.91811
3.95273
3.98568
4.01691
4.04639
4.07407
4.09993
4.12393
4.14606
4.1663
4.18463
4.20105
4.21553
4.22808
4.23867
4.24731
4.254
4.25876
4.26159
4.26251
4.26152
4.25866
4.25394
4.2474
4.23906
4.22895
4.21711
4.20358
4.18841
4.17164
4.1533
4.13345
4.11215
4.08944
4.06537
4.04
4.01339
3.9856
3.95669
3.92671
3.89572
3.8638
3.831
3.79738
3.763
3.72794
3.69224
3.65599
3.61923
3.58203
3.54447
3.5066
3.46852
3.43028
3.39198
3.35368
3.31548
3.27751
3.23987
3.20275
3.16631
3.13079
3.09639
3.06333
3.03146
3.00088
0.0258767
0.0578213
0.0743148
0.0860275
0.0957071
0.104322
0.112339
0.12003
0.127571
0.135084
0.142656
0.150352
0.158222
0.1663
0.174619
0.183201
0.19207
0.201248
0.210755
0.220615
0.23085
0.241484
0.252543
0.264051
0.276036
0.288524
0.301539
0.315109
0.329257
0.344007
0.359382
0.375403
0.392089
0.40946
0.427532
0.446322
0.465845
0.486116
0.507149
0.528959
0.55156
0.574966
0.599192
0.624253
0.650165
0.676945
0.704608
0.733172
0.762657
0.793081
0.824463
0.856822
0.890177
0.924546
0.959947
0.996396
1.03391
1.07249
1.11217
1.15294
1.19481
1.23778
1.28187
1.32705
1.37334
1.42072
1.46919
1.51872
1.56929
1.62089
1.67349
1.72706
1.78157
1.83696
1.89322
1.95028
2.0081
2.06663
2.12582
2.1856
2.24591
2.3067
2.36789
2.42943
2.49124
2.55326
2.61543
2.67769
2.73998
2.80223
2.86439
2.92639
2.98818
3.04968
3.11083
3.17137
3.23127
3.29049
3.34899
3.40669
3.46355
3.5195
3.57447
3.6284
3.68119
3.73279
3.78313
3.83215
3.87978
3.92597
3.97066
4.01378
4.0553
4.09514
4.13327
4.16965
4.20422
4.23696
4.26779
4.29669
4.32362
4.34857
4.37151
4.39242
4.41129
4.42811
4.44288
4.45559
4.46621
4.47474
4.48121
4.48561
4.48798
4.48832
4.48666
4.483
4.4774
4.46986
4.46043
4.44915
4.43604
4.42116
4.40454
4.38625
4.36631
4.3448
4.32175
4.29723
4.27129
4.24399
4.21539
4.18555
4.15454
4.12242
4.08924
4.05508
4.02
3.98407
3.94735
3.9099
3.8718
3.8331
3.79387
3.75419
3.71411
3.67372
3.63308
3.59228
3.55141
3.51054
3.46979
3.42927
3.38912
3.34949
3.31059
3.27262
3.23578
3.20025
3.16587
3.13277
0.0264529
0.0589085
0.0755958
0.0874363
0.0972026
0.105871
0.113913
0.121601
0.129113
0.136576
0.144081
0.151698
0.159479
0.167467
0.175696
0.184193
0.192984
0.202093
0.211541
0.221351
0.231546
0.242149
0.253185
0.264678
0.276653
0.289135
0.30215
0.315721
0.329875
0.344634
0.360024
0.376066
0.392783
0.410198
0.42833
0.447201
0.466831
0.48724
0.508448
0.530475
0.553342
0.577068
0.601676
0.627185
0.653617
0.680994
0.709339
0.738675
0.769024
0.800411
0.832858
0.86639
0.90103
0.936798
0.973716
1.0118
1.05108
1.09155
1.13324
1.17615
1.22029
1.26566
1.31227
1.3601
1.40916
1.45942
1.51089
1.56354
1.61734
1.67228
1.72831
1.78541
1.84353
1.90263
1.96266
2.02357
2.0853
2.14779
2.21099
2.27482
2.33922
2.40412
2.46943
2.53509
2.60101
2.66715
2.73341
2.79975
2.86608
2.93236
2.9985
3.06445
3.13015
3.19553
3.2603
3.32443
3.38785
3.45052
3.51237
3.57335
3.63339
3.69241
3.75037
3.80717
3.86272
3.91695
3.96981
4.02122
4.07113
4.11947
4.16618
4.21121
4.2545
4.29601
4.33567
4.37345
4.4093
4.44322
4.4751
4.5049
4.53261
4.55821
4.58167
4.60299
4.62215
4.63915
4.65396
4.6666
4.67705
4.68532
4.69141
4.69534
4.69713
4.6968
4.69436
4.68985
4.68329
4.67472
4.66417
4.65169
4.63731
4.62108
4.60305
4.58326
4.56178
4.53865
4.51393
4.48768
4.45996
4.43083
4.40036
4.36859
4.33561
4.30148
4.26626
4.23001
4.19282
4.15473
4.11583
4.07617
4.03583
3.99487
3.95336
3.91136
3.86896
3.82622
3.78322
3.74005
3.69679
3.65354
3.6104
3.5675
3.52499
3.48301
3.44177
3.40146
3.36227
3.32435
3.28753
3.25199
0.026703
0.0594439
0.0761922
0.0880627
0.0978345
0.106487
0.114493
0.122125
0.129563
0.136936
0.144337
0.15184
0.1595
0.167363
0.175464
0.183835
0.192502
0.20149
0.210821
0.220518
0.230604
0.241102
0.252035
0.263427
0.275302
0.287687
0.300605
0.314083
0.328147
0.342821
0.358134
0.374109
0.390773
0.408152
0.426271
0.445157
0.464834
0.48533
0.506669
0.52888
0.551989
0.576023
0.60101
0.626976
0.653949
0.681957
0.711028
0.74119
0.772472
0.804902
0.838508
0.873318
0.909358
0.946652
0.985224
1.0251
1.06629
1.10881
1.15269
1.19792
1.24451
1.29245
1.34175
1.39239
1.44438
1.49768
1.5523
1.60819
1.66534
1.72371
1.78326
1.84395
1.90573
1.96855
2.03236
2.09709
2.16268
2.22906
2.29617
2.36393
2.43228
2.50113
2.57037
2.63992
2.70973
2.7797
2.84977
2.91987
2.98994
3.05989
3.12967
3.1992
3.26844
3.33708
3.40507
3.47233
3.5388
3.60444
3.66917
3.73291
3.79562
3.85721
3.91765
3.97684
4.03463
4.09097
4.14582
4.19912
4.25079
4.30078
4.34903
4.39548
4.44008
4.48277
4.5235
4.56224
4.59894
4.63357
4.66607
4.69639
4.72452
4.75043
4.77411
4.79555
4.81472
4.83162
4.84625
4.85861
4.86869
4.8765
4.88205
4.88536
4.88644
4.88532
4.88202
4.87657
4.86901
4.85937
4.84769
4.834
4.81836
4.80082
4.78141
4.76021
4.73725
4.7126
4.68631
4.65845
4.62908
4.59826
4.56606
4.53253
4.49776
4.4618
4.42472
4.38659
4.34748
4.30745
4.26659
4.22494
4.18259
4.13959
4.09603
4.05196
4.00746
3.96261
3.91749
3.87217
3.82676
3.78135
3.73605
3.69098
3.6463
3.60216
3.55875
3.51625
3.47485
3.43468
3.39556
3.3577
0.0266821
0.059517
0.0762114
0.0880257
0.0977302
0.106303
0.114215
0.121741
0.129061
0.136305
0.143568
0.150924
0.158431
0.166137
0.174077
0.182286
0.190789
0.199612
0.208778
0.21831
0.22823
0.238563
0.249331
0.260558
0.272271
0.284494
0.297254
0.31058
0.324498
0.339038
0.354229
0.370102
0.386685
0.404011
0.42211
0.441014
0.460755
0.481366
0.502881
0.525334
0.548759
0.573192
0.598666
0.625216
0.652875
0.681674
0.711648
0.742831
0.775255
0.808954
0.84396
0.880301
0.918008
0.957106
0.99762
1.03957
1.08298
1.12786
1.17423
1.22209
1.27142
1.32222
1.37448
1.42819
1.48334
1.5399
1.59785
1.65715
1.71778
1.77968
1.84282
1.90713
1.97257
2.03908
2.10658
2.17502
2.24431
2.3144
2.38519
2.45662
2.52863
2.60114
2.67395
2.74702
2.82027
2.89364
2.96704
3.04042
3.11369
3.1868
3.25967
3.33223
3.40418
3.47546
3.546
3.61574
3.6846
3.75253
3.81944
3.88526
3.94994
4.01339
4.07556
4.13635
4.19567
4.25346
4.30965
4.36418
4.41698
4.468
4.51717
4.56445
4.60978
4.6531
4.69437
4.73355
4.77059
4.80547
4.83813
4.86854
4.89667
4.92251
4.94604
4.96724
4.9861
5.00262
5.01679
5.02862
5.0381
5.04525
5.05008
5.05261
5.05285
5.05084
5.04659
5.04015
5.03154
5.0208
5.00798
4.99312
4.97626
4.95746
4.93676
4.91422
4.8899
4.86386
4.83615
4.80685
4.776
4.74368
4.70995
4.67488
4.63853
4.60098
4.56229
4.52252
4.48176
4.44006
4.3975
4.35415
4.31006
4.26532
4.21999
4.17414
4.12784
4.08117
4.0342
3.98703
3.93975
3.89245
3.84525
3.79828
3.75168
3.70561
3.66025
3.61578
3.57236
3.53012
3.48889
3.4489
0.0264524
0.0592195
0.0757617
0.0874448
0.0970174
0.105452
0.113219
0.120592
0.127753
0.134831
0.141923
0.149103
0.15643
0.16395
0.171702
0.179718
0.188025
0.19665
0.205617
0.214948
0.224667
0.234799
0.245368
0.2564
0.267922
0.279963
0.292551
0.305719
0.319496
0.333918
0.349017
0.36483
0.381395
0.398746
0.416923
0.435964
0.455907
0.476795
0.498669
0.521572
0.545548
0.570642
0.596896
0.624354
0.653048
0.683012
0.714283
0.746902
0.780906
0.81633
0.853207
0.891566
0.931435
0.972839
1.0158
1.06033
1.10645
1.15417
1.20351
1.2545
1.30703
1.36109
1.41668
1.47379
1.53239
1.59244
1.65392
1.71678
1.78098
1.84645
1.91316
1.98103
2.05
2.12001
2.19097
2.26282
2.33547
2.40885
2.48288
2.55747
2.63253
2.70799
2.78371
2.85963
2.93564
3.01169
3.0877
3.1636
3.23931
3.3148
3.38989
3.46437
3.53817
3.61121
3.68342
3.75474
3.82508
3.89438
3.96257
4.02957
4.09532
4.15975
4.22278
4.28434
4.34435
4.40274
4.45944
4.51441
4.56756
4.61885
4.66822
4.71561
4.76098
4.80427
4.84544
4.88445
4.92126
4.95583
4.98813
5.01813
5.0458
5.07112
5.09408
5.11466
5.13286
5.14867
5.16209
5.17313
5.18178
5.18807
5.192
5.19359
5.19288
5.18987
5.18461
5.17712
5.16745
5.15562
5.1417
5.12571
5.1077
5.08774
5.06587
5.04214
5.01662
4.98937
4.96044
4.92989
4.8978
4.86422
4.82922
4.79288
4.75524
4.71639
4.67639
4.63531
4.59321
4.55017
4.50625
4.46153
4.41606
4.36991
4.32316
4.27588
4.22812
4.17998
4.13152
4.08284
4.03402
3.98517
3.9364
3.88784
3.83962
3.7919
3.74487
3.69868
3.6535
3.60945
3.56634
3.52445
0.0260635
0.0586221
0.0749223
0.0864041
0.0957827
0.104022
0.111591
0.118765
0.125725
0.1326
0.139487
0.146461
0.153579
0.160887
0.168425
0.176224
0.184313
0.192719
0.201467
0.210583
0.220093
0.230022
0.2404
0.251255
0.262618
0.274524
0.287005
0.3001
0.313845
0.32828
0.343448
0.359395
0.376166
0.39381
0.412369
0.431887
0.452414
0.474001
0.496703
0.52057
0.545658
0.57202
0.599717
0.62882
0.659324
0.691246
0.724642
0.759553
0.796018
0.834067
0.873729
0.915026
0.957975
1.00259
1.04888
1.09686
1.14651
1.19785
1.25085
1.30551
1.36178
1.41962
1.479
1.53989
1.60224
1.66602
1.73118
1.79766
1.8654
1.93434
2.00442
2.07557
2.14772
2.22079
2.29471
2.36939
2.44476
2.52073
2.59721
2.67413
2.7514
2.82893
2.90661
2.98438
3.06214
3.13984
3.21738
3.29474
3.37179
3.44833
3.52423
3.59943
3.67386
3.74745
3.82011
3.89178
3.96239
4.03187
4.10015
4.16716
4.23283
4.2971
4.35989
4.42113
4.48077
4.53872
4.59493
4.64935
4.7019
4.75254
4.8012
4.84785
4.89243
4.9349
4.97521
5.01333
5.04922
5.08284
5.11417
5.14317
5.16983
5.19413
5.21604
5.23557
5.2527
5.26743
5.27977
5.28971
5.29727
5.30246
5.30529
5.30578
5.30397
5.29987
5.29352
5.28495
5.27419
5.2613
5.2463
5.22925
5.2102
5.1892
5.16629
5.14155
5.11501
5.08675
5.05682
5.02528
4.9922
4.95765
4.92168
4.88436
4.84576
4.80594
4.76497
4.72292
4.67985
4.63584
4.59093
4.54521
4.49874
4.45158
4.4038
4.35546
4.30664
4.2574
4.20784
4.15802
4.10804
4.058
4.00801
3.95819
3.90869
3.85965
3.81125
3.76364
3.71698
3.67138
3.62667
3.58314
0.0256607
0.0579029
0.0738947
0.0851204
0.0942562
0.102258
0.109593
0.116537
0.123272
0.129927
0.136598
0.143357
0.150262
0.157361
0.164691
0.172288
0.180181
0.1884
0.196975
0.205936
0.215312
0.225137
0.235446
0.246275
0.257662
0.26965
0.282284
0.295613
0.309681
0.324536
0.340235
0.356838
0.374414
0.393041
0.412746
0.433564
0.455568
0.478826
0.503399
0.529348
0.55673
0.585603
0.616017
0.64802
0.681638
0.716895
0.753819
0.792437
0.832767
0.874823
0.918613
0.964137
1.01139
1.06037
1.11105
1.16343
1.21746
1.27314
1.33041
1.38926
1.44962
1.51144
1.57469
1.6393
1.70523
1.77241