/*--------------------------------*- C++ -*----------------------------------*\
  =========                 |
  \\      /  F ield         | OpenFOAM: The Open Source CFD Toolbox
   \\    /   O peration     | Website:  https://openfoam.org
    \\  /    A nd           | Version:  12
     \\/     M anipulation  |
\*---------------------------------------------------------------------------*/
FoamFile
{
    format      ascii;
    class       volScalarField;
    location    "0.2";
    object      nut;
}
// * * * * * * * * * * * * * * * * * * * * * * * * * * * * * * * * * * * * * //

dimensions      [0 2 -1 0 0 0 0];

internalField   nonuniform List<scalar> 
12225
(
4.04768e-05
3.83178e-05
3.62504e-05
3.44199e-05
3.2952e-05
3.18976e-05
3.12562e-05
3.09937e-05
3.1058e-05
3.139e-05
3.1931e-05
3.26272e-05
3.34323e-05
3.43076e-05
3.52241e-05
3.61572e-05
3.7112e-05
3.84945e-05
0.000281048
0.000209266
0.000176267
0.00015744
0.000146272
0.000139688
0.000135793
0.000133431
0.000131916
0.000130859
0.000130044
0.000129358
0.00012874
0.000128162
0.000127623
0.00012708
0.000126684
0.000125735
0.000556048
0.000419908
0.000349816
0.000304737
0.00027245
0.000247986
0.00022877
0.000213307
0.000200679
0.000190279
0.000181665
0.000174499
0.000168511
0.000163479
0.000159231
0.00015558
0.000152441
0.00014938
0.000740308
0.000625822
0.000544117
0.000485001
0.000439774
0.000403655
0.000373847
0.000348612
0.000326864
0.000307904
0.000291258
0.000276581
0.000263601
0.00025209
0.000241852
0.000232669
0.000224387
0.000216723
0.000817069
0.000759142
0.000700546
0.000648579
0.0006039
0.000565588
0.000532479
0.000503521
0.000477889
0.000454974
0.000434329
0.000415622
0.000398593
0.000383031
0.000368757
0.000355588
0.000343379
0.000332034
0.0008421
0.000819688
0.000789925
0.000757607
0.000725556
0.000695167
0.000666971
0.000641024
0.000617185
0.000595251
0.00057502
0.000556305
0.000538941
0.000522782
0.000507698
0.000493559
0.000480264
0.00046786
0.000849261
0.000841808
0.000829742
0.000814189
0.000796482
0.000777763
0.000758853
0.000740261
0.000722276
0.000705044
0.000688625
0.000673028
0.000658231
0.000644197
0.000630878
0.00061822
0.000606184
0.000594895
0.00085112
0.000848748
0.000844481
0.000838237
0.000830247
0.000820897
0.000810601
0.000799725
0.000788559
0.00077732
0.000766162
0.000755194
0.000744485
0.000734077
0.000723993
0.000714242
0.000704839
0.000695935
0.00085156
0.000850665
0.00084917
0.000846887
0.000843741
0.000839759
0.000835035
0.000829696
0.000823878
0.000817709
0.000811304
0.000804756
0.000798143
0.000791524
0.000784947
0.000778448
0.000772065
0.000765932
0.000851652
0.000851133
0.000850468
0.000849564
0.000848347
0.000846772
0.000844826
0.00084252
0.000839885
0.00083696
0.000833792
0.000830427
0.000826908
0.000823276
0.000819565
0.000815807
0.000812037
0.00080835
0.000851668
0.00085123
0.000850778
0.000850278
0.000849698
0.000849007
0.000848183
0.000847211
0.000846088
0.000844815
0.0008434
0.000841855
0.000840195
0.000838435
0.000836592
0.000834683
0.000832727
0.00083078
0.000851669
0.000851245
0.000850835
0.000850429
0.000850014
0.000849575
0.000849101
0.000848579
0.000848003
0.000847365
0.000846665
0.000845901
0.000845078
0.000844198
0.000843267
0.000842292
0.000841281
0.000840269
0.000851668
0.000851244
0.000850843
0.000850459
0.000850088
0.000849726
0.000849365
0.000849001
0.000848629
0.000848243
0.000847841
0.00084742
0.000846979
0.000846518
0.000846037
0.000845537
0.000845022
0.000844511
0.000851667
0.000851242
0.000850839
0.000850458
0.000850096
0.000849751
0.000849421
0.000849102
0.000848793
0.000848491
0.000848194
0.000847901
0.000847611
0.000847321
0.000847031
0.000846741
0.000846453
0.00084618
0.000851666
0.000851239
0.000850835
0.000850452
0.00085009
0.000849746
0.000849419
0.000849108
0.000848812
0.000848528
0.000848257
0.000847996
0.000847746
0.000847504
0.000847272
0.000847047
0.000846832
0.000846637
0.000851665
0.000851236
0.000850831
0.000850447
0.000850083
0.000849737
0.000849409
0.000849098
0.000848801
0.000848519
0.00084825
0.000847994
0.00084775
0.000847517
0.000847294
0.000847082
0.000846881
0.000846703
0.000851664
0.000851235
0.000850828
0.000850442
0.000850077
0.00084973
0.000849401
0.000849088
0.00084879
0.000848507
0.000848237
0.00084798
0.000847735
0.000847502
0.000847279
0.000847066
0.000846866
0.000846689
0.000851663
0.000851234
0.000850826
0.00085044
0.000850073
0.000849725
0.000849395
0.000849081
0.000848782
0.000848498
0.000848227
0.000847969
0.000847723
0.000847488
0.000847264
0.00084705
0.000846848
0.00084667
0.000851663
0.000851233
0.000850825
0.000850439
0.000850072
0.000849724
0.000849393
0.000849078
0.000848779
0.000848494
0.000848222
0.000847964
0.000847717
0.000847481
0.000847256
0.000847041
0.000846838
0.000846658
0.000851664
0.000851234
0.000850826
0.00085044
0.000850074
0.000849726
0.000849396
0.000849081
0.000848782
0.000848497
0.000848225
0.000847965
0.000847717
0.00084748
0.000847254
0.000847037
0.000846832
0.000846649
0.000851664
0.000851235
0.000850829
0.000850443
0.000850078
0.00084973
0.000849399
0.000849082
0.00084878
0.000848489
0.00084821
0.00084794
0.000847679
0.000847427
0.000847182
0.000846945
0.000846716
0.000846506
0.000851665
0.000851237
0.00085083
0.000850442
0.000850068
0.000849706
0.000849351
0.000848999
0.000848647
0.000848293
0.000847934
0.00084757
0.000847198
0.000846819
0.000846432
0.000846039
0.000845641
0.000845251
0.000851664
0.000851228
0.000850794
0.000850348
0.00084987
0.000849345
0.000848761
0.000848111
0.000847388
0.000846593
0.000845727
0.000844796
0.000843805
0.00084276
0.00084167
0.000840542
0.000839386
0.000838224
0.000851634
0.000851073
0.000850343
0.000849363
0.000848079
0.000846467
0.000844531
0.000842291
0.000839785
0.000837051
0.000834134
0.000831073
0.000827907
0.00082467
0.000821391
0.000818094
0.000814805
0.00081157
0.000851287
0.000849596
0.000846721
0.000842577
0.000837262
0.000830978
0.00082397
0.000816469
0.000808672
0.000800735
0.00079278
0.000784897
0.000777152
0.000769589
0.000762238
0.00075512
0.000748247
0.000741675
0.000848318
0.000839426
0.00082616
0.000810016
0.000792356
0.000774223
0.000756315
0.000739036
0.000722584
0.000707038
0.000692411
0.000678674
0.000665782
0.00065368
0.000642311
0.000631622
0.000621564
0.000612147
0.000828548
0.000788842
0.000746032
0.000705699
0.000669458
0.000637493
0.000609434
0.000584724
0.000562826
0.000543284
0.000525729
0.000509861
0.00049544
0.000482271
0.000470196
0.000459083
0.000448827
0.000439379
0.000730726
0.000627344
0.000554504
0.000501054
0.000460311
0.000428338
0.000402622
0.000381455
0.000363694
0.000348562
0.000335515
0.000324154
0.000314182
0.000305369
0.000297535
0.000290536
0.000284253
0.000278602
0.000439249
0.00033847
0.000287934
0.000256867
0.000236359
0.000222508
0.000212991
0.000206309
0.000201504
0.000197957
0.000195269
0.000193176
0.000191498
0.000190116
0.000188946
0.000187932
0.000187036
0.000186209
7.16431e-05
6.90587e-05
6.65522e-05
6.41646e-05
6.19883e-05
6.00784e-05
5.84564e-05
5.71213e-05
5.60571e-05
5.52403e-05
5.46436e-05
5.42394e-05
5.40008e-05
5.39031e-05
5.39234e-05
5.40419e-05
5.42411e-05
5.45047e-05
2.8932e-07
7.01529e-06
1.14696e-05
1.55277e-05
1.99396e-05
2.49635e-05
3.06631e-05
3.71591e-05
4.44427e-05
5.19655e-05
5.97565e-05
6.77739e-05
7.596e-05
8.4258e-05
9.26151e-05
0.000100982
0.000109313
0.000117564
0.000125692
0.000133655
0.000141409
0.000148911
0.000156111
0.000162959
0.000169397
0.000175366
0.000180804
0.000185648
0.000189823
0.000193215
0.000195652
0.000196966
0.000197325
0.000197737
0.000198936
0.000200175
0.000201125
0.000201019
4.6174e-05
0.000201753
4.58485e-05
4.65265e-05
4.64269e-05
4.75607e-05
4.85701e-05
4.96187e-05
5.06841e-05
5.17576e-05
5.28362e-05
5.39171e-05
5.49991e-05
5.60809e-05
5.7162e-05
5.82417e-05
5.93197e-05
6.03956e-05
6.1469e-05
6.25396e-05
6.36071e-05
6.46712e-05
6.57315e-05
6.67877e-05
6.78395e-05
6.88863e-05
6.9928e-05
7.09639e-05
7.19938e-05
7.30171e-05
7.40335e-05
7.50425e-05
7.60436e-05
7.70363e-05
7.80202e-05
7.89949e-05
7.99597e-05
8.09144e-05
8.18584e-05
8.27912e-05
8.37125e-05
8.46217e-05
8.55185e-05
8.64024e-05
8.72729e-05
8.81298e-05
8.89725e-05
8.98008e-05
9.06141e-05
9.14122e-05
9.21946e-05
9.29609e-05
9.37109e-05
9.4444e-05
9.516e-05
9.58584e-05
9.6539e-05
9.72016e-05
9.78462e-05
9.84734e-05
9.90846e-05
9.96827e-05
0.000100265
0.000100825
0.000101363
0.00010188
0.000102376
0.000102849
0.0001033
0.000103729
0.000104134
0.000104516
0.000104875
0.000105209
0.000105519
0.000105805
0.000106066
0.000106302
0.000106513
0.000106699
0.000106859
0.000106994
0.000107103
0.000107186
0.000107244
0.000107277
0.000107283
0.000107264
0.00010722
0.00010715
0.000107055
0.000106934
0.000106789
0.000106619
0.000106424
0.000106205
0.000105962
0.000105695
0.000105405
0.000105092
0.000104756
0.000104399
0.000104019
0.000103618
0.000103197
0.000102755
0.000102293
0.000101812
0.000101312
0.000100795
0.00010026
9.97082e-05
9.91403e-05
9.85569e-05
9.79586e-05
9.73464e-05
9.67207e-05
9.60822e-05
9.5432e-05
9.47704e-05
9.40985e-05
9.34169e-05
9.27259e-05
9.20279e-05
9.1321e-05
9.06108e-05
8.99024e-05
8.92776e-05
8.88686e-05
8.84805e-05
8.80915e-05
8.77003e-05
8.7307e-05
8.69116e-05
8.65135e-05
8.61114e-05
8.57022e-05
8.52792e-05
8.48269e-05
8.4305e-05
8.36137e-05
8.23129e-05
1.05102e-06
2.65827e-05
5.7364e-05
7.96394e-05
9.52321e-05
0.000106748
0.000116571
0.000125937
0.000135406
0.000145163
0.000155197
0.000165437
0.000175802
0.000186214
0.000196605
0.000206914
0.000217084
0.00022706
0.000236788
0.000246209
0.000255259
0.000263863
0.000271937
0.000279377
0.000286067
0.000291871
0.00029663
0.000300145
0.000302133
0.000302163
0.000299653
0.000294198
0.000286542
0.000279579
0.000276467
0.000273803
0.000270339
0.000266198
0.000253984
0.000262395
0.000253344
0.000256076
0.000258691
0.000265366
0.000271973
0.000278128
0.000284735
0.000291675
0.000298875
0.000306277
0.000313846
0.000321558
0.000329398
0.000337357
0.000345428
0.000353605
0.000361886
0.000370268
0.000378748
0.000387324
0.000395996
0.000404759
0.000413614
0.000422556
0.000431585
0.000440696
0.000449887
0.000459155
0.000468496
0.000477906
0.00048738
0.000496915
0.000506504
0.000516144
0.000525828
0.000535551
0.000545308
0.000555093
0.000564899
0.000574721
0.000584554
0.00059439
0.000604225
0.000614053
0.000623868
0.000633665
0.000643439
0.000653186
0.0006629
0.000672578
0.000682214
0.000691805
0.000701345
0.000710828
0.000720244
0.00072958
0.000738813
0.000747906
0.000756802
0.000765286
0.000773222
0.000780994
0.000788643
0.00079617
0.000803571
0.00081084
0.000817972
0.000824961
0.000831802
0.000838488
0.000845016
0.000851379
0.000857573
0.000863592
0.000869433
0.000875091
0.00088056
0.000885838
0.00089092
0.000895803
0.000900483
0.000904957
0.000909222
0.000913275
0.000917115
0.000920739
0.000924144
0.000927329
0.000930293
0.000933034
0.000935552
0.000937845
0.000939914
0.000941758
0.000943378
0.000944774
0.000945947
0.000946897
0.000947627
0.000948139
0.000948433
0.000948513
0.000948381
0.00094804
0.000947493
0.000946743
0.000945795
0.000944652
0.000943319
0.000941801
0.000940102
0.000938228
0.000936182
0.000933974
0.000931608
0.000929087
0.000926425
0.000923621
0.000920688
0.000917633
0.000914454
0.000911181
0.000907808
0.000904293
0.000900517
0.00089575
0.000889048
0.000881773
0.000874306
0.000866741
0.000859114
0.000851439
0.000843725
0.000835973
0.000828177
0.000820313
0.000812307
0.000804047
0.000794538
0.000776017
2.06303e-06
4.22526e-05
8.99389e-05
0.000125409
0.000150962
0.000170021
0.000185222
0.000198371
0.000210579
0.000222447
0.000234247
0.000246065
0.000257896
0.000269694
0.000281403
0.000292961
0.00030431
0.000315393
0.000326153
0.000336532
0.000346467
0.000355892
0.000364737
0.000372928
0.000380392
0.000387065
0.000392895
0.00039785
0.000401905
0.00040504
0.000407257
0.000408733
0.000410101
0.000412516
0.000416625
0.000421726
0.000427613
0.000434392
0.000441367
0.000450708
0.000459971
0.000470998
0.000482865
0.000496325
0.000510519
0.000524979
0.000539785
0.000554931
0.000570391
0.000586138
0.000602148
0.000618402
0.000634886
0.000651589
0.000668503
0.000685621
0.000702937
0.000720447
0.000738146
0.000756029
0.000774093
0.000792331
0.00081074
0.000829313
0.000848043
0.000866925
0.000885951
0.000905112
0.0009244
0.000943806
0.000963319
0.000982929
0.00100263
0.0010224
0.00104223
0.00106211
0.00108204
0.00110199
0.00112195
0.00114191
0.00116186
0.00118178
0.00120167
0.0012215
0.00124128
0.00126098
0.00128059
0.00130011
0.00131951
0.0013388
0.00135795
0.00137695
0.00139578
0.00141443
0.00143287
0.00145108
0.00146901
0.00148661
0.00150384
0.00152041
0.00153654
0.00155239
0.00156797
0.0015833
0.00159836
0.00161313
0.00162762
0.00164181
0.00165568
0.00166922
0.00168243
0.0016953
0.0017078
0.00171995
0.00173171
0.00174309
0.00175408
0.00176466
0.00177483
0.00178459
0.00179392
0.00180282
0.00181129
0.00181931
0.00182688
0.001834
0.00184067
0.00184688
0.00185263
0.00185791
0.00186272
0.00186707
0.00187095
0.00187436
0.00187731
0.00187979
0.0018818
0.00188335
0.00188445
0.00188509
0.00188527
0.00188502
0.00188432
0.00188318
0.00188162
0.00187963
0.00187724
0.00187444
0.00187124
0.00186766
0.0018637
0.00185938
0.0018547
0.00184968
0.00184433
0.00183867
0.0018327
0.00182645
0.00181993
0.00181316
0.00180616
0.00179892
0.00179149
0.00178375
0.00177552
0.00176619
0.0017551
0.00174313
0.00173072
0.00171805
0.00170522
0.00169225
0.00167917
0.00166599
0.00165267
0.00163916
0.00162524
0.00161041
0.00159272
0.00156355
3.2038e-06
5.35219e-05
0.000113325
0.000159201
0.00019322
0.000218904
0.000239141
0.000256045
0.000271048
0.000285043
0.000298536
0.000311779
0.000324875
0.000337844
0.000350667
0.000363305
0.000375716
0.000387859
0.000399693
0.000411181
0.000422291
0.000432993
0.000443263
0.000453087
0.000462465
0.00047142
0.00048
0.000488284
0.000496381
0.000504425
0.000512576
0.000521051
0.000530168
0.000540303
0.000551634
0.000564055
0.000577508
0.000591996
0.000607444
0.000624018
0.000641544
0.000660099
0.00067953
0.000699804
0.000720674
0.000741948
0.000763582
0.00078556
0.000807873
0.000830509
0.000853458
0.000876707
0.000900248
0.000924073
0.000948174
0.000972545
0.000997179
0.00102207
0.00104721
0.0010726
0.00109822
0.00112408
0.00115016
0.00117645
0.00120294
0.00122963
0.00125649
0.00128353
0.00131072
0.00133805
0.00136551
0.00139308
0.00142075
0.00144849
0.0014763
0.00150414
0.00153201
0.00155989
0.00158776
0.00161559
0.00164338
0.0016711
0.00169874
0.00172627
0.00175368
0.00178095
0.00180807
0.00183501
0.00186176
0.00188831
0.00191462
0.00194069
0.00196649
0.00199199
0.00201718
0.00204201
0.00206647
0.00209052
0.002114
0.00213689
0.00215934
0.00218142
0.00220313
0.00222447
0.00224544
0.00226601
0.00228618
0.00230593
0.00232524
0.0023441
0.0023625
0.00238041
0.00239784
0.00241475
0.00243115
0.00244702
0.00246234
0.00247711
0.00249132
0.00250494
0.00251799
0.00253044
0.00254228
0.00255352
0.00256415
0.00257415
0.00258352
0.00259226
0.00260037
0.00260783
0.00261465
0.00262083
0.00262636
0.00263124
0.00263548
0.00263907
0.00264202
0.00264433
0.00264601
0.00264705
0.00264747
0.00264727
0.00264645
0.00264503
0.00264301
0.00264041
0.00263722
0.00263347
0.00262917
0.00262432
0.00261895
0.00261306
0.00260667
0.0025998
0.00259246
0.00258468
0.00257647
0.00256786
0.00255886
0.0025495
0.0025398
0.00252975
0.00251937
0.00250858
0.00249723
0.00248494
0.00247135
0.00245686
0.00244182
0.00242641
0.00241073
0.00239484
0.00237878
0.00236256
0.00234615
0.00232947
0.00231223
0.00229374
0.00227185
0.00223993
4.30326e-06
6.25078e-05
0.000131836
0.000186383
0.000227577
0.00025899
0.000283697
0.000304026
0.000321631
0.000337618
0.000352681
0.000367222
0.000381456
0.000395479
0.000409326
0.000422997
0.000436478
0.000449755
0.000462813
0.000475646
0.000488255
0.000500648
0.000512846
0.000524884
0.000536813
0.000548703
0.000560649
0.000572764
0.000585183
0.000598051
0.000611521
0.000625747
0.000640885
0.000657069
0.00067436
0.000692739
0.000712172
0.00073263
0.000754073
0.000776477
0.000799788
0.00082395
0.000848867
0.000874444
0.00090056
0.00092712
0.000954077
0.000981409
0.0010091
0.00103715
0.00106555
0.00109429
0.00112336
0.00115275
0.00118246
0.00121248
0.00124281
0.00127343
0.00130434
0.00133553
0.00136699
0.00139871
0.00143068
0.00146288
0.00149531
0.00152795
0.00156079
0.0015938
0.00162697
0.00166029
0.00169374
0.00172729
0.00176092
0.00179462
0.00182836
0.00186213
0.00189589
0.00192963
0.00196332
0.00199695
0.00203048
0.0020639
0.00209719
0.00213031
0.00216326
0.00219601
0.00222854
0.00226083
0.00229286
0.00232461
0.00235606
0.00238718
0.00241796
0.00244836
0.00247838
0.00250797
0.00253712
0.00256581
0.00259385
0.00262135
0.00264838
0.00267498
0.00270114
0.00272687
0.00275215
0.00277696
0.00280129
0.00282513
0.00284845
0.00287124
0.00289348
0.00291516
0.00293626
0.00295677
0.00297666
0.00299593
0.00301456
0.00303254
0.00304986
0.00306649
0.00308245
0.0030977
0.00311224
0.00312607
0.00313918
0.00315155
0.00316318
0.00317407
0.00318421
0.00319359
0.00320221
0.00321007
0.00321717
0.0032235
0.00322907
0.00323387
0.00323791
0.00324119
0.00324371
0.00324548
0.00324651
0.00324679
0.00324634
0.00324517
0.00324328
0.00324069
0.0032374
0.00323343
0.00322879
0.00322349
0.00321756
0.003211
0.00320383
0.00319608
0.00318775
0.00317889
0.00316949
0.00315959
0.00314921
0.00313837
0.0031271
0.0031154
0.00310326
0.00309066
0.00307748
0.00306351
0.00304857
0.00303282
0.00301648
0.00299971
0.00298261
0.00296525
0.00294767
0.00292991
0.00291194
0.00289369
0.00287488
0.00285482
0.00283163
0.00280085
5.29401e-06
6.98064e-05
0.000146993
0.000208805
0.000256156
0.000292602
0.000321326
0.000344799
0.000364839
0.000382714
0.000399271
0.000415047
0.00043036
0.000445392
0.000460235
0.000474938
0.000489522
0.000504003
0.000518395
0.000532719
0.000547002
0.000561284
0.000575614
0.000590053
0.000604676
0.000619571
0.000634838
0.000650589
0.000666942
0.000684013
0.000701913
0.000720737
0.000740564
0.000761445
0.000783395
0.000806396
0.000830413
0.000855405
0.000881322
0.000908116
0.000935728
0.000964092
0.000993135
0.00102278
0.00105295
0.00108358
0.00111465
0.00114611
0.00117796
0.00121019
0.0012428
0.00127576
0.00130908
0.00134275
0.00137676
0.0014111
0.00144576
0.00148074
0.00151602
0.0015516
0.00158746
0.00162359
0.00165998
0.00169661
0.00173347
0.00177053
0.00180779
0.00184523
0.00188281
0.00192054
0.00195837
0.00199629
0.00203429
0.00207232
0.00211038
0.00214843
0.00218645
0.00222441
0.0022623
0.00230008
0.00233773
0.00237522
0.00241253
0.00244965
0.00248653
0.00252317
0.00255953
0.0025956
0.00263136
0.00266678
0.00270185
0.00273654
0.00277084
0.00280472
0.00283816
0.00287114
0.00290364
0.00293561
0.00296695
0.00299776
0.00302808
0.00305794
0.00308733
0.00311624
0.00314466
0.00317258
0.00319997
0.00322682
0.00325312
0.00327883
0.00330395
0.00332846
0.00335234
0.00337557
0.00339814
0.00342003
0.00344123
0.00346172
0.00348148
0.00350051
0.00351879
0.0035363
0.00355305
0.00356901
0.00358418
0.00359855
0.00361212
0.00362487
0.00363679
0.00364789
0.00365815
0.00366757
0.00367616
0.00368391
0.00369082
0.00369688
0.0037021
0.00370648
0.00371003
0.00371274
0.00371463
0.0037157
0.00371595
0.00371539
0.00371404
0.0037119
0.00370899
0.0037053
0.00370087
0.00369571
0.00368982
0.00368323
0.00367596
0.00366801
0.00365942
0.0036502
0.00364038
0.00362998
0.00361903
0.00360754
0.00359554
0.00358304
0.00357005
0.00355655
0.00354247
0.0035277
0.00351215
0.00349589
0.00347906
0.00346176
0.0034441
0.00342615
0.00340796
0.00338958
0.00337102
0.00335222
0.00333295
0.00331264
0.0032898
0.00326158
6.13234e-06
7.58049e-05
0.000159385
0.000227288
0.000279953
0.000320859
0.00035323
0.000379627
0.00040198
0.000421682
0.000439703
0.000456695
0.000473074
0.000489103
0.000504937
0.000520672
0.000536369
0.000552073
0.000567825
0.000583665
0.000599642
0.000615812
0.000632236
0.000648988
0.000666147
0.000683799
0.000702034
0.000720947
0.000740627
0.000761158
0.000782613
0.000805046
0.000828495
0.000852975
0.00087848
0.000904983
0.000932448
0.000960827
0.00099007
0.00102012
0.00105093
0.00108243
0.00111457
0.00114728
0.00118051
0.00121421
0.00124836
0.00128294
0.00131791
0.00135328
0.00138903
0.00142516
0.00146165
0.0014985
0.00153569
0.00157323
0.00161109
0.00164927
0.00168776
0.00172654
0.00176561
0.00180494
0.00184453
0.00188435
0.00192439
0.00196464
0.00200506
0.00204565
0.00208639
0.00212724
0.00216819
0.00220921
0.00225028
0.00229138
0.00233248
0.00237355
0.00241456
0.0024555
0.00249633
0.00253703
0.00257757
0.00261792
0.00265807
0.00269797
0.00273762
0.00277698
0.00281604
0.00285477
0.00289315
0.00293116
0.00296878
0.00300599
0.00304278
0.00307913
0.00311502
0.00315042
0.00318534
0.00321964
0.00325338
0.00328661
0.00331935
0.00335161
0.00338339
0.00341468
0.00344546
0.00347571
0.00350543
0.00353458
0.00356315
0.00359112
0.00361848
0.0036452
0.00367126
0.00369665
0.00372136
0.00374535
0.00376862
0.00379115
0.00381293
0.00383393
0.00385415
0.00387357
0.00389218
0.00390997
0.00392693
0.00394305
0.00395832
0.00397273
0.00398627
0.00399894
0.00401073
0.00402163
0.00403165
0.00404078
0.00404903
0.00405637
0.00406283
0.00406839
0.00407306
0.00407685
0.00407976
0.00408179
0.00408295
0.00408325
0.0040827
0.00408131
0.00407907
0.00407602
0.00407216
0.00406752
0.00406208
0.00405587
0.00404893
0.00404125
0.00403287
0.00402381
0.00401409
0.00400373
0.00399276
0.0039812
0.00396906
0.00395638
0.00394315
0.00392937
0.00391502
0.00390003
0.00388438
0.00386809
0.00385125
0.00383394
0.00381625
0.00379825
0.00378001
0.0037616
0.00374303
0.00372431
0.00370526
0.00368545
0.00366376
0.00363836
6.83329e-06
8.05777e-05
0.000169293
0.000242286
0.00029954
0.000344406
0.000380099
0.000409226
0.000433789
0.000455273
0.000474746
0.000492953
0.0005104
0.000527422
0.000544235
0.000560984
0.000577765
0.000594653
0.000611708
0.000628989
0.000646555
0.000664469
0.000682798
0.000701614
0.00072099
0.000741003
0.000761727
0.000783234
0.00080559
0.000828851
0.00085306
0.000878246
0.000904424
0.00093159
0.000959726
0.000988803
0.00101878
0.00104962
0.00108126
0.00111366
0.00114676
0.00118052
0.00121488
0.00124979
0.00128522
0.00132113
0.00135749
0.00139427
0.00143146
0.00146905
0.00150702
0.00154537
0.00158408
0.00162315
0.00166256
0.00170231
0.00174238
0.00178277
0.00182345
0.00186443
0.00190567
0.00194718
0.00198893
0.00203091
0.0020731
0.00211548
0.00215804
0.00220075
0.00224359
0.00228654
0.00232958
0.00237269
0.00241583
0.00245899
0.00250214
0.00254526
0.00258831
0.00263127
0.00267411
0.00271681
0.00275933
0.00280166
0.00284376
0.00288561
0.00292718
0.00296844
0.00300939
0.00304999
0.00309022
0.00313006
0.00316951
0.00320853
0.00324711
0.00328524
0.00332289
0.00336006
0.00339672
0.00343279
0.00346835
0.00350342
0.00353801
0.00357213
0.00360577
0.00363891
0.00367156
0.00370367
0.00373524
0.00376625
0.00379667
0.00382649
0.00385568
0.00388423
0.00391211
0.00393931
0.00396581
0.00399159
0.00401663
0.00404092
0.00406443
0.00408716
0.00410908
0.00413018
0.00415045
0.00416988
0.00418845
0.00420616
0.00422299
0.00423895
0.004254
0.00426816
0.0042814
0.00429372
0.00430513
0.00431563
0.0043252
0.00433385
0.00434157
0.00434835
0.00435422
0.00435916
0.00436321
0.00436632
0.00436853
0.00436983
0.00437024
0.0043698
0.00436845
0.00436623
0.00436317
0.00435927
0.00435455
0.00434902
0.00434271
0.00433562
0.00432779
0.00431924
0.00430997
0.00430003
0.00428942
0.00427818
0.00426632
0.00425386
0.00424082
0.0042272
0.004213
0.00419819
0.00418277
0.00416677
0.00415023
0.00413322
0.00411583
0.00409813
0.00408019
0.0040621
0.0040439
0.00402562
0.00400717
0.00398824
0.00396799
0.00394519
7.39546e-06
8.42347e-05
0.000176956
0.00025414
0.000315322
0.000363684
0.000402391
0.000434056
0.000460723
0.000483938
0.000504844
0.000524261
0.000542769
0.000560768
0.00057853
0.000596243
0.00061404
0.000632017
0.000650256
0.000668824
0.000687789
0.000707215
0.000727166
0.000747708
0.000768906
0.000790822
0.000813514
0.000837035
0.00086143
0.000886735
0.000912973
0.000940158
0.000968288
0.000997351
0.00102733
0.00105818
0.00108987
0.00112236
0.00115561
0.00118956
0.00122418
0.00125941
0.00129521
0.00133155
0.00136839
0.0014057
0.00144345
0.00148162
0.0015202
0.00155917
0.00159851
0.00163823
0.00167829
0.00171871
0.00175945
0.00180053
0.00184192
0.00188361
0.00192559
0.00196786
0.00201039
0.00205317
0.00209619
0.00213944
0.00218289
0.00222653
0.00227034
0.00231431
0.00235841
0.00240262
0.00244693
0.0024913
0.00253572
0.00258017
0.00262461
0.00266902
0.00271337
0.00275765
0.00280181
0.00284584
0.00288969
0.00293336
0.0029768
0.00301999
0.0030629
0.00310551
0.0031478
0.00318973
0.0032313
0.00327248
0.00331325
0.0033536
0.00339351
0.00343297
0.00347196
0.00351048
0.00354847
0.00358596
0.00362297
0.00365953
0.00369564
0.0037313
0.00376649
0.00380121
0.00383542
0.00386912
0.00390229
0.00393489
0.00396692
0.00399834
0.00402914
0.0040593
0.0040888
0.00411761
0.00414571
0.0041731
0.00419974
0.00422563
0.00425073
0.00427503
0.00429852
0.00432117
0.00434299
0.00436394
0.00438403
0.00440324
0.00442157
0.004439
0.00445551
0.0044711
0.00448576
0.00449948
0.00451227
0.00452412
0.00453503
0.004545
0.00455401
0.00456206
0.00456916
0.00457532
0.00458057
0.00458486
0.0045882
0.00459061
0.0045921
0.00459269
0.00459236
0.00459115
0.00458905
0.00458609
0.00458228
0.00457763
0.00457216
0.00456589
0.00455884
0.00455103
0.00454248
0.00453321
0.00452324
0.00451259
0.0045013
0.00448936
0.00447681
0.00446366
0.0044499
0.00443556
0.00442062
0.00440511
0.00438909
0.00437261
0.00435573
0.00433855
0.00432113
0.00430358
0.00428597
0.00426835
0.00425069
0.00423278
0.00421399
0.00419345
7.82185e-06
8.68875e-05
0.0001826
0.000263146
0.000327637
0.00037905
0.000420461
0.000454461
0.000483105
0.000507978
0.000530273
0.00055087
0.000570409
0.000589344
0.000607996
0.000626592
0.000645294
0.000664222
0.000683471
0.000703118
0.000723232
0.000743878
0.000765114
0.000786998
0.000809583
0.000832918
0.000857048
0.00088201
0.000907833
0.000934539
0.000962136
0.000990629
0.00102001
0.00105025
0.00108134
0.00111325
0.00114593
0.00117935
0.00121346
0.00124823
0.00128362
0.00131958
0.00135609
0.0013931
0.00143059
0.00146852
0.00150689
0.00154566
0.00158482
0.00162435
0.00166425
0.00170451
0.0017451
0.00178603
0.00182729
0.00186886
0.00191073
0.00195291
0.00199537
0.00203811
0.00208111
0.00212437
0.00216787
0.00221161
0.00225555
0.00229971
0.00234404
0.00238855
0.00243322
0.00247801
0.00252293
0.00256794
0.00261302
0.00265815
0.0027033
0.00274846
0.00279359
0.00283867
0.00288366
0.00292855
0.00297329
0.00301786
0.00306223
0.00310637
0.00315025
0.00319384
0.00323712
0.00328005
0.00332263
0.00336483
0.00340663
0.00344801
0.00348897
0.00352948
0.00356954
0.00360914
0.00364829
0.00368701
0.00372531
0.00376319
0.00380065
0.00383768
0.00387428
0.00391041
0.00394606
0.00398121
0.00401584
0.00404992
0.00408343
0.00411635
0.00414865
0.00418031
0.00421132
0.00424164
0.00427127
0.00430017
0.00432833
0.00435573
0.00438235
0.00440816
0.00443315
0.0044573
0.00448061
0.00450304
0.0045246
0.00454528
0.00456506
0.00458394
0.00460189
0.0046189
0.00463496
0.00465008
0.00466424
0.00467746
0.00468974
0.00470106
0.00471138
0.00472073
0.00472912
0.00473655
0.00474302
0.00474854
0.00475309
0.0047567
0.00475937
0.00476111
0.00476192
0.00476183
0.00476083
0.00475895
0.0047562
0.00475258
0.00474813
0.00474284
0.00473676
0.00472988
0.00472223
0.00471383
0.00470471
0.00469487
0.00468435
0.00467316
0.00466133
0.00464886
0.00463578
0.0046221
0.00460783
0.004593
0.00457766
0.00456185
0.00454565
0.00452913
0.0045124
0.00449553
0.00447864
0.00446181
0.00444503
0.00442817
0.00441075
0.0043921
8.11991e-06
8.86495e-05
0.000186442
0.000269585
0.000336795
0.000390818
0.000434615
0.000470722
0.000501187
0.000527608
0.000551212
0.000572924
0.000593426
0.00061322
0.000632665
0.000652022
0.000671478
0.000691173
0.000711213
0.000731682
0.00075265
0.000774178
0.00079632
0.000819125
0.000842635
0.000866889
0.000891919
0.000917749
0.000944398
0.000971875
0.00100018
0.00102932
0.00105926
0.00109
0.00112151
0.00115376
0.00118671
0.00122033
0.00125458
0.00128943
0.00132485
0.00136079
0.00139724
0.00143415
0.00147151
0.00150928
0.00154746
0.00158603
0.00162496
0.00166425
0.00170389
0.00174387
0.00178418
0.00182481
0.00186577
0.00190704
0.00194862
0.0019905
0.00203268
0.00207515
0.0021179
0.00216093
0.00220423
0.00224778
0.00229159
0.00233563
0.0023799
0.00242438
0.00246906
0.00251392
0.00255894
0.00260411
0.00264941
0.00269481
0.00274028
0.00278581
0.00283136
0.00287692
0.00292243
0.00296789
0.00301324
0.00305847
0.00310353
0.00314839
0.00319303
0.0032374
0.00328148
0.00332523
0.00336865
0.0034117
0.00345436
0.00349662
0.00353847
0.00357989
0.00362089
0.00366152
0.00370178
0.00374168
0.0037812
0.00382035
0.00385911
0.00389748
0.00393543
0.00397294
0.00400999
0.00404655
0.0040826
0.00411811
0.00415307
0.00418744
0.00422121
0.00425435
0.00428683
0.00431863
0.00434974
0.00438013
0.00440978
0.00443868
0.0044668
0.00449409
0.00452057
0.0045462
0.00457097
0.00459487
0.00461789
0.00464002
0.00466126
0.0046816
0.00470099
0.00471943
0.00473691
0.00475343
0.00476899
0.00478359
0.00479723
0.0048099
0.00482158
0.00483228
0.004842
0.00485075
0.00485854
0.00486535
0.0048712
0.00487609
0.00488003
0.00488302
0.00488508
0.00488622
0.00488644
0.00488576
0.00488419
0.00488174
0.00487844
0.00487429
0.00486931
0.00486352
0.00485694
0.00484958
0.00484147
0.00483262
0.00482305
0.0048128
0.00480186
0.00479027
0.00477805
0.0047652
0.00475176
0.00473776
0.00472323
0.00470823
0.00469283
0.00467711
0.00466117
0.0046451
0.00462902
0.00461303
0.00459717
0.00458135
0.00456517
0.00454811
8.30099e-06
8.96366e-05
0.000188699
0.00027373
0.000343092
0.000399283
0.000445124
0.00048308
0.000515164
0.000542977
0.000567762
0.00059047
0.00061182
0.000632344
0.000652435
0.00067238
0.000692388
0.000712613
0.00073317
0.00075415
0.000775621
0.000797643
0.000820263
0.000843522
0.000867454
0.000892088
0.000917445
0.000943542
0.000970387
0.000997983
0.00102633
0.00105541
0.00108521
0.00111572
0.00114691
0.00117874
0.0012112
0.00124425
0.00127786
0.00131199
0.00134663
0.00138174
0.0014173
0.00145329
0.00148967
0.00152645
0.0015636
0.00160111
0.00163897
0.00167717
0.00171572