/*--------------------------------*- C++ -*----------------------------------*\
  =========                 |
  \\      /  F ield         | OpenFOAM: The Open Source CFD Toolbox
   \\    /   O peration     | Website:  https://openfoam.org
    \\  /    A nd           | Version:  12
     \\/     M anipulation  |
\*---------------------------------------------------------------------------*/
FoamFile
{
    format      ascii;
    class       volScalarField;
    location    "0.2";
    object      p;
}
// * * * * * * * * * * * * * * * * * * * * * * * * * * * * * * * * * * * * * //

dimensions      [0 2 -2 0 0 0 0];

internalField   nonuniform List<scalar> 
12225
(
-1.12248
-3.40549
-4.56798
-4.87621
-5.04453
-5.20433
-5.329
-5.41753
-5.48725
-5.54841
-5.60278
-5.65019
-5.69096
-5.72439
-5.74936
-5.75553
-5.75258
-5.64445
-4.58998
-5.2921
-5.38236
-5.24735
-5.20735
-5.27471
-5.35557
-5.42154
-5.47869
-5.53224
-5.58198
-5.62676
-5.66628
-5.69967
-5.72649
-5.7397
-5.75216
-5.73668
-4.79473
-4.69178
-4.84859
-4.97077
-5.07821
-5.20061
-5.30901
-5.39181
-5.45916
-5.51919
-5.57355
-5.62201
-5.66473
-5.70144
-5.73257
-5.75501
-5.78304
-5.81552
-4.65744
-4.57932
-4.85541
-5.03419
-5.12872
-5.22595
-5.32119
-5.39888
-5.46364
-5.52204
-5.57555
-5.62382
-5.66698
-5.70517
-5.73943
-5.76981
-5.80804
-5.86038
-4.66441
-4.68167
-4.92178
-5.07174
-5.14785
-5.23266
-5.3224
-5.39862
-5.46276
-5.5207
-5.57409
-5.62276
-5.66696
-5.70725
-5.74511
-5.78225
-5.82728
-5.88702
-4.72609
-4.76856
-4.94638
-5.07717
-5.15524
-5.23788
-5.32432
-5.39932
-5.46313
-5.52083
-5.57426
-5.62344
-5.66876
-5.71107
-5.75208
-5.79408
-5.84319
-5.90485
-4.78583
-4.82536
-4.96179
-5.08406
-5.16653
-5.24636
-5.32817
-5.40119
-5.46445
-5.52186
-5.57527
-5.6249
-5.67126
-5.71536
-5.75889
-5.80414
-5.85533
-5.916
-4.83898
-4.87388
-4.98421
-5.09689
-5.17953
-5.25554
-5.33263
-5.40347
-5.46607
-5.52314
-5.57648
-5.62652
-5.6738
-5.71936
-5.76477
-5.81196
-5.86373
-5.92196
-4.88876
-4.9205
-5.01132
-5.11218
-5.19233
-5.26491
-5.33779
-5.40631
-5.46802
-5.52465
-5.57784
-5.62816
-5.67615
-5.72279
-5.76939
-5.81746
-5.86874
-5.924
-4.93612
-4.96475
-5.03995
-5.12891
-5.20536
-5.27486
-5.34391
-5.40988
-5.47042
-5.52647
-5.57937
-5.62978
-5.67821
-5.72549
-5.77266
-5.8208
-5.87092
-5.92313
-4.98089
-5.00618
-5.069
-5.14711
-5.21907
-5.28544
-5.3509
-5.4142
-5.47334
-5.52862
-5.58109
-5.63137
-5.67993
-5.72743
-5.77463
-5.82225
-5.87082
-5.92012
-5.01939
-5.04173
-5.09559
-5.1649
-5.23223
-5.2956
-5.35797
-5.41881
-5.47647
-5.53089
-5.58281
-5.63276
-5.68117
-5.72851
-5.77535
-5.82214
-5.86914
-5.91599
-5.05508
-5.07489
-5.12143
-5.183
-5.24563
-5.30593
-5.36541
-5.42383
-5.47992
-5.53336
-5.58459
-5.63405
-5.68208
-5.72902
-5.77524
-5.821
-5.86639
-5.91102
-5.0926
-5.10991
-5.14972
-5.20374
-5.26113
-5.31789
-5.37424
-5.43
-5.4842
-5.53637
-5.58665
-5.63536
-5.68271
-5.72891
-5.77418
-5.81859
-5.86217
-5.90453
-5.13071
-5.14562
-5.17948
-5.22652
-5.27846
-5.33128
-5.38432
-5.43725
-5.48927
-5.53984
-5.58889
-5.63651
-5.68284
-5.72796
-5.77192
-5.81473
-5.85635
-5.89647
-5.16747
-5.18022
-5.20909
-5.25003
-5.29671
-5.34548
-5.39515
-5.44517
-5.49483
-5.54353
-5.59103
-5.63726
-5.68223
-5.72593
-5.76832
-5.80935
-5.84895
-5.88692
-5.19999
-5.21099
-5.23598
-5.27201
-5.31412
-5.35912
-5.40563
-5.45287
-5.50014
-5.54683
-5.59257
-5.63718
-5.68055
-5.7226
-5.76325
-5.80242
-5.84006
-5.87603
-5.22392
-5.23372
-5.2561
-5.28879
-5.32763
-5.36977
-5.41375
-5.45872
-5.50392
-5.54875
-5.59278
-5.63573
-5.67746
-5.71783
-5.75675
-5.79414
-5.82997
-5.86415
-5.23229
-5.24164
-5.26311
-5.29464
-5.33232
-5.37332
-5.41613
-5.4599
-5.50391
-5.54753
-5.5903
-5.63195
-5.6723
-5.71124
-5.74869
-5.78459
-5.81891
-5.85165
-5.21729
-5.22735
-5.25033
-5.28396
-5.32375
-5.36633
-5.41019
-5.45464
-5.49905
-5.54278
-5.58541
-5.62669
-5.66652
-5.7048
-5.74149
-5.77657
-5.81002
-5.84189
-5.19108
-5.20226
-5.22805
-5.26576
-5.30951
-5.35506
-5.40109
-5.44728
-5.493
-5.53756
-5.58061
-5.62206
-5.66187
-5.69998
-5.73637
-5.77108
-5.80411
-5.83555
-5.15612
-5.16849
-5.19852
-5.24298
-5.29247
-5.34158
-5.3903
-5.43898
-5.48667
-5.53249
-5.57628
-5.61815
-5.65816
-5.6963
-5.73259
-5.7671
-5.7999
-5.83107
-5.11549
-5.12808
-5.16345
-5.21802
-5.27513
-5.32811
-5.37966
-5.43103
-5.48079
-5.52794
-5.5726
-5.61506
-5.65541
-5.69368
-5.72998
-5.76441
-5.79708
-5.8281
-5.07164
-5.0832
-5.12558
-5.19217
-5.25685
-5.31447
-5.37035
-5.42501
-5.47649
-5.52453
-5.56984
-5.6128
-5.65343
-5.6918
-5.72808
-5.76243
-5.79499
-5.82587
-5.02477
-5.03253
-5.09356
-5.17333
-5.23844
-5.29808
-5.35995
-5.41949
-5.47322
-5.52223
-5.56823
-5.61167
-5.65252
-5.69092
-5.72713
-5.76138
-5.79383
-5.82464
-4.97682
-4.95316
-5.06395
-5.17286
-5.2334
-5.28746
-5.35086
-5.41317
-5.46841
-5.51837
-5.56518
-5.60921
-5.65039
-5.68894
-5.7252
-5.75945
-5.79187
-5.82262
-4.9675
-4.82317
-4.98218
-5.14835
-5.23282
-5.29379
-5.35853
-5.41964
-5.47332
-5.52239
-5.56873
-5.61232
-5.65304
-5.69115
-5.72699
-5.76084
-5.79295
-5.8235
-5.11291
-4.8291
-4.86382
-4.99423
-5.11377
-5.22072
-5.31472
-5.39041
-5.45258
-5.50773
-5.55838
-5.60486
-5.64754
-5.68703
-5.72383
-5.75835
-5.7911
-5.8227
-5.0497
-5.54939
-5.55948
-5.40019
-5.31916
-5.34331
-5.39738
-5.44671
-5.49173
-5.53619
-5.57973
-5.62105
-5.65979
-5.69615
-5.73033
-5.76244
-5.79272
-5.82304
-1.71102
-3.58158
-4.65283
-4.94584
-5.08062
-5.21731
-5.32915
-5.40906
-5.47193
-5.52785
-5.57904
-5.62559
-5.66807
-5.70721
-5.74344
-5.77676
-5.80685
-5.83191
-6.72524
-6.72524
-6.72561
-6.72631
-6.72726
-6.72841
-6.72979
-6.7314
-6.73327
-6.7354
-6.73782
-6.74057
-6.74367
-6.74717
-6.7511
-6.7555
-6.7604
-6.76584
-6.77186
-6.77848
-6.78576
-6.79373
-6.80243
-6.81191
-6.8222
-6.83335
-6.84542
-6.85847
-6.87254
-6.88773
-6.9042
-6.92161
-6.939
-6.957
-6.97711
-6.99887
-7.02209
-7.04839
-7.07795
-7.10774
-7.12745
-7.15755
-7.18505
-7.1983
-7.22272
-7.24998
-7.27803
-7.30719
-7.33711
-7.36763
-7.39861
-7.4299
-7.4614
-7.493
-7.52458
-7.55603
-7.58725
-7.61812
-7.64854
-7.67836
-7.70748
-7.73576
-7.76306
-7.78923
-7.81414
-7.83763
-7.85954
-7.87971
-7.89797
-7.91414
-7.92805
-7.93952
-7.94837
-7.95441
-7.95745
-7.9573
-7.95377
-7.94668
-7.93583
-7.92104
-7.90211
-7.87887
-7.85113
-7.8187
-7.78143
-7.73913
-7.69163
-7.63879
-7.58044
-7.51642
-7.44661
-7.37086
-7.28905
-7.20106
-7.10679
-7.00613
-6.89907
-6.78562
-6.66574
-6.53921
-6.40578
-6.26526
-6.11782
-5.96351
-5.80235
-5.63437
-5.4596
-5.27808
-5.08987
-4.89505
-4.6937
-4.48593
-4.27187
-4.05165
-3.82543
-3.59337
-3.35566
-3.11249
-2.86408
-2.61065
-2.35243
-2.08968
-1.82265
-1.55162
-1.27685
-0.99865
-0.717301
-0.433106
-0.146375
0.14258
0.433445
0.725901
1.01963
1.3143
1.60961
1.90524
2.20086
2.49618
2.79087
3.08465
3.37723
3.6683
3.9576
4.24487
4.52983
4.81226
5.0919
5.36854
5.64197
5.91198
6.17839
6.44102
6.69972
6.95434
7.20473
7.45078
7.69237
7.92941
8.1618
8.38947
8.61234
8.83037
9.04351
9.25174
9.45504
9.65336
9.84652
10.0344
10.217
10.3944
10.5665
10.7334
10.895
11.0515
11.2028
11.3494
11.4921
11.6324
11.7792
11.9332
-6.72385
-6.72416
-6.72463
-6.72521
-6.72578
-6.72636
-6.72706
-6.72799
-6.72922
-6.73077
-6.73268
-6.73495
-6.73761
-6.74069
-6.74419
-6.74816
-6.75261
-6.75759
-6.76312
-6.76924
-6.77598
-6.78337
-6.79145
-6.80025
-6.8098
-6.82011
-6.83121
-6.84311
-6.8558
-6.86926
-6.88326
-6.89764
-6.9134
-6.93124
-6.95008
-6.9694
-6.98968
-7.00997
-7.02896
-7.04575
-7.07446
-7.09643
-7.11865
-7.15922
-7.19428
-7.22481
-7.25502
-7.28532
-7.31585
-7.34666
-7.37773
-7.40901
-7.44044
-7.47193
-7.50338
-7.53471
-7.56582
-7.59659
-7.62691
-7.65667
-7.68575
-7.71401
-7.74133
-7.76756
-7.79255
-7.81616
-7.83823
-7.85859
-7.87708
-7.89352
-7.90775
-7.91957
-7.92881
-7.93529
-7.93881
-7.93919
-7.93624
-7.92977
-7.91958
-7.90549
-7.88732
-7.86487
-7.83797
-7.80644
-7.7701
-7.72879
-7.68234
-7.63058
-7.57337
-7.51055
-7.44199
-7.36756
-7.28712
-7.20056
-7.10776
-7.00862
-6.90303
-6.79086
-6.67197
-6.54616
-6.41353
-6.27433
-6.12841
-5.97569
-5.81616
-5.64983
-5.47672
-5.29687
-5.11033
-4.91718
-4.7175
-4.51139
-4.29898
-4.0804
-3.8558
-3.62533
-3.3892
-3.14757
-2.90068
-2.64872
-2.39195
-2.1306
-1.86493
-1.59521
-1.32171
-1.04472
-0.764527
-0.481438
-0.195754
0.0922129
0.38215
0.673739
0.966662
1.2606
1.55524
1.85025
2.14533
2.44016
2.73445
3.02788
3.32016
3.61102
3.90016
4.18733
4.47225
4.75469
5.03441
5.31118
5.58478
5.85502
6.1217
6.38465
6.64371
6.89872
7.14954
7.39605
7.63813
7.87568
8.10861
8.33684
8.5603
8.77893
8.99269
9.20155
9.40549
9.60443
9.79822
9.98677
10.1701
10.3481
10.5209
10.6885
10.8509
11.0083
11.1607
11.3086
11.4531
11.5954
11.7457
11.8937
-6.7202
-6.72131
-6.72248
-6.72351
-6.72423
-6.72479
-6.72538
-6.72615
-6.72718
-6.72852
-6.73021
-6.73228
-6.73475
-6.73764
-6.74097
-6.74478
-6.74908
-6.75392
-6.75931
-6.7653
-6.77191
-6.77918
-6.78713
-6.7958
-6.80522
-6.81541
-6.8264
-6.83822
-6.85089
-6.86447
-6.87891
-6.89409
-6.91031
-6.92802
-6.94697
-6.96674
-6.98742
-7.00876
-7.03028
-7.05226
-7.07669
-7.10101
-7.12502
-7.15354
-7.18273
-7.21179
-7.24123
-7.27103
-7.30113
-7.33151
-7.36213
-7.39293
-7.42387
-7.45485
-7.48581
-7.51665
-7.54728
-7.5776
-7.6075
-7.63686
-7.66558
-7.69351
-7.72053
-7.74651
-7.77129
-7.79473
-7.81667
-7.83696
-7.85542
-7.87189
-7.88619
-7.89815
-7.90758
-7.91429
-7.91812
-7.91885
-7.91632
-7.91032
-7.90067
-7.88718
-7.86967
-7.84794
-7.82183
-7.79115
-7.75572
-7.71537
-7.66995
-7.61928
-7.56322
-7.50161
-7.43431
-7.36119
-7.28212
-7.19698
-7.10564
-7.008
-6.90395
-6.79335
-6.67608
-6.55216
-6.42146
-6.28409
-6.13999
-5.98913
-5.83148
-5.66705
-5.49587
-5.31795
-5.13336
-4.94216
-4.74443
-4.54027
-4.32981
-4.11316
-3.89047
-3.66191
-3.42765
-3.18788
-2.9428
-2.69264
-2.43761
-2.17797
-1.91396
-1.64585
-1.37391
-1.09842
-0.819681
-0.537979
-0.253619
0.033091
0.321838
0.612308
0.904184
1.19715
1.49088
1.78507
2.07941
2.37357
2.66726
2.96017
3.25201
3.5425
3.83135
4.1183
4.40308
4.68545
4.96516
5.24198
5.51571
5.78613
6.05306
6.31631
6.57572
6.83112
7.08239
7.32939
7.572
7.81011
8.04364
8.27248
8.49658
8.71586
8.93027
9.13977
9.34432
9.54385
9.73832
9.92765
10.1118
10.2907
10.4644
10.6329
10.7963
10.9546
11.1083
11.2576
11.4041
11.5481
11.701
11.8388
-6.71475
-6.71665
-6.71889
-6.72077
-6.72208
-6.72304
-6.7239
-6.72482
-6.72593
-6.7273
-6.72898
-6.73102
-6.73345
-6.7363
-6.73959
-6.74336
-6.74762
-6.75241
-6.75775
-6.76369
-6.77024
-6.77744
-6.78532
-6.7939
-6.80323
-6.81331
-6.82418
-6.83587
-6.8484
-6.8618
-6.87608
-6.89126
-6.90742
-6.9247
-6.94308
-6.96246
-6.98276
-7.00391
-7.02583
-7.0487
-7.07262
-7.09746
-7.12309
-7.14993
-7.17761
-7.20585
-7.23463
-7.26384
-7.29342
-7.32331
-7.35347
-7.38384
-7.41434
-7.4449
-7.47546
-7.50592
-7.53619
-7.56617
-7.59575
-7.62484
-7.6533
-7.68102
-7.70786
-7.73369
-7.75836
-7.78173
-7.80364
-7.82393
-7.84244
-7.85899
-7.87342
-7.88555
-7.89519
-7.90217
-7.90629
-7.90737
-7.90522
-7.89966
-7.89049
-7.87752
-7.86057
-7.83946
-7.814
-7.78402
-7.74933
-7.70978
-7.66518
-7.61539
-7.56025
-7.4996
-7.4333
-7.36121
-7.2832
-7.19915
-7.10893
-7.01243
-6.90953
-6.80013
-6.68414
-6.56152
-6.43226
-6.29631
-6.15364
-6.00423
-5.84805
-5.6851
-5.51541
-5.33899
-5.15591
-4.96622
-4.77
-4.56736
-4.35839
-4.14324
-3.92204
-3.69496
-3.46215
-3.22382
-2.98016
-2.73138
-2.47771
-2.2194
-1.95668
-1.68983
-1.41911
-1.1448
-0.867193
-0.586578
-0.303258
-0.0175372
0.270272
0.559858
0.850904
1.14309
1.43611
1.72964
2.02338
2.317
2.6102
2.90269
3.19417
3.48436
3.77296
4.05972
4.34437
4.62666
4.90635
5.1832
5.45701
5.72756
5.99466
6.25813
6.5178
6.77352
7.02512
7.2725
7.51551
7.75406
7.98803
8.21735
8.44195
8.66176
8.87671
9.08676
9.29182
9.49183
9.68677
9.87661
10.0613
10.2408
10.4151
10.5843
10.7484
10.9075
11.0619
11.2122
11.3596
11.5037
11.6555
11.781
-6.70884
-6.71159
-6.71499
-6.71786
-6.71992
-6.72145
-6.72275
-6.72401
-6.72538
-6.72696
-6.7288
-6.73098
-6.73353
-6.73648
-6.73987
-6.74372
-6.74807
-6.75294
-6.75837
-6.76438
-6.77101
-6.77828
-6.78624
-6.7949
-6.8043
-6.81446
-6.82542
-6.8372
-6.84983
-6.86334
-6.87774
-6.89306
-6.90936
-6.92668
-6.94501
-6.9643
-6.98451
-7.0056
-7.02754
-7.05037
-7.0741
-7.09872
-7.12427
-7.15074
-7.17795
-7.20574
-7.23405
-7.2628
-7.29196
-7.32145
-7.35124
-7.38124
-7.4114
-7.44165
-7.4719
-7.50208
-7.53209
-7.56183
-7.59121
-7.62011
-7.64841
-7.676
-7.70273
-7.72848
-7.75311
-7.77645
-7.79837
-7.8187
-7.83728
-7.85393
-7.86849
-7.88077
-7.8906
-7.89779
-7.90216
-7.90352
-7.90167
-7.89644
-7.88763
-7.87506
-7.85854
-7.83788
-7.8129
-7.78342
-7.74928
-7.71029
-7.66629
-7.61713
-7.56263
-7.50266
-7.43707
-7.36572
-7.28847
-7.20519
-7.11577
-7.0201
-6.91805
-6.80955
-6.69451
-6.57287
-6.44459
-6.30964
-6.16798
-6.01956
-5.86439
-5.70246
-5.53379
-5.3584
-5.17634
-4.98768
-4.79249
-4.59087
-4.38293
-4.16879
-3.9486
-3.72251
-3.4907
-3.25334
-3.01063
-2.76279
-2.51005
-2.25263
-1.9908
-1.7248
-1.45491
-1.1814
-0.904568
-0.624695
-0.342086
-0.0570428
0.230124
0.519101
0.809575
1.10123
1.39375
1.68682
1.98014
2.27338
2.56625
2.85844
3.14966
3.43962
3.72805
4.01467
4.29922
4.58144
4.8611
5.13797
5.41182
5.68245
5.94967
6.21328
6.47313
6.72904
6.98088
7.2285
7.47179
7.71063
7.94494
8.17461
8.39956
8.61974
8.83506
9.04547
9.25087
9.45119
9.64642
9.83657
10.0216
10.2014
10.3761
10.5457
10.7102
10.8697
11.0246
11.1751
11.3225
11.4654
11.6144
11.7282
-6.70367
-6.70715
-6.71158
-6.71541
-6.71824
-6.7204
-6.72222
-6.72394
-6.72568
-6.72758
-6.72971
-6.73215
-6.73493
-6.7381
-6.7417
-6.74576
-6.75031
-6.75538
-6.761
-6.76721
-6.77404
-6.78152
-6.78967
-6.79854
-6.80816
-6.81854
-6.82973
-6.84175
-6.85461
-6.86836
-6.88301
-6.89857
-6.91507
-6.93253
-6.95094
-6.97027
-6.99049
-7.01159
-7.03353
-7.05632
-7.07993
-7.10436
-7.1296
-7.15563
-7.18237
-7.20972
-7.23761
-7.26599
-7.29479
-7.32396
-7.35344
-7.38317
-7.41307
-7.44309
-7.47313
-7.50311
-7.53295
-7.56255
-7.5918
-7.62059
-7.64881
-7.67634
-7.70304
-7.72877
-7.75341
-7.77679
-7.79876
-7.81916
-7.83783
-7.8546
-7.86929
-7.88173
-7.89173
-7.89911
-7.90369
-7.90527
-7.90367
-7.89871
-7.89018
-7.8779
-7.8617
-7.84137
-7.81674
-7.78763
-7.75387
-7.71529
-7.67171
-7.62299
-7.56895
-7.50945
-7.44435
-7.37351
-7.29678
-7.21406
-7.12521
-7.03011
-6.92868
-6.82081
-6.70644
-6.58548
-6.45788
-6.32361
-6.18261
-6.03488
-5.88038
-5.71913
-5.55113
-5.37641
-5.19504
-5.00705
-4.81254
-4.6116
-4.40433
-4.19086
-3.97133
-3.7459
-3.51474
-3.27802
-3.03595
-2.78874
-2.53661
-2.2798
-2.01855
-1.75313
-1.4838
-1.21083
-0.934525
-0.655159
-0.373035
-0.0884586
0.198263
0.486818
0.776892
1.06817
1.36034
1.65309
1.9461
2.23907
2.53168
2.82365
3.11467
3.40447
3.69275
3.97925
4.2637
4.54586
4.82549
5.10234
5.3762
5.64687
5.91414
6.17784
6.43778
6.69381
6.94579
7.19358
7.43705
7.67609
7.91061
8.1405
8.36569
8.5861
8.80166
9.01229
9.21791
9.41844
9.61387
9.80422
9.98944
10.1695
10.3444
10.5142
10.6789
10.8387
10.9937
11.1441
11.2909
11.4321
11.578
11.6815
-6.70005
-6.70411
-6.70937
-6.714
-6.71752
-6.72028
-6.72264
-6.72482
-6.72699
-6.72926
-6.73174
-6.73449
-6.73757
-6.74104
-6.74492
-6.74925
-6.75407
-6.75941
-6.76531
-6.77179
-6.77889
-6.78664
-6.79507
-6.80421
-6.8141
-6.82476
-6.83622
-6.8485
-6.86162
-6.87561
-6.89048
-6.90624
-6.92291
-6.94049
-6.95896
-6.97832
-6.99855
-7.01963
-7.04153
-7.06425
-7.08776
-7.11205
-7.13708
-7.16285
-7.18928
-7.21632
-7.24392
-7.27203
-7.30058
-7.32952
-7.35879
-7.38834
-7.41808
-7.44795
-7.47787
-7.50775
-7.53751
-7.56705
-7.59625
-7.62503
-7.65324
-7.68078
-7.70752
-7.7333
-7.758
-7.78145
-7.80352
-7.82403
-7.84282
-7.85971
-7.87455
-7.88714
-7.8973
-7.90485
-7.90961
-7.91138
-7.90998
-7.90521
-7.8969
-7.88484
-7.86886
-7.84876
-7.82438
-7.79552
-7.76202
-7.7237
-7.6804
-7.63195
-7.57821
-7.51902
-7.45424
-7.38373
-7.30735
-7.22498
-7.1365
-7.04179
-6.94076
-6.83331
-6.71936
-6.59884
-6.47167
-6.33782
-6.19725
-6.04993
-5.89585
-5.73501
-5.56743
-5.39313
-5.21217
-5.0246
-4.83051
-4.62998
-4.42313
-4.21008
-3.99097
-3.76596
-3.53521
-3.2989
-3.05724
-2.81043
-2.5587
-2.30228
-2.04142
-1.77638
-1.50742
-1.23482
-0.958872
-0.679853
-0.398066
-0.113815
0.172592
0.460845
0.75063
1.04163
1.33354
1.62604
1.91882
2.21157
2.50399
2.79577
3.08663
3.37627
3.66442
3.95081
4.23517
4.51725
4.79681
5.07362
5.34745
5.6181
5.88538
6.14909
6.40908
6.66517
6.91722
7.16509
7.40867
7.64782
7.88246
8.11249
8.33782
8.55837
8.77407
8.98483
9.19059
9.39127
9.58685
9.77733
9.96269
10.1429
10.318
10.4879
10.6527
10.8125
10.9674
11.1175
11.2634
11.4027
11.5457
11.64
-6.69846
-6.70291
-6.70876
-6.714
-6.71809
-6.72137
-6.72421
-6.72684
-6.72941
-6.73206
-6.73489
-6.73798
-6.74139
-6.74517
-6.74935
-6.75399
-6.75911
-6.76475
-6.77094
-6.77772
-6.78511
-6.79315
-6.80187
-6.8113
-6.82146
-6.83239
-6.84411
-6.85664
-6.86999
-6.8842
-6.89925
-6.91518
-6.93198
-6.94964
-6.96817
-6.98756
-7.00779
-7.02884
-7.0507
-7.07335
-7.09678
-7.12095
-7.14585
-7.17145
-7.1977
-7.22457
-7.25199
-7.27994
-7.30834
-7.33716
-7.36632
-7.39578
-7.42545
-7.45527
-7.48516
-7.51503
-7.54479
-7.57435
-7.6036
-7.63243
-7.66071
-7.68833
-7.71515
-7.74104
-7.76584
-7.78942
-7.81161
-7.83225
-7.85117
-7.86821
-7.88319
-7.89592
-7.90623
-7.91392
-7.91883
-7.92074
-7.91948
-7.91486
-7.90669
-7.89477
-7.87893
-7.85898
-7.83473
-7.80602
-7.77266
-7.73449
-7.69134
-7.64305
-7.58947
-7.53044
-7.46583
-7.3955
-7.31931
-7.23714
-7.14887
-7.05437
-6.95357
-6.84635
-6.73264
-6.61234
-6.4854
-6.35177
-6.21142
-6.06431
-5.91045
-5.74982
-5.58245
-5.40836
-5.22762
-5.04026
-4.84639
-4.64608
-4.43946
-4.22664
-4.00776
-3.78297
-3.55246
-3.31639
-3.07496
-2.82839
-2.5769
-2.32072
-2.06011
-1.79531
-1.52659
-1.25423
-0.97852
-0.699738
-0.418183
-0.134161
0.152022
0.440055
0.729625
1.02042
1.31212
1.60443
1.89702
2.18959
2.48184
2.77346
3.06417
3.35367
3.64169
3.92795
4.2122
4.49418
4.77365
5.05038
5.32415
5.59475
5.86199
6.12568
6.38565
6.64174
6.8938
7.1417
7.38531
7.62451
7.8592
8.08929
8.31469
8.53532
8.75109
8.96193
9.16777
9.36854
9.56422
9.75479
9.94025
10.1206
10.2957
10.4657
10.6305
10.7902
10.9449
11.0944
11.2392
11.3765
11.5169
11.6033
-6.69908
-6.70376
-6.70996
-6.71561
-6.72012
-6.72382
-6.72705
-6.73006
-6.73299
-6.73598
-6.73914
-6.74254
-6.74626
-6.75033
-6.7548
-6.75973
-6.76513
-6.77105
-6.77752
-6.78457
-6.79223
-6.80054
-6.80952
-6.8192
-6.82961
-6.84077
-6.85271
-6.86544
-6.87898
-6.89335
-6.90855
-6.9246
-6.94149
-6.95923
-6.9778
-6.99721
-7.01744
-7.03848
-7.06031
-7.08293
-7.1063
-7.13041
-7.15524
-7.18075
-7.20692
-7.2337
-7.26105
-7.28894
-7.31729
-7.34608
-7.37523
-7.40468
-7.43438
-7.46424
-7.49418
-7.52412
-7.55396
-7.58361
-7.61297
-7.64191
-7.67032
-7.69807
-7.72502
-7.75105
-7.776
-7.79972
-7.82205
-7.84283
-7.86189
-7.87906
-7.89417
-7.90702
-7.91745
-7.92525
-7.93026
-7.93227
-7.93109
-7.92655
-7.91845
-7.9066
-7.89081
-7.87091
-7.84671
-7.81804
-7.78472
-7.74659
-7.70348
-7.65523
-7.60169
-7.54271
-7.47814
-7.40786
-7.33173
-7.24963
-7.16142
-7.06701
-6.96628
-6.85914
-6.74549
-6.62526
-6.49838
-6.36481
-6.22451
-6.07746
-5.92364
-5.76307
-5.59575
-5.42172
-5.24103
-5.05375
-4.85994
-4.65971
-4.45316
-4.24043
-4.02164
-3.79696
-3.56655
-3.33059
-3.08929
-2.84284
-2.59148
-2.33544
-2.07497
-1.81031
-1.54175
-1.26955
-0.993995
-0.715375
-0.433985
-0.15013
0.135884
0.423747
0.713146
1.00377
1.2953
1.58744
1.87987
2.17228
2.46436
2.75583
3.04638
3.33573
3.6236
3.90973
4.19384
4.4757
4.75505
5.03167
5.30535
5.57586
5.84302
6.10664
6.36655
6.62259
6.87461
7.12248
7.36606
7.60526
7.83995
8.07005
8.29546
8.51611
8.7319
8.94278
9.14865
9.34948
9.54521
9.73584
9.92134
10.1017
10.2768
10.4468
10.6116
10.7711
10.9254
11.0742
11.2179
11.3531
11.4911
11.5706
-6.70192
-6.70665
-6.71299
-6.71884
-6.72362
-6.7276
-6.73114
-6.73444
-6.73766
-6.74093
-6.74435
-6.74801
-6.75197
-6.75629
-6.76101
-6.76616
-6.7718
-6.77795
-6.78464
-6.79191
-6.79979
-6.80831
-6.81749
-6.82737
-6.83796
-6.8493
-6.8614
-6.87428
-6.88795
-6.90244
-6.91774
-6.93387
-6.95083
-6.96861
-6.98722
-7.00665
-7.0269
-7.04794
-7.06977
-7.09238
-7.11574
-7.13985
-7.16466
-7.19017
-7.21633
-7.24311
-7.27048
-7.29839
-7.32678
-7.35562
-7.38484
-7.41438
-7.44417
-7.47414
-7.5042
-7.53427
-7.56426
-7.59406
-7.62357
-7.65267
-7.68124
-7.70915
-7.73627
-7.76245
-7.78755
-7.81142
-7.83389
-7.8548
-7.87398
-7.89126
-7.90646
-7.91939
-7.92989
-7.93775
-7.9428
-7.94484
-7.94368
-7.93914
-7.93103
-7.91916
-7.90335
-7.88341
-7.85917
-7.83044
-7.79707
-7.75887
-7.7157
-7.66738
-7.61378
-7.55474
-7.49012
-7.41978
-7.3436
-7.26145
-7.1732
-7.07875
-6.97798
-6.87078
-6.75706
-6.63676
-6.50982
-6.37617
-6.2358
-6.08868
-5.93479
-5.77414
-5.60676
-5.43267
-5.25193
-5.0646
-4.87076
-4.6705
-4.46394
-4.25119
-4.03241
-3.80774
-3.57735
-3.34143
-3.10017
-2.85378
-2.60248
-2.34651
-2.08612
-1.82156
-1.55309
-1.281
-1.00557
-0.727073
-0.445817
-0.162101
0.123767
0.41148
0.700724
0.991189
1.28256
1.57453
1.86678
2.15902
2.45093
2.74222
3.0326
3.32179
3.60949
3.89545
4.17941
4.46111
4.74032
5.01679
5.29033
5.56071
5.82774
6.09125
6.35105
6.60699
6.85893
7.10672
7.35024
7.58937
7.82402
8.05407
8.27945
8.50008
8.71586
8.92672
9.1326
9.33344
9.52919
9.71984
9.90535
10.0857
10.2608
10.4307
10.5953
10.7546
10.9084
11.0564
11.1989
11.3321
11.468
11.5417
-6.70679
-6.71144
-6.71772
-6.7236
-6.72848
-6.73263
-6.73635
-6.73984
-6.74326
-6.74672
-6.75033
-6.75417
-6.7583
-6.76278
-6.76766
-6.77298
-6.77877
-6.78507
-6.79191
-6.79932
-6.80734
-6.816
-6.82531
-6.83531
-6.84602
-6.85747
-6.86967
-6.88264
-6.89639
-6.91095
-6.92631
-6.94249
-6.95949
-6.97731
-6.99596
-7.01541
-7.03568
-7.05675
-7.07861
-7.10125
-7.12465
-7.14879
-7.17366
-7.19922
-7.22544
-7.2523
-7.27975
-7.30776
-7.33627
-7.36523
-7.39458
-7.42426
-7.45421
-7.48434
-7.51457
-7.54482
-7.57498
-7.60496
-7.63465
-7.66392
-7.69266
-7.72073
-7.74801
-7.77434
-7.79957
-7.82355
-7.84613
-7.86713
-7.88638
-7.90372
-7.91895
-7.93191
-7.94241
-7.95026
-7.95527
-7.95726
-7.95603
-7.95141
-7.94321
-7.93123
-7.9153
-7.89523
-7.87085
-7.84199
-7.80846
-7.77012
-7.72679
-7.67832
-7.62457
-7.56537
-7.50061
-7.43013
-7.35381
-7.27153
-7.18315
-7.08855
-6.98762
-6.88026
-6.76638
-6.64591
-6.51879
-6.38498
-6.24444
-6.09715
-5.9431
-5.78231
-5.61478
-5.44056
-5.25969
-5.07225
-4.87831
-4.67796
-4.47132
-4.25851
-4.03968
-3.81497
-3.58457
-3.34864
-3.10738
-2.86101
-2.60975
-2.35383
-2.0935
-1.82901
-1.56063
-1.28864
-1.01331
-0.734942
-0.453822
-0.170253
0.11546
0.40301
0.692084
0.982373
1.27356
1.56534
1.8574
2.14944
2.44115
2.73224
3.02242
3.3114
3.5989
3.88466
4.16842
4.44992
4.72893
5.00521
5.27856
5.54877
5.81563
6.07897
6.33862
6.59442
6.84622
7.09388
7.33729
7.57632
7.81087
8.04085
8.26616
8.48671
8.70244
8.91327
9.11912
9.31994
9.51569
9.70633
9.89182
10.0721
10.2472
10.417
10.5814
10.7403
10.8936
11.0408
11.182
11.3133
11.4472
11.516
-6.71342
-6.71787
-6.72393
-6.72969
-6.73455
-6.73873
-6.74251
-6.74608
-6.74958
-6.75313
-6.75682
-6.76074
-6.76495
-6.7695
-6.77445
-6.77983
-6.78568
-6.79204
-6.79894
-6.80641
-6.81449
-6.8232
-6.83256
-6.84261
-6.85337
-6.86486
-6.8771
-6.8901
-6.90389
-6.91848
-6.93387
-6.95008
-6.96711
-6.98496
-7.00363
-7.02312
-7.04343
-7.06455
-7.08647
-7.10917
-7.13265
-7.15688
-7.18184
-7.2075
-7.23385
-7.26083
-7.28842
-7.31658
-7.34524
-7.37437
-7.4039
-7.43376
-7.46389
-7.4942
-7.52462
-7.55505
-7.58539
-7.61554
-7.64539
-7.67482
-7.7037
-7.7319
-7.75928
-7.7857
-7.81101
-7.83505
-7.85766
-7.87868
-7.89793
-7.91523
-7.93042
-7.94331
-7.95371
-7.96145
-7.96633
-7.96818
-7.96679
-7.96199
-7.9536
-7.94142
-7.92528
-7.905
-7.88039
-7.8513
-7.81755
-7.77897
-7.73542
-7.68672
-7.63274
-7.57334
-7.50836
-7.43768
-7.36116
-7.27868
-7.19008
-7.09525
-6.99407
-6.88646
-6.77234
-6.65163
-6.52427
-6.39023
-6.24946
-6.10196
-5.9477
-5.78671
-5.619
-5.4446
-5.26358
-5.076
-4.88192
-4.68147
-4.47473
-4.26185
-4.04295
-3.8182
-3.58776
-3.35183
-3.11058
-2.86424
-2.61303
-2.35717
-2.09692
-1.83252
-1.56426
-1.29238
-1.01719
-0.73897
-0.458014
-0.174622
0.110904
0.398256
0.687124
0.977197
1.26816
1.55971
1.85153
2.14332
2.43479
2.72563
3.01555
3.30427
3.59152
3.87702
4.16052
4.44177
4.72053
4.99657
5.26969
5.53966
5.8063
6.06943
6.32887
6.58447
6.83609
7.08358
7.32683
7.56571
7.80013
8.02998
8.25518
8.47565
8.69129
8.90205
9.10784
9.30862
9.50434
9.69495
9.8804
10.0607
10.2356
10.4053
10.5694
10.728
10.8807
11.027
11.1669
11.2964
11.4284
11.4931
-6.72149
-6.72568
-6.73141
-6.7369
-6.7416
-6.74569
-6.74941
-6.75293
-6.7564
-6.75991
-6.76357
-6.76745
-6.77162
-6.77613
-6.78104
-6.78638
-6.79219
-6.79851
-6.80538
-6.81282
-6.82086
-6.82954
-6.83888
-6.84891
-6.85965
-6.87112
-6.88335
-6.89635
-6.91013
-6.92472
-6.94011
-6.95633
-6.97338
-6.99125
-7.00996
-7.0295
-7.04986
-7.07105
-7.09304
-7.11584
-7.13942
-7.16376
-7.18885
-7.21465
-7.24114
-7.26828
-7.29603
-7.32435
-7.35319
-7.38249
-7.41219
-7.44222
-7.47252
-7.50299
-7.53356
-7.56413
-7.5946
-7.62487
-7.65482
-7.68433
-7.71327
-7.74151
-7.76891
-7.79533
-7.82061
-7.8446
-7.86714
-7.88806
-7.90719
-7.92435
-7.93937
-7.95207
-7.96227
-7.96978
-7.97443
-7.97602
-7.97436
-7.96929
-7.96061
-7.94814
-7.9317
-7.91112
-7.88622
-7.85683
-7.82279
-7.78393
-7.74009
-7.69112
-7.63688
-7.57721
-7.51199
-7.44107
-7.36431
-7.28156
-7.19267
-7.09754
-6.99607
-6.88817
-6.77376
-6.65277
-6.52514
-6.39084
-6.24983
-6.10209
-5.94762
-5.78643
-5.61853
-5.44397
-5.2628
-5.07508
-4.8809
-4.68035
-4.47354
-4.2606
-4.04167
-3.81691
-3.58648
-3.35057
-3.10938
-2.8631
-2.61198
-2.35623
-2.0961
-1.83185
-1.56373
-1.29204
-1.01704
-0.739021
-0.458287
-0.17513
0.110147
0.397238
0.685835
0.975626
1.2663
1.55755
1.84907
2.14055
2.4317
2.72222
3.01181
3.30021
3.58713
3.87231
4.1555
4.43643
4.71488
4.99062
5.26343
5.53311
5.79947
6.06233
6.32152
6.57687
6.82826
7.07553
7.31857
7.55726
7.79151
8.0212
8.24626
8.46659
8.68213
8.89279
9.09851
9.29922
9.49488
9.68544
9.87084
10.051
10.2259
10.3953
10.5592
10.7173
10.8694
11.0148
11.1535
11.2813
11.4114
11.4729
-6.73072
-6.7346
-6.73991
-6.74505
-6.74947
-6.75333
-6.75685
-6.76019
-6.76347
-6.76681
-6.7703
-6.77401
-6.77801
-6.78236
-6.78711
-6.7923
-6.79797
-6.80416
-6.8109
-6.81822
-6.82615
-6.83473
-6.84398
-6.85393
-6.86459
-6.876
-6.88816
-6.90111
-6.91486
-6.92942
-6.9448
-6.96101
-6.97806
-6.99595
-7.01469
-7.03427
-7.0547
-7.07595
-7.09803
-7.12093
-7.14461
-7.16907
-7.19428
-7.22022
-7.24684
-7.27412
-7.30201
-7.33046
-7.35943
-7.38885
-7.41866
-7.44879
-7.47917
-7.50972
-7.54034
-7.57095
-7.60143
-7.63169
-7.66161
-7.69107
-7.71993
-7.74807
-7.77535
-7.80161
-7.82672
-7.85051
-7.87283
-7.8935
-7.91236
-7.92924
-7.94396
-7.95634
-7.96621
-7.97338
-7.97767
-7.9789
-7.97688
-7.97143
-7.96238
-7.94955
-7.93275
-7.91182
-7.88658
-7.85685
-7.82249
-7.78332
-7.73918
-7.68993
-7.63542
-7.5755
-7.51003
-7.43886
-7.3618
-7.27873
-7.18952
-7.09408
-6.9923
-6.88411
-6.76941
-6.64815
-6.52027
-6.38572
-6.24449
-6.09654
-5.94189
-5.78053
-5.61249
-5.4378
-5.25653
-5.06872
-4.87448
-4.67389
-4.46707
-4.25414
-4.03524
-3.81053
-3.58017
-3.34436
-3.10329
-2.85716
-2.6062
-2.35063
-2.09071
-1.82668
-1.55881
-1.28737
-1.01265
-0.734929
-0.454503
-0.171668
0.113273
0.400016
0.688253
0.977674
1.26797
1.55883
1.84996
2.14104
2.43179
2.72191
3.0111
3.2991
3.58561
3.87039
4.15318
4.43372
4.71179
4.98715
5.2596
5.52893
5.79494
6.05747
6.31634
6.57139
6.82249
7.0695
7.31229
7.55075
7.78478
8.01428
8.23916
8.45934
8.67474
8.88528
9.0909
9.29154
9.48714
9.67763
9.86295
10.043
10.2178
10.387
10.5506
10.7083
10.8597
11.0042
11.1417
11.2679
11.3962
11.4551
-6.74088
-6.74443
-6.74929
-6.75399
-6.75801
-6.7615
-6.76466
-6.76764
-6.77058
-6.77358
-6.77674
-6.78013
-6.78383
-6.78789
-6.79237
-6.79729
-6.80272
-6.80868
-6.8152
-6.82233
-6.83008
-6.83849
-6.84759
-6.85739
-6.86793
-6.87923
-6.89129
-6.90416
-6.91783
-6.93233
-6.94766
-6.96384
-6.98088
-6.99877
-7.01752
-7.03712
-7.05758
-7.07888
-7.10101
-7.12396
-7.14771
-7.17223
-7.19751
-7.2235
-7.25017
-7.27749
-7.30541
-7.33388
-7.36284
-7.39224
-7.42202
-7.45209
-7.48239
-7.51284
-7.54333
-7.57378
-7.6041
-7.63416
-7.66385
-7.69306
-7.72165
-7.7495
-7.77646
-7.8024
-7.82715
-7.85058
-7.87251
-7.89278
-7.91123
-7.92769
-7.94198
-7.95393
-7.96336
-7.97009
-7.97393
-7.97472
-7.97227
-7.96641
-7.95695
-7.94371
-7.92653
-7.90523
-7.87963
-7.84958
-7.8149
-7.77544
-7.73104
-7.68154
-7.6268
-7.56666
-7.50094
-7.42947
-7.35209
-7.2687
-7.17919
-7.08346
-6.98141
-6.87295
-6.75802
-6.63653
-6.50845
-6.37372
-6.23233
-6.08425
-5.92948
-5.76803
-5.59993
-5.4252
-5.24391
-5.05612
-4.86191
-4.66138
-4.45464
-4.24182
-4.02305
-3.7985
-3.56833
-3.33272
-3.09188
-2.846
-2.59532
-2.34005
-2.08044
-1.81675
-1.54924
-1.27818
-1.00384
-0.726528
-0.446523
-0.164124
0.12037
0.406653
0.69442
0.983363
1.27317
1.56355
1.85417
2.14476
2.43501
2.72462
3.01331
3.30081
3.58683
3.87112
4.15343
4.4335
4.7111
4.98601
5.25802
5.52692
5.79252
6.05466
6.31315
6.56785
6.8186
7.06529
7.30779
7.54598
7.77976
8.00903
8.23371
8.4537
8.66895
8.87936
9.08487
9.28542
9.48093
9.67135
9.8566
10.0366
10.2112
10.3802
10.5435
10.7007
10.8515
10.9951
11.1314
11.2561
11.3826
11.4397
-6.75227
-6.75551
-6.7599
-6.76407
-6.76754
-6.77046
-6.77304
-6.77544
-6.7778
-6.78025
-6.78288
-6.78577
-6.789
-6.79263
-6.79669
-6.80124
-6.80631
-6.81195
-6.81817
-6.82501
-6.83251
-6.84068
-6.84955
-6.85915
-6.86949
-6.88061
-6.89252
-6.90523
-6.91877
-6.93314
-6.94836
-6.96444
-6.98138
-6.99918
-7.01785
-7.03738
-7.05776
-7.07899
-7.10105
-7.12391
-7.14757
-7.172
-7.19715
-7.22302
-7.24954
-7.27669
-7.30442
-7.33268
-7.3614
-7.39054
-7.42003
-7.44979
-7.47976
-7.50984
-7.53995
-7.57
-7.59989
-7.62951
-7.65874
-7.68747
-7.71557
-7.74292
-7.76936
-7.79477
-7.81899
-7.84188
-7.86327
-7.883
-7.90091
-7.91682
-7.93058
-7.942
-7.95091
-7.95713
-7.96048
-7.96079
-7.95789
-7.95158
-7.9417
-7.92808
-7.91053
-7.8889
-7.863
-7.83267
-7.79775
-7.75807
-7.71349
-7.66384
-7.60892
-7.54856
-7.48256
-7.4108
-7.33315
-7.24951
-7.15977
-7.06383
-6.96159
-6.85297
-6.73789
-6.61629
-6.48811
-6.35332
-6.21188
-6.06378
-5.90902
-5.74761
-5.57957
-5.40493
-5.22376
-5.03612
-4.84208
-4.64175
-4.43524
-4.22267
-4.00419
-3.77994
-3.55011
-3.31486
-3.0744
-2.82893
-2.57867
-2.32385
-2.06472
-1.80152
-1.53451
-1.26398
-0.990191
-0.713434
-0.434001
-0.152185
0.131713