/*--------------------------------*- C++ -*----------------------------------*\
  =========                 |
  \\      /  F ield         | OpenFOAM: The Open Source CFD Toolbox
   \\    /   O peration     | Website:  https://openfoam.org
    \\  /    A nd           | Version:  12
     \\/     M anipulation  |
\*---------------------------------------------------------------------------*/
FoamFile
{
    format      ascii;
    class       surfaceScalarField;
    location    "0.2";
    object      phi;
}
// * * * * * * * * * * * * * * * * * * * * * * * * * * * * * * * * * * * * * //

dimensions      [0 3 -1 0 0 0 0];

internalField   nonuniform List<scalar> 
24170
(
3.1336e-06
5.48068e-08
3.04827e-06
8.53277e-08
2.97315e-06
7.51257e-08
2.90431e-06
6.88389e-08
2.83947e-06
6.48329e-08
2.78225e-06
5.72261e-08
2.73334e-06
4.89052e-08
2.69181e-06
4.15309e-08
2.65636e-06
3.54472e-08
2.62583e-06
3.05315e-08
2.59925e-06
2.65844e-08
2.57581e-06
2.34422e-08
2.55482e-06
2.09862e-08
2.53562e-06
1.92036e-08
2.51755e-06
1.80637e-08
2.49885e-06
1.87029e-08
2.47824e-06
2.06059e-08
3.78635e-08
2.44038e-06
3.45361e-06
1.84449e-08
3.45616e-06
8.27747e-08
3.44962e-06
8.16711e-08
3.438e-06
8.04613e-08
3.42351e-06
7.93228e-08
3.40596e-06
7.47691e-08
3.38633e-06
6.85376e-08
3.36542e-06
6.24383e-08
3.34401e-06
5.68587e-08
3.3227e-06
5.18411e-08
3.30189e-06
4.73937e-08
3.28181e-06
4.35262e-08
3.26256e-06
4.0232e-08
3.24414e-06
3.76218e-08
3.2266e-06
3.56091e-08
3.20977e-06
3.55351e-08
3.19455e-06
3.58255e-08
4.60669e-08
3.18634e-06
3.66535e-06
1.56083e-08
3.67825e-06
6.9876e-08
3.68531e-06
7.46109e-08
3.68959e-06
7.61806e-08
3.69126e-06
7.76509e-08
3.69013e-06
7.59033e-08
3.68668e-06
7.19921e-08
3.68148e-06
6.76375e-08
3.67496e-06
6.33762e-08
3.66747e-06
5.93275e-08
3.6593e-06
5.5568e-08
3.65065e-06
5.21762e-08
3.64167e-06
4.92077e-08
3.63248e-06
4.68127e-08
3.62308e-06
4.50162e-08
3.61388e-06
4.47259e-08
3.60457e-06
4.51377e-08
4.97921e-08
3.60085e-06
3.92465e-06
1.63479e-08
3.9358e-06
5.87248e-08
3.94254e-06
6.78679e-08
3.94802e-06
7.07057e-08
3.95243e-06
7.32408e-08
3.95535e-06
7.29854e-08
3.9569e-06
7.04422e-08
3.95737e-06
6.71586e-08
3.95697e-06
6.37801e-08
3.95583e-06
6.04662e-08
3.95409e-06
5.73107e-08
3.95185e-06
5.44149e-08
3.9492e-06
5.18621e-08
3.94621e-06
4.97963e-08
3.94293e-06
4.82963e-08
3.93979e-06
4.78668e-08
3.93679e-06
4.81355e-08
5.0059e-08
3.93653e-06
4.20777e-06
1.57078e-08
4.216e-06
5.04934e-08
4.22166e-06
6.22046e-08
4.22659e-06
6.57747e-08
4.23129e-06
6.85433e-08
4.23525e-06
6.90306e-08
4.23834e-06
6.73491e-08
4.2407e-06
6.47919e-08
4.24246e-06
6.20297e-08
4.24367e-06
5.92468e-08
4.24444e-06
5.65444e-08
4.24482e-06
5.4032e-08
4.24488e-06
5.18044e-08
4.24469e-06
4.99842e-08
4.24434e-06
4.86505e-08
4.24416e-06
4.80498e-08
4.24433e-06
4.7961e-08
4.84255e-08
4.24596e-06
4.51044e-06
1.43552e-08
4.51686e-06
4.40713e-08
4.52217e-06
5.6894e-08
4.52683e-06
6.11162e-08
4.53144e-06
6.39315e-08
4.53563e-06
6.48413e-08
4.53921e-06
6.37674e-08
4.54225e-06
6.17508e-08
4.54484e-06
5.94484e-08
4.54702e-06
5.70678e-08
4.54884e-06
5.47162e-08
4.55037e-06
5.25034e-08
4.55165e-06
5.05237e-08
4.55276e-06
4.88734e-08
4.5538e-06
4.76095e-08
4.55503e-06
4.68258e-08
4.55665e-06
4.63438e-08
4.59281e-08
4.55914e-06
4.83412e-06
1.29544e-08
4.83958e-06
3.86125e-08
4.84483e-06
5.16429e-08
4.84942e-06
5.65269e-08
4.85393e-06
5.94231e-08
4.85816e-06
6.06144e-08
4.86192e-06
6.00045e-08
4.86525e-06
5.84191e-08
4.86822e-06
5.64819e-08
4.87086e-06
5.44226e-08
4.87322e-06
5.23536e-08
4.87535e-06
5.03803e-08
4.87728e-06
4.85896e-08
4.8791e-06
4.70529e-08
4.88091e-06
4.58004e-08
4.8829e-06
4.48416e-08
4.88522e-06
4.40162e-08
4.30592e-08
4.88809e-06
5.1809e-06
1.16348e-08
5.1857e-06
3.38081e-08
5.19084e-06
4.65093e-08
5.19542e-06
5.1949e-08
5.19988e-06
5.4961e-08
5.20414e-06
5.63562e-08
5.20802e-06
5.61234e-08
5.21153e-06
5.49072e-08
5.21473e-06
5.32817e-08
5.21766e-06
5.14943e-08
5.22035e-06
4.96627e-08
5.22284e-06
4.78859e-08
5.22519e-06
4.62412e-08
5.22747e-06
4.47793e-08
5.22976e-06
4.35089e-08
5.2322e-06
4.23985e-08
5.23491e-06
4.13088e-08
4.00259e-08
5.23794e-06
5.5526e-06
1.03717e-08
5.55685e-06
2.95588e-08
5.56177e-06
4.15925e-08
5.56633e-06
4.73829e-08
5.57079e-06
5.05058e-08
5.57509e-06
5.20504e-08
5.57909e-06
5.21294e-08
5.58275e-06
5.12408e-08
5.58614e-06
4.98949e-08
5.58929e-06
4.83483e-08
5.59223e-06
4.67242e-08
5.595e-06
4.51147e-08
5.59765e-06
4.35874e-08
5.60025e-06
4.21781e-08
5.60288e-06
4.08824e-08
5.60562e-06
3.96549e-08
5.60855e-06
3.83827e-08
3.69169e-08
5.61166e-06
5.95099e-06
9.16201e-09
5.95476e-06
2.57872e-08
5.95941e-06
3.69377e-08
5.96395e-06
4.28497e-08
5.9684e-06
4.60501e-08
5.97275e-06
4.76983e-08
5.97686e-06
4.80271e-08
5.98067e-06
4.74266e-08
5.98423e-06
4.63343e-08
5.98757e-06
4.50058e-08
5.99073e-06
4.35682e-08
5.99374e-06
4.21068e-08
5.99664e-06
4.06805e-08
5.99951e-06
3.93159e-08
6.00238e-06
3.80035e-08
6.00534e-06
3.66996e-08
6.0084e-06
3.53191e-08
3.37705e-08
6.01155e-06
6.37795e-06
8.01916e-09
6.38133e-06
2.2416e-08
6.38571e-06
3.25538e-08
6.39019e-06
3.8374e-08
6.39464e-06
4.15997e-08
6.39902e-06
4.33097e-08
6.40323e-06
4.38267e-08
6.40718e-06
4.34699e-08
6.41091e-06
4.2605e-08
6.41444e-06
4.14746e-08
6.4178e-06
4.02067e-08
6.42103e-06
3.88807e-08
6.42416e-06
3.75481e-08
6.42725e-06
3.6231e-08
6.43033e-06
3.49207e-08
6.43345e-06
3.35828e-08
6.43661e-06
3.21583e-08
3.05991e-08
6.43978e-06
5.74175e-06
7.10475e-09
5.74433e-06
1.9832e-08
5.74783e-06
2.90552e-08
5.75156e-06
3.46499e-08
5.75531e-06
3.78461e-08
5.75904e-06
3.95799e-08
5.76266e-06
4.02101e-08
5.7661e-06
4.00217e-08
5.76938e-06
3.93268e-08
5.77251e-06
3.83491e-08
5.7755e-06
3.72135e-08
5.77839e-06
3.59951e-08
5.78119e-06
3.47409e-08
5.78395e-06
3.34715e-08
5.78669e-06
3.21815e-08
5.78943e-06
3.08465e-08
5.79216e-06
2.9426e-08
2.79002e-08
5.79486e-06
6.99913e-06
6.12756e-09
7.00187e-06
1.7099e-08
7.00565e-06
2.52695e-08
7.00982e-06
3.04859e-08
7.01409e-06
3.35695e-08
7.01839e-06
3.5285e-08
7.0226e-06
3.59981e-08
7.02666e-06
3.59619e-08
7.03055e-06
3.54342e-08
7.03429e-06
3.46132e-08
7.03788e-06
3.36174e-08
7.04136e-06
3.2517e-08
7.04475e-06
3.13551e-08
7.04807e-06
3.01519e-08
7.05134e-06
2.89076e-08
7.05458e-06
2.76091e-08
7.05777e-06
2.62332e-08
2.47817e-08
7.06089e-06
8.53188e-06
5.09681e-09
8.53473e-06
1.42434e-08
8.53878e-06
2.12236e-08
8.54338e-06
2.5888e-08
8.5482e-06
2.87471e-08
8.5531e-06
3.03812e-08
8.55797e-06
3.11297e-08
8.56272e-06
3.12141e-08
8.56731e-06
3.08399e-08
8.57175e-06
3.01739e-08
8.57605e-06
2.93234e-08
8.58021e-06
2.83529e-08
8.58426e-06
2.73018e-08
8.58822e-06
2.61913e-08
8.5921e-06
2.50276e-08
8.59591e-06
2.38083e-08
8.59961e-06
2.25244e-08
2.11921e-08
8.6032e-06
1.04003e-05
4.02301e-09
1.04033e-05
1.12828e-08
1.04075e-05
1.69359e-08
1.04126e-05
2.08622e-08
1.0418e-05
2.33567e-08
1.04235e-05
2.48226e-08
1.04291e-05
2.55412e-08
1.04346e-05
2.56984e-08
1.044e-05
2.54518e-08
1.04452e-05
2.49323e-08
1.04503e-05
2.42309e-08
1.04553e-05
2.34044e-08
1.04601e-05
2.24887e-08
1.04648e-05
2.15052e-08
1.04694e-05
2.04652e-08
1.04738e-05
1.93747e-08
1.04781e-05
1.82343e-08
1.70679e-08
1.04822e-05
1.26779e-05
2.91173e-09
1.2681e-05
8.20867e-09
1.26855e-05
1.23979e-08
1.2691e-05
1.53968e-08
1.2697e-05
1.73635e-08
1.27032e-05
1.85488e-08
1.27096e-05
1.91556e-08
1.2716e-05
1.93245e-08
1.27223e-05
1.91684e-08
1.27284e-05
1.87812e-08
1.27344e-05
1.8232e-08
1.27403e-05
1.75672e-08
1.27459e-05
1.68169e-08
1.27515e-05
1.60014e-08
1.27568e-05
1.51343e-08
1.27619e-05
1.42258e-08
1.27669e-05
1.32818e-08
1.23285e-08
1.27716e-05
1.54543e-05
1.75183e-09
1.54576e-05
4.96998e-09
1.54624e-05
7.54202e-09
1.54684e-05
9.42158e-09
1.54751e-05
1.06832e-08
1.54822e-05
1.14566e-08
1.54895e-05
1.18575e-08
1.54968e-05
1.19707e-08
1.55041e-05
1.18638e-08
1.55113e-05
1.1593e-08
1.55184e-05
1.12018e-08
1.55252e-05
1.07209e-08
1.55318e-05
1.01719e-08
1.55383e-05
9.5707e-09
1.55445e-05
8.9293e-09
1.55505e-05
8.25811e-09
1.55562e-05
7.56393e-09
6.87081e-09
1.55616e-05
1.88389e-05
5.01782e-10
1.88424e-05
1.43546e-09
1.88478e-05
2.18189e-09
1.88545e-05
2.73067e-09
1.88621e-05
3.10365e-09
1.88702e-05
3.33032e-09
1.88786e-05
3.43325e-09
1.88871e-05
3.43115e-09
1.88957e-05
3.34226e-09
1.89041e-05
3.18289e-09
1.89123e-05
2.96608e-09
1.89203e-05
2.70212e-09
1.89281e-05
2.39955e-09
1.89356e-05
2.06581e-09
1.89428e-05
1.7076e-09
1.89498e-05
1.33168e-09
1.89564e-05
9.42533e-10
5.59202e-10
1.89627e-05
2.29648e-05
-9.45486e-10
2.29689e-05
-2.69659e-09
2.29752e-05
-4.11988e-09
2.29831e-05
-5.17248e-09
2.29921e-05
-5.87108e-09
2.30017e-05
-6.3023e-09
2.30117e-05
-6.55942e-09
2.30219e-05
-6.7011e-09
2.3032e-05
-6.7641e-09
2.30419e-05
-6.77963e-09
2.30517e-05
-6.77288e-09
2.30611e-05
-6.75991e-09
2.30703e-05
-6.74946e-09
2.30791e-05
-6.74607e-09
2.30875e-05
-6.75173e-09
2.30956e-05
-6.76609e-09
2.31034e-05
-6.789e-09
-6.80829e-09
2.31107e-05
1.68119e-05
-2.09083e-09
1.68151e-05
-5.9311e-09
1.682e-05
-9.04762e-09
1.68261e-05
-1.12961e-08
1.6833e-05
-1.27253e-08
1.68403e-05
-1.35693e-08
1.68477e-05
-1.40321e-08
1.68553e-05
-1.42217e-08
1.68627e-05
-1.42132e-08
1.687e-05
-1.40772e-08
1.68771e-05
-1.38684e-08
1.6884e-05
-1.36211e-08
1.68906e-05
-1.33559e-08
1.68969e-05
-1.30859e-08
1.6903e-05
-1.28194e-08
1.69088e-05
-1.25602e-08
1.69143e-05
-1.23108e-08
-1.20632e-08
1.69195e-05
1.46357e-05
-3.19963e-09
1.46388e-05
-9.09023e-09
1.46437e-05
-1.38714e-08
1.46495e-05
-1.71775e-08
1.4656e-05
-1.91548e-08
1.46627e-05
-2.02778e-08
1.46695e-05
-2.0849e-08
1.46763e-05
-2.10023e-08
1.46829e-05
-2.08577e-08
1.46894e-05
-2.05315e-08
1.46956e-05
-2.01027e-08
1.47016e-05
-1.96168e-08
1.47074e-05
-1.91025e-08
1.47128e-05
-1.85799e-08
1.47181e-05
-1.80618e-08
1.47231e-05
-1.75549e-08
1.47278e-05
-1.70631e-08
-1.65811e-08
1.47324e-05
1.27412e-05
-4.24785e-09
1.27444e-05
-1.23005e-08
1.27493e-05
-1.88285e-08
1.27551e-05
-2.29708e-08
1.27613e-05
-2.52674e-08
1.27675e-05
-2.65631e-08
1.27739e-05
-2.7162e-08
1.278e-05
-2.71911e-08
1.2786e-05
-2.68419e-08
1.27918e-05
-2.62857e-08
1.27973e-05
-2.56175e-08
1.28026e-05
-2.48868e-08
1.28076e-05
-2.4128e-08
1.28124e-05
-2.33657e-08
1.28169e-05
-2.26148e-08
1.28213e-05
-2.1883e-08
1.28254e-05
-2.11741e-08
-2.04841e-08
1.28293e-05
1.10918e-05
-5.12498e-09
1.10951e-05
-1.56221e-08
1.11004e-05
-2.41231e-08
1.11062e-05
-2.8751e-08
1.1112e-05
-3.11065e-08
1.1118e-05
-3.24792e-08
1.11238e-05
-3.30173e-08
1.11295e-05
-3.28397e-08
1.11349e-05
-3.22383e-08
1.114e-05
-3.14293e-08
1.11449e-05
-3.051e-08
1.11495e-05
-2.95316e-08
1.11539e-05
-2.85337e-08
1.11581e-05
-2.75438e-08
1.11621e-05
-2.6577e-08
1.11658e-05
-2.564e-08
1.11694e-05
-2.4736e-08
-2.38615e-08
1.11728e-05
9.65583e-06
-5.73887e-09
9.65935e-06
-1.91456e-08
9.66495e-06
-2.97229e-08
9.67063e-06
-3.44322e-08
9.67627e-06
-3.67427e-08
9.6819e-06
-3.81113e-08
9.68733e-06
-3.84472e-08
9.69246e-06
-3.79696e-08
9.69731e-06
-3.70861e-08
9.7019e-06
-3.60191e-08
9.70624e-06
-3.48484e-08
9.71033e-06
-3.36253e-08
9.71419e-06
-3.23949e-08
9.71783e-06
-3.11862e-08
9.72127e-06
-3.00136e-08
9.72451e-06
-2.8883e-08
9.72757e-06
-2.77956e-08
-2.67465e-08
9.73046e-06
8.40543e-06
-5.81865e-09
8.40981e-06
-2.35193e-08
8.41531e-06
-3.52243e-08
8.42049e-06
-3.96199e-08
8.42592e-06
-4.21694e-08
8.43139e-06
-4.35784e-08
8.43653e-06
-4.35925e-08
8.44129e-06
-4.27233e-08
8.44571e-06
-4.1507e-08
8.44983e-06
-4.01435e-08
8.45367e-06
-3.86902e-08
8.45725e-06
-3.7199e-08
8.46057e-06
-3.57177e-08
8.46366e-06
-3.42755e-08
8.46653e-06
-3.28858e-08
8.4692e-06
-3.15547e-08
8.47169e-06
-3.02828e-08
-2.90662e-08
8.47401e-06
7.31506e-06
-3.59122e-09
7.32194e-06
-3.0403e-08
7.32739e-06
-4.06721e-08
7.33215e-06
-4.43848e-08
7.33746e-06
-4.74774e-08
7.34283e-06
-4.89478e-08
7.34779e-06
-4.85486e-08
7.35226e-06
-4.7198e-08
7.3563e-06
-4.55431e-08
7.35992e-06
-4.37623e-08
7.36314e-06
-4.19147e-08
7.36601e-06
-4.00636e-08
7.36855e-06
-3.82584e-08
7.3708e-06
-3.65253e-08
7.37279e-06
-3.48758e-08
7.37455e-06
-3.33146e-08
7.3761e-06
-3.18387e-08
-3.0442e-08
7.37748e-06
6.36222e-06
4.25459e-09
6.37294e-06
-4.11264e-08
6.38007e-06
-4.77964e-08
6.38624e-06
-5.05615e-08
6.39221e-06
-5.34419e-08
6.39749e-06
-5.42295e-08
6.40184e-06
-5.29005e-08
6.40541e-06
-5.07669e-08
6.40831e-06
-4.84424e-08
6.41059e-06
-4.60396e-08
6.4123e-06
-4.36259e-08
6.41351e-06
-4.12791e-08
6.4143e-06
-3.90477e-08
6.41473e-06
-3.69512e-08
6.41485e-06
-3.49964e-08
6.41472e-06
-3.31843e-08
6.41439e-06
-3.15067e-08
-2.99432e-08
6.41389e-06
5.53608e-06
1.36396e-08
5.54775e-06
-5.2799e-08
5.55744e-06
-5.74805e-08
5.566e-06
-5.91273e-08
5.57276e-06
-6.02044e-08
5.57718e-06
-5.86449e-08
5.57932e-06
-5.50406e-08
5.57975e-06
-5.11937e-08
5.57888e-06
-4.75789e-08
5.57701e-06
-4.41675e-08
5.57435e-06
-4.09671e-08
5.57109e-06
-3.80153e-08
5.56737e-06
-3.53258e-08
5.56331e-06
-3.28901e-08
5.559e-06
-3.0694e-08
5.55455e-06
-2.87342e-08
5.55005e-06
-2.70018e-08
-2.54359e-08
5.54554e-06
4.85751e-06
-1.62609e-08
4.86091e-06
-5.61997e-08
4.8615e-06
-5.80718e-08
4.85883e-06
-5.64572e-08
4.85482e-06
-5.61946e-08
4.84812e-06
-5.19458e-08
4.83886e-06
-4.57827e-08
4.82761e-06
-3.99373e-08
4.81499e-06
-3.49634e-08
4.80161e-06
-3.07838e-08
4.7879e-06
-2.72627e-08
4.77418e-06
-2.42969e-08
4.76065e-06
-2.17955e-08
4.74744e-06
-1.96794e-08
4.73464e-06
-1.78857e-08
4.72231e-06
-1.64044e-08
4.71057e-06
-1.52621e-08
-1.49518e-08
4.70008e-06
4.18642e-06
4.13022e-06
4.07214e-06
4.01569e-06
3.95949e-06
3.90755e-06
3.86176e-06
3.82183e-06
3.78686e-06
3.75608e-06
3.72882e-06
3.70452e-06
3.68272e-06
3.66304e-06
3.64516e-06
3.62875e-06
3.61349e-06
3.59854e-06
1.04086e-08
-1.04086e-08
2.12263e-08
-1.08177e-08
2.80264e-08
-6.80009e-09
2.98818e-08
-1.85542e-09
2.69789e-08
2.90289e-09
2.01245e-08
6.85444e-09
1.02269e-08
9.89759e-09
-1.91164e-09
1.21385e-08
-1.57086e-08
1.37969e-08
-3.07876e-08
1.5079e-08
-4.69161e-08
1.61284e-08
-6.39579e-08
1.70418e-08
-8.18349e-08
1.7877e-08
-1.00501e-07
1.8666e-08
-1.19926e-07
1.94256e-08
-1.4009e-07
2.01634e-08
-1.60973e-07
2.08827e-08
-1.82557e-07
2.15842e-08
-2.04824e-07
2.22668e-08
-2.27752e-07
2.29283e-08
-2.51317e-07
2.35654e-08
-2.75491e-07
2.41741e-08
-3.00242e-07
2.4751e-08
-3.25537e-07
2.52944e-08
-3.51341e-07
2.58044e-08
-3.77624e-07
2.62827e-08
-4.04353e-07
2.67289e-08
-4.31492e-07
2.71399e-08
-4.59017e-07
2.75244e-08
-4.86968e-07
2.79507e-08
-5.15633e-07
2.86652e-08
-5.45713e-07
3.00806e-08
-5.77267e-07
3.15541e-08
-6.08394e-07
3.11264e-08
-6.39099e-07
3.07052e-08
-6.71489e-07
3.23899e-08
-7.05052e-07
3.35631e-08
-7.39291e-07
3.42388e-08
-7.75909e-07
3.66177e-08
-8.16326e-07
4.04177e-08
-8.55415e-07
3.90883e-08
-8.97742e-07
4.23271e-08
-9.43618e-07
4.58768e-08
-9.82649e-07
3.90301e-08
-1.02031e-06
3.76616e-08
-1.06118e-06
4.08696e-08
-1.10343e-06
4.22549e-08
-1.14658e-06
4.3142e-08
-1.19024e-06
4.36655e-08
-1.23421e-06
4.39649e-08
-1.27832e-06
4.41166e-08
-1.32249e-06
4.41664e-08
-1.36663e-06
4.41422e-08
-1.41069e-06
4.40613e-08
-1.45463e-06
4.3934e-08
-1.49839e-06
4.37671e-08
-1.54196e-06
4.35645e-08
-1.58529e-06
4.33282e-08
-1.62835e-06
4.30593e-08
-1.6711e-06
4.27579e-08
-1.71353e-06
4.24238e-08
-1.75558e-06
4.20563e-08
-1.79724e-06
4.16545e-08
-1.83846e-06
4.12175e-08
-1.8792e-06
4.07444e-08
-1.91944e-06
4.02341e-08
-1.95912e-06
3.96858e-08
-1.99822e-06
3.90987e-08
-2.03669e-06
3.84721e-08
-2.0745e-06
3.78054e-08
-2.1116e-06
3.70984e-08
-2.14795e-06
3.63507e-08
-2.18351e-06
3.55622e-08
-2.21824e-06
3.4733e-08
-2.2521e-06
3.38633e-08
-2.28506e-06
3.29535e-08
-2.31706e-06
3.20039e-08
-2.34808e-06
3.10151e-08
-2.37807e-06
2.99878e-08
-2.40699e-06
2.89227e-08
-2.43481e-06
2.78206e-08
-2.46149e-06
2.66823e-08
-2.487e-06
2.55085e-08
-2.5113e-06
2.43001e-08
-2.53436e-06
2.30577e-08
-2.55614e-06
2.17817e-08
-2.57661e-06
2.04724e-08
-2.59574e-06
1.91299e-08
-2.61349e-06
1.77537e-08
-2.62984e-06
1.63428e-08
-2.64473e-06
1.48955e-08
-2.65814e-06
1.3409e-08
-2.67002e-06
1.18796e-08
-2.68032e-06
1.03003e-08
-2.68898e-06
8.66246e-09
-2.69594e-06
6.95387e-09
-2.7011e-06
5.15782e-09
-2.70436e-06
3.2638e-09
-2.70563e-06
1.26748e-09
-2.70494e-06
-6.86498e-10
-2.7026e-06
-2.34568e-09
-2.69866e-06
-3.93171e-09
-2.69317e-06
-5.49095e-09
-2.68613e-06
-7.04493e-09
-2.67752e-06
-8.60383e-09
-2.66735e-06
-1.01693e-08
-2.65561e-06
-1.17407e-08
-2.6423e-06
-1.33164e-08
-2.6274e-06
-1.48943e-08
-2.61093e-06
-1.64725e-08
-2.59288e-06
-1.80487e-08
-2.57326e-06
-1.9621e-08
-2.55207e-06
-2.1187e-08
-2.52933e-06
-2.27448e-08
-2.50504e-06
-2.42922e-08
-2.47921e-06
-2.58272e-08
-2.45186e-06
-2.73475e-08
-2.42301e-06
-2.88513e-08
-2.39267e-06
-3.03363e-08
-2.36087e-06
-3.18006e-08
-2.32763e-06
-3.3242e-08
-2.29297e-06
-3.46587e-08
-2.25692e-06
-3.60488e-08
-2.21951e-06
-3.74104e-08
-2.18077e-06
-3.87417e-08
-2.14073e-06
-4.0041e-08
-2.09942e-06
-4.13067e-08
-2.05689e-06
-4.2537e-08
-2.01316e-06
-4.37303e-08
-1.96827e-06
-4.48851e-08
-1.92227e-06
-4.59998e-08
-1.8752e-06
-4.70733e-08
-1.8271e-06
-4.81042e-08
-1.778e-06
-4.90916e-08
-1.72797e-06
-5.00344e-08
-1.67704e-06
-5.09316e-08
-1.62526e-06
-5.17823e-08
-1.57267e-06
-5.25858e-08
-1.51933e-06
-5.33416e-08
-1.46528e-06
-5.40494e-08
-1.41057e-06
-5.47089e-08
-1.35525e-06
-5.53199e-08
-1.29937e-06
-5.58824e-08
-1.24297e-06
-5.63965e-08
-1.18611e-06
-5.68626e-08
-1.12883e-06
-5.72814e-08
-1.07117e-06
-5.76533e-08
-1.01319e-06
-5.79792e-08
-9.54934e-07
-5.82601e-08
-8.96437e-07
-5.84973e-08
-8.37745e-07
-5.8692e-08
-7.78899e-07
-5.88457e-08
-7.19939e-07
-5.89601e-08
-6.60902e-07
-5.90371e-08
-6.01824e-07
-5.90784e-08
-5.42738e-07
-5.9086e-08
-4.83676e-07
-5.90619e-08
-4.24668e-07
-5.90079e-08
-3.65743e-07
-5.89252e-08
-3.06928e-07
-5.88147e-08
-2.48251e-07
-5.86769e-08
-1.89744e-07
-5.85069e-08
-1.31437e-07
-5.83071e-08
-7.33616e-08
-5.80756e-08
-1.55606e-08
-5.7801e-08
4.19304e-08
-5.7491e-08
9.90766e-08
-5.71462e-08
1.55881e-07
-5.68045e-08
2.12368e-07
-5.64864e-08
2.68551e-07
-5.61831e-08
3.24425e-07
-5.58748e-08
3.79961e-07
-5.55357e-08
4.35088e-07
-5.51265e-08
4.89668e-07
-5.458e-08
5.43433e-07
-5.37654e-08
5.95849e-07
-5.24158e-08
6.45697e-07
-4.98484e-08
6.90117e-07
-4.44196e-08
7.21503e-07
-3.1386e-08
8.77549e-09
7.12727e-07
6.28786e-09
-1.66965e-08
7.27601e-09
-1.18059e-08
4.34931e-09
-3.87339e-09
-1.23978e-09
3.73366e-09
-8.99415e-09
1.06573e-08
-1.88301e-08
1.66904e-08
-3.06835e-08
2.1751e-08
-4.44317e-08
2.58867e-08
-5.98777e-08
2.9243e-08
-7.68018e-08
3.20031e-08
-9.50088e-08
3.43355e-08
-1.14342e-07
3.63746e-08
-1.34683e-07
3.82186e-08
-1.55952e-07
3.99345e-08
-1.78092e-07
4.15657e-08
-2.01068e-07
4.31396e-08
-2.24858e-07
4.46729e-08
-2.4945e-07
4.61759e-08
-2.74838e-07
4.76548e-08
-3.01023e-07
4.91132e-08
-3.28011e-07
5.05537e-08
-3.55817e-07
5.19795e-08
-3.84461e-07
5.33954e-08
-4.13976e-07
5.48095e-08
-4.44405e-07
5.62334e-08
-4.75804e-07
5.76809e-08
-5.08241e-07
5.91666e-08
-5.41806e-07
6.07042e-08
-5.76594e-07
6.23126e-08
-6.1268e-07
6.40363e-08
-6.50001e-07
6.59865e-08
-6.88176e-07
6.82557e-08
-7.27139e-07
7.05168e-08
-7.68183e-07
7.21708e-08
-8.11117e-07
7.36396e-08
-8.54301e-07
7.55733e-08
-8.98209e-07
7.74712e-08
-9.43165e-07
7.91948e-08
-9.87756e-07
8.12093e-08
-1.0305e-06
8.3165e-08
-1.07548e-06
8.40655e-08
-1.1183e-06
8.51488e-08
-1.15854e-06
8.61118e-08
-1.20418e-06
8.46677e-08
-1.25033e-06
8.38151e-08
-1.29361e-06
8.41514e-08
-1.33578e-06
8.44249e-08
-1.37721e-06
8.45679e-08
-1.41812e-06
8.45774e-08
-1.45862e-06
8.44648e-08
-1.49875e-06
8.42493e-08
-1.53853e-06
8.39472e-08
-1.57796e-06
8.35715e-08
-1.61703e-06
8.31313e-08
-1.65573e-06
8.26327e-08
-1.69404e-06
8.20794e-08
-1.73195e-06
8.1473e-08
-1.76944e-06
8.0814e-08
-1.80648e-06
8.01019e-08
-1.84306e-06
7.93354e-08
-1.87915e-06
7.8513e-08
-1.91472e-06
7.76327e-08
-1.94976e-06
7.66926e-08
-1.98423e-06
7.56908e-08
-2.01811e-06
7.46253e-08
-2.05137e-06
7.34944e-08
-2.08399e-06
7.22966e-08
-2.11592e-06
7.10304e-08
-2.14714e-06
6.96947e-08
-2.17762e-06
6.82888e-08
-2.20734e-06
6.68119e-08
-2.23625e-06
6.52638e-08
-2.26433e-06
6.36444e-08
-2.29155e-06
6.19537e-08
-2.31788e-06
6.01922e-08
-2.34329e-06
5.83605e-08
-2.36774e-06
5.64594e-08
-2.39122e-06
5.44898e-08
-2.41368e-06
5.24528e-08
-2.43511e-06
5.03497e-08
-2.45547e-06
4.81817e-08
-2.47474e-06
4.59502e-08
-2.49289e-06
4.36566e-08
-2.50989e-06
4.13021e-08
-2.52572e-06
3.88879e-08
-2.54035e-06
3.6415e-08
-2.55377e-06
3.38843e-08
-2.56593e-06
3.12964e-08
-2.57683e-06
2.86515e-08
-2.58644e-06
2.59494e-08
-2.59473e-06
2.31899e-08
-2.60169e-06
2.03721e-08
-2.60731e-06
1.74956e-08
-2.61157e-06
1.45597e-08
-2.61447e-06
1.15652e-08
-2.61603e-06
8.51551e-09
-2.6163e-06
5.42021e-09
-2.61534e-06
2.30513e-09
-2.61328e-06
-7.86841e-10
-2.61011e-06
-3.86336e-09
-2.60558e-06
-6.8738e-09
-2.5996e-06
-9.90549e-09
-2.59214e-06
-1.29585e-08
-2.58315e-06
-1.60305e-08
-2.57263e-06
-1.91211e-08
-2.56058e-06
-2.22275e-08
-2.54697e-06
-2.53466e-08
-2.53181e-06
-2.84743e-08
-2.5151e-06
-3.16066e-08
-2.49683e-06
-3.47391e-08
-2.47701e-06
-3.78677e-08
-2.45565e-06
-4.09881e-08
-2.43274e-06
-4.40961e-08
-2.4083e-06
-4.71875e-08
-2.38233e-06
-5.0258e-08
-2.35485e-06
-5.33037e-08
-2.32588e-06
-5.63203e-08
-2.29543e-06
-5.93037e-08
-2.26351e-06
-6.22498e-08
-2.23016e-06
-6.51545e-08
-2.19539e-06
-6.80137e-08
-2.15922e-06
-7.08236e-08
-2.12169e-06
-7.35803e-08
-2.08282e-06
-7.62802e-08
-2.04264e-06
-7.89198e-08
-2.00119e-06
-8.14957e-08
-1.95849e-06
-8.40044e-08
-1.91459e-06
-8.64427e-08
-1.86951e-06
-8.88074e-08
-1.8233e-06
-9.10952e-08
-1.776e-06
-9.33033e-08
-1.72764e-06
-9.54292e-08
-1.67827e-06
-9.74703e-08
-1.62794e-06
-9.94245e-08
-1.57668e-06
-1.0129e-07
-1.52455e-06
-1.03065e-07
-1.47159e-06
-1.04747e-07
-1.41784e-06
-1.06335e-07
-1.36335e-06
-1.07828e-07
-1.30818e-06
-1.09225e-07
-1.25236e-06
-1.10526e-07
-1.19595e-06
-1.1173e-07
-1.13899e-06
-1.12838e-07
-1.08154e-06
-1.13849e-07
-1.02364e-06
-1.14765e-07
-9.65333e-07
-1.15587e-07
-9.06672e-07
-1.16315e-07
-8.47699e-07
-1.16952e-07
-7.8846e-07
-1.17499e-07
-7.28999e-07
-1.17959e-07
-6.69356e-07
-1.18334e-07
-6.09574e-07
-1.18628e-07
-5.4969e-07
-1.18844e-07
-4.89742e-07
-1.18985e-07
-4.29765e-07
-1.19056e-07
-3.69791e-07
-1.19059e-07
-3.09853e-07
-1.19e-07
-2.4998e-07
-1.18881e-07
-1.90199e-07
-1.18707e-07
-1.30536e-07
-1.18477e-07
-7.10167e-08
-1.18196e-07
-1.16648e-08
-1.17859e-07
4.74929e-08
-1.17465e-07
1.0643e-07
-1.17013e-07
1.65132e-07
-1.16503e-07
2.23587e-07
-1.15946e-07
2.81799e-07
-1.15358e-07
3.39765e-07
-1.1477e-07
3.97477e-07
-1.14199e-07
4.54927e-07
-1.13633e-07
5.12095e-07
-1.13043e-07
5.6894e-07
-1.1238e-07
6.25382e-07
-1.11569e-07
6.81277e-07
-1.10475e-07
7.36356e-07
-1.08844e-07
7.90122e-07
-1.06182e-07
8.41604e-07
-1.01331e-07
8.89188e-07
-9.20031e-08
9.29572e-07
-7.17698e-08
-2.45278e-08
9.62875e-07
-1.59505e-09
-1.51014e-08
-8.11403e-09
-5.28688e-09
-1.67869e-08
4.79947e-09
-2.68391e-08
1.37859e-08
-3.80525e-08
2.18707e-08
-5.04327e-08
2.90706e-08
-6.406e-08
3.53783e-08
-7.9e-08
4.08266e-08
-9.52613e-08
4.55043e-08
-1.12797e-07
4.95384e-08
-1.31527e-07
5.30662e-08
-1.51368e-07
5.62149e-08
-1.72239e-07
5.90899e-08
-1.94077e-07
6.1773e-08
-2.16836e-07
6.43242e-08
-2.40482e-07
6.67862e-08
-2.64998e-07
6.91887e-08
-2.90375e-07
7.15526e-08
-3.16613e-07
7.38927e-08
-3.4372e-07
7.62202e-08
-3.71711e-07
7.85446e-08
-4.00606e-07
8.08751e-08
-4.30433e-07
8.3222e-08
-4.6122e-07
8.55969e-08
-4.92999e-07
8.80125e-08
-5.25799e-07
9.04807e-08
-5.59643e-07
9.30107e-08
-5.94546e-07
9.56068e-08
-6.30503e-07
9.82697e-08
-6.67468e-07
1.01002e-07
-7.05289e-07
1.03807e-07
-7.43677e-07
1.06644e-07
-7.82507e-07
1.09347e-07
-8.22071e-07
1.11734e-07
-8.62277e-07
1.13846e-07
-9.02533e-07
1.15829e-07
-9.42702e-07
1.1764e-07
-9.82738e-07
1.19231e-07
-1.02216e-06
1.20636e-07
-1.06073e-06
1.21734e-07
-1.0991e-06
1.22434e-07
-1.13676e-06
1.22809e-07
-1.17347e-06
1.2282e-07
-1.21113e-06
1.22328e-07
-1.24912e-06
1.21806e-07
-1.28644e-06
1.21466e-07
-1.32317e-06
1.21161e-07
-1.35944e-06
1.20838e-07
-1.39533e-06
1.20464e-07
-1.43089e-06
1.20026e-07
-1.46616e-06
1.19519e-07
-1.50116e-06
1.18943e-07
-1.53588e-06
1.183e-07
-1.57034e-06
1.17591e-07
-1.60453e-06
1.16815e-07
-1.63842e-06
1.15973e-07
-1.67201e-06
1.15064e-07
-1.70528e-06
1.14084e-07
-1.73821e-06
1.13033e-07
-1.77078e-06
1.11905e-07
-1.80297e-06
1.10699e-07
-1.83475e-06
1.09412e-07
-1.86609e-06
1.08039e-07
-1.89698e-06
1.06578e-07
-1.92738e-06
1.05026e-07
-1.95727e-06
1.0338e-07
-1.98661e-06
1.01638e-07
-2.01538e-06
9.97982e-08
-2.04354e-06
9.78586e-08
-2.07107e-06
9.58179e-08
-2.09793e-06
9.36753e-08
-2.1241e-06
9.14301e-08
-2.14954e-06
8.9082e-08
-2.17421e-06
8.66314e-08
-2.1981e-06
8.40785e-08
-2.22116e-06
8.14242e-08
-2.24337e-06
7.86694e-08
-2.2647e-06
7.58156e-08
-2.28511e-06
7.28641e-08
-2.30458e-06
6.98167e-08
-2.32307e-06
6.66753e-08
-2.34056e-06
6.34418e-08
-2.35702e-06
6.01182e-08
-2.37243e-06
5.67065e-08
-2.38675e-06
5.32088e-08
-2.39996e-06
4.9627e-08
-2.41204e-06
4.59628e-08
-2.42296e-06
4.2218e-08
-2.4327e-06
3.83941e-08
-2.44125e-06
3.44928e-08
-2.44857e-06
3.05153e-08
-2.45467e-06
2.64638e-08
-2.45951e-06
2.23407e-08
-2.4631e-06
1.81498e-08
-2.46543e-06
1.38967e-08
-2.46651e-06
9.59004e-09
-2.46633e-06
5.24261e-09
-2.46489e-06
8.70724e-10
-2.46218e-06
-3.50625e-09
-2.45814e-06
-7.90067e-09
-2.45269e-06
-1.23195e-08
-2.44582e-06
-1.67821e-08
-2.43749e-06
-2.12866e-08
-2.42769e-06
-2.58283e-08
-2.41641e-06
-3.04014e-08
-2.40364e-06
-3.50002e-08
-2.38936e-06
-3.96186e-08
-2.37359e-06
-4.42502e-08
-2.35631e-06
-4.88888e-08
-2.33752e-06
-5.35279e-08
-2.31722e-06
-5.81614e-08
-2.29543e-06
-6.27828e-08
-2.27214e-06
-6.73858e-08
-2.24736e-06
-7.19643e-08
-2.22111e-06
-7.65121e-08
-2.19339e-06
-8.1023e-08
-2.16422e-06
-8.54909e-08
-2.13361e-06
-8.99097e-08
-2.10159e-06
-9.42732e-08
-2.06817e-06
-9.85754e-08
-2.03337e-06
-1.0281e-07
-1.99722e-06
-1.06972e-07
-1.95975e-06
-1.11055e-07
-1.92098e-06
-1.15053e-07
-1.88093e-06
-1.18963e-07
-1.83965e-06
-1.22777e-07
-1.79716e-06
-1.26492e-07
-1.7535e-06
-1.30102e-07
-1.70871e-06
-1.33604e-07
-1.66281e-06
-1.36991e-07
-1.61586e-06
-1.4026e-07
-1.56788e-06
-1.43406e-07
-1.51892e-06
-1.46427e-07
-1.46903e-06
-1.49319e-07
-1.41824e-06
-1.52079e-07
-1.3666e-06
-1.54704e-07
-1.31416e-06
-1.57191e-07
-1.26095e-06
-1.59539e-07
-1.20703e-06
-1.61746e-07
-1.15245e-06
-1.63811e-07
-1.09724e-06
-1.65732e-07
-1.04146e-06
-1.67511e-07
-9.85151e-07
-1.69146e-07
-9.28364e-07
-1.70637e-07
-8.71142e-07
-1.71987e-07
-8.13533e-07
-1.73196e-07
-7.55581e-07
-1.74267e-07
-6.9733e-07
-1.75202e-07
-6.38825e-07
-1.76004e-07
-5.80106e-07
-1.76677e-07
-5.21216e-07
-1.77224e-07
-4.62194e-07
-1.77651e-07
-4.03076e-07
-1.77961e-07
-3.439e-07
-1.78161e-07
-2.847e-07
-1.78256e-07
-2.25507e-07
-1.78252e-07
-1.66352e-07
-1.78155e-07
-1.07263e-07
-1.7797e-07
-4.82654e-08
-1.77704e-07
1.06165e-08
-1.77359e-07
6.93585e-08
-1.76938e-07
1.2794e-07
-1.7644e-07
1.86342e-07
-1.75867e-07
2.4455e-07
-1.75221e-07
3.02561e-07
-1.74514e-07
3.60382e-07
-1.73768e-07
4.18022e-07
-1.72997e-07
4.75465e-07
-1.72214e-07
5.32693e-07
-1.71427e-07
5.89686e-07
-1.70626e-07
6.46416e-07
-1.69773e-07
7.02839e-07
-1.68803e-07
7.58876e-07
-1.67606e-07
8.14388e-07
-1.65987e-07
8.69138e-07
-1.63595e-07
9.22723e-07
-1.59767e-07
9.74511e-07
-1.53118e-07
1.0236e-06
-1.4109e-07
1.06948e-06
-1.17651e-07
-7.13722e-08
1.11632e-06
-8.07543e-09
-7.02597e-09
-1.96575e-08
6.29518e-09
-3.23006e-08
1.74426e-08
-4.55815e-08
2.70668e-08
-5.94447e-08
3.57338e-08
-7.39608e-08
4.35867e-08
-8.92464e-08
5.06639e-08
-1.05416e-07
5.69959e-08
-1.2255e-07
6.26385e-08
-1.40687e-07
6.76759e-08
-1.5983e-07
7.2209e-08
-1.79957e-07
7.63412e-08
-2.01034e-07
8.01674e-08
-2.23029e-07
8.37679e-08
-2.45912e-07
8.7207e-08
-2.6966e-07
9.05343e-08
-2.94258e-07
9.37869e-08
-3.19697e-07
9.6992e-08
-3.45975e-07
1.0017e-07
-3.7309e-07
1.03336e-07
-4.01046e-07
1.06501e-07
-4.29846e-07
1.09675e-07
-4.59492e-07
1.12867e-07
-4.89977e-07
1.16082e-07
-5.21288e-07
1.19324e-07
-5.53399e-07
1.22592e-07
-5.86266e-07
1.25878e-07
-6.19827e-07
1.29167e-07
-6.53993e-07
1.32436e-07
-6.88649e-07
1.35657e-07
-7.23634e-07
1.38792e-07
-7.58769e-07
1.41779e-07
-7.93946e-07
1.44524e-07
-8.29159e-07
1.46947e-07
-8.64361e-07
1.49048e-07
-8.99396e-07
1.50864e-07
-9.34155e-07
1.52399e-07
-9.68576e-07
1.53651e-07
-1.00257e-06
1.54626e-07
-1.03614e-06
1.5531e-07
-1.06939e-06
1.55686e-07
-1.10236e-06
1.55777e-07
-1.13513e-06
1.55585e-07
-1.16795e-06
1.5515e-07
-1.20078e-06
1.54638e-07
-1.23345e-06
1.54132e-07
-1.26591e-06
1.53619e-07
-1.29815e-06
1.53083e-07
-1.33019e-06
1.52506e-07
-1.36204e-06
1.51879e-07
-1.39372e-06
1.51191e-07
-1.42521e-06
1.50439e-07
-1.45653e-06
1.49618e-07
-1.48766e-06
1.48724e-07
-1.5186e-06
1.47754e-07
-1.54933e-06
1.46704e-07
-1.57984e-06
1.4557e-07
-1.6101e-06
1.44347e-07
-1.6401e-06
1.43031e-07
-1.66981e-06
1.41617e-07
-1.69921e-06
1.40101e-07
-1.72828e-06
1.38478e-07
-1.75698e-06
1.36743e-07
-1.7853e-06
1.34892e-07
-1.81319e-06
1.32922e-07
-1.84064e-06
1.30828e-07
-1.86761e-06
1.28609e-07
-1.89407e-06
1.2626e-07
-1.92e-06
1.23781e-07
-1.94535e-06
1.21169e-07
-1.97009e-06
1.18423e-07
-1.99421e-06
1.15543e-07
-2.01765e-06
1.12528e-07
-2.0404e-06
1.09377e-07
-2.06241e-06
1.06093e-07
-2.08366e-06
1.02675e-07
-2.10412e-06
9.91255e-08
-2.12375e-06
9.54455e-08
-2.14252e-06
9.16373e-08
-2.16041e-06
8.7703e-08
-2.17738e-06
8.36452e-08
-2.1934e-06
7.94665e-08
-2.20846e-06
7.51696e-08
-2.22251e-06
7.07575e-08
-2.23553e-06
6.6233e-08
-2.2475e-06
6.15991e-08
-2.2584e-06
5.68587e-08
-2.2682e-06
5.20146e-08
-2.27687e-06
4.70696e-08
-2.2844e-06
4.20268e-08
-2.29078e-06
3.68892e-08
-2.29598e-06
3.16604e-08
-2.29998e-06
2.63445e-08
-2.30278e-06
2.0947e-08
-2.30435e-06
1.54744e-08
-2.3047e-06
9.9348e-09
-2.30379e-06
4.33778e-09
-2.30162e-06
-1.3075e-09
-2.29813e-06
-6.99491e-09
-2.2933e-06
-1.273e-08
-2.2871e-06
-1.85216e-08
-2.2795e-06
-2.43751e-08
-2.2705e-06
-3.02861e-08
-2.26008e-06
-3.62479e-08
-2.24823e-06
-4.22526e-08
-2.23494e-06
-4.82918e-08
-2.2202e-06
-5.43572e-08
-2.20401e-06
-6.04405e-08
-2.18637e-06
-6.65331e-08
-2.16727e-06
-7.26267e-08
-2.14672e-06
-7.87128e-08
-2.12472e-06
-8.47833e-08
-2.10127e-06
-9.08299e-08
-2.07639e-06
-9.68442e-08
-2.05009e-06
-1.02818e-07
-2.02237e-06
-1.08744e-07
-1.99324e-06
-1.14613e-07
-1.96274e-06