/*--------------------------------*- C++ -*----------------------------------*\
  =========                 |
  \\      /  F ield         | OpenFOAM: The Open Source CFD Toolbox
   \\    /   O peration     | Website:  https://openfoam.org
    \\  /    A nd           | Version:  12
     \\/     M anipulation  |
\*---------------------------------------------------------------------------*/
FoamFile
{
    format      ascii;
    class       volVectorField;
    location    "0.2";
    object      U;
}
// * * * * * * * * * * * * * * * * * * * * * * * * * * * * * * * * * * * * * //

dimensions      [0 1 -1 0 0 0 0];

internalField   nonuniform List<vector> 
12225
(
(9.86107 -0.874318 0)
(9.67248 -0.700192 0)
(9.45896 -0.387591 0)
(9.22465 -0.188477 0)
(9.00346 -0.0843924 0)
(8.81036 -0.0328744 0)
(8.64506 -0.0075488 0)
(8.50405 0.00502717 0)
(8.38385 0.0113396 0)
(8.28095 0.0144764 0)
(8.19196 0.0159727 0)
(8.114 0.0166436 0)
(8.04468 0.0169322 0)
(7.98219 0.0171305 0)
(7.92359 0.0174312 0)
(7.86989 0.0185482 0)
(7.80039 0.0215212 0)
(7.77402 0.0300567 0)
(10.0547 0.263069 0)
(10.1201 0.360741 0)
(10.118 0.273822 0)
(10.0826 0.187089 0)
(10.0405 0.131164 0)
(9.9939 0.096929 0)
(9.94009 0.0755599 0)
(9.88036 0.0617533 0)
(9.81778 0.0523487 0)
(9.75485 0.0455329 0)
(9.693 0.0403631 0)
(9.63305 0.0363786 0)
(9.57538 0.0333237 0)
(9.52037 0.03118 0)
(9.46725 0.0297825 0)
(9.41846 0.0309003 0)
(9.36703 0.0320038 0)
(9.3418 0.0524454 0)
(9.99919 0.0460869 0)
(10.0244 0.0342099 0)
(10.0538 0.0149506 0)
(10.0708 0.0218118 0)
(10.0778 0.036674 0)
(10.0783 0.0460108 0)
(10.0722 0.0499518 0)
(10.0602 0.0511435 0)
(10.0439 0.0510511 0)
(10.0245 0.0503358 0)
(10.003 0.0493692 0)
(9.97991 0.0483975 0)
(9.95575 0.047571 0)
(9.93093 0.0471242 0)
(9.90543 0.047131 0)
(9.88026 0.048929 0)
(9.85467 0.0516918 0)
(9.83473 0.0631059 0)
(9.9968 0.00642801 0)
(10.0085 0.0250187 0)
(10.0342 0.0389384 0)
(10.0528 0.0503029 0)
(10.0644 0.0571083 0)
(10.0731 0.0591647 0)
(10.079 0.058853 0)
(10.0816 0.0579335 0)
(10.0815 0.0569277 0)
(10.0794 0.0559113 0)
(10.0757 0.0549371 0)
(10.0706 0.0540921 0)
(10.0643 0.0534669 0)
(10.0571 0.0532558 0)
(10.0491 0.0535934 0)
(10.0409 0.055357 0)
(10.0329 0.0582122 0)
(10.0274 0.0646633 0)
(9.99922 0.00673753 0)
(10.0081 0.033574 0)
(10.0271 0.0460435 0)
(10.0418 0.0508452 0)
(10.0524 0.0539138 0)
(10.0622 0.0555025 0)
(10.0708 0.0558493 0)
(10.0774 0.0556656 0)
(10.0822 0.0552976 0)
(10.0857 0.0548366 0)
(10.088 0.0543572 0)
(10.0894 0.0539641 0)
(10.0898 0.0537672 0)
(10.0897 0.0539412 0)
(10.089 0.0546373 0)
(10.0882 0.0563465 0)
(10.0881 0.0588821 0)
(10.0897 0.0627326 0)
(10.0002 0.00907413 0)
(10.0078 0.0321249 0)
(10.0225 0.0419114 0)
(10.035 0.0456655 0)
(10.0448 0.0491252 0)
(10.0542 0.0516617 0)
(10.063 0.052801 0)
(10.0705 0.0531535 0)
(10.0766 0.0531947 0)
(10.0819 0.0530888 0)
(10.0863 0.0529277 0)
(10.09 0.0528193 0)
(10.0931 0.0528746 0)
(10.0957 0.053237 0)
(10.098 0.05403 0)
(10.1005 0.0554951 0)
(10.1035 0.057474 0)
(10.1078 0.0598151 0)
(10.0003 0.00880059 0)
(10.0068 0.0275183 0)
(10.0189 0.037083 0)
(10.0303 0.0417408 0)
(10.0395 0.0456614 0)
(10.0482 0.0484863 0)
(10.0566 0.0498969 0)
(10.064 0.0504911 0)
(10.0705 0.0507548 0)
(10.0763 0.0508604 0)
(10.0815 0.0508947 0)
(10.0861 0.0509577 0)
(10.0903 0.051151 0)
(10.0941 0.0515842 0)
(10.0978 0.0523401 0)
(10.1017 0.0535111 0)
(10.106 0.0549363 0)
(10.1113 0.0562971 0)
(10.0004 0.00783766 0)
(10.0057 0.0236954 0)
(10.016 0.0333695 0)
(10.0264 0.0385875 0)
(10.0351 0.0424824 0)
(10.0433 0.0452762 0)
(10.0512 0.0468307 0)
(10.0584 0.0476114 0)
(10.0649 0.0480433 0)
(10.0708 0.0482998 0)
(10.0762 0.0484685 0)
(10.0812 0.048641 0)
(10.0858 0.0489057 0)
(10.0903 0.0493417 0)
(10.0946 0.0499935 0)
(10.0991 0.0508693 0)
(10.104 0.0518087 0)
(10.1096 0.0525037 0)
(10.0004 0.00695176 0)
(10.0049 0.0207087 0)
(10.0136 0.030036 0)
(10.023 0.0354017 0)
(10.0312 0.0391862 0)
(10.0389 0.0419466 0)
(10.0464 0.0436372 0)
(10.0534 0.0445835 0)
(10.0597 0.04515 0)
(10.0656 0.0455183 0)
(10.071 0.0457802 0)
(10.0762 0.0460186 0)
(10.081 0.0463072 0)
(10.0858 0.0467001 0)
(10.0904 0.0472128 0)
(10.0952 0.0478118 0)
(10.1003 0.0483506 0)
(10.1058 0.0485896 0)
(10.0004 0.00616513 0)
(10.0042 0.0181236 0)
(10.0116 0.0267993 0)
(10.0199 0.0321399 0)
(10.0277 0.0358486 0)
(10.035 0.0385784 0)
(10.0421 0.0403624 0)
(10.0488 0.0414341 0)
(10.055 0.0421034 0)
(10.0608 0.0425532 0)
(10.0662 0.0428777 0)
(10.0714 0.04315 0)
(10.0763 0.0434297 0)
(10.0812 0.0437522 0)
(10.086 0.044115 0)
(10.0908 0.0444695 0)
(10.0959 0.0446932 0)
(10.1011 0.0446204 0)
(10.0003 0.00542849 0)
(10.0036 0.0158015 0)
(10.0099 0.0237139 0)
(10.0173 0.0289116 0)
(10.0245 0.032529 0)
(10.0314 0.0351925 0)
(10.0381 0.0370106 0)
(10.0445 0.0381638 0)
(10.0506 0.038907 0)
(10.0563 0.0394135 0)
(10.0617 0.039776 0)
(10.0668 0.0400585 0)
(10.0718 0.0403084 0)
(10.0766 0.0405485 0)
(10.0815 0.0407677 0)
(10.0863 0.0409177 0)
(10.0912 0.0409035 0)
(10.0962 0.0406214 0)
(10.0003 0.00477619 0)
(10.0031 0.0138568 0)
(10.0086 0.0210405 0)
(10.0152 0.0260054 0)
(10.0219 0.0294957 0)
(10.0284 0.0320648 0)
(10.0348 0.0338693 0)
(10.041 0.0350596 0)
(10.0469 0.0358443 0)
(10.0525 0.0363808 0)
(10.0578 0.0367581 0)
(10.0629 0.0370328 0)
(10.0678 0.0372433 0)
(10.0727 0.0374052 0)
(10.0775 0.0375054 0)
(10.0822 0.0375034 0)
(10.087 0.0373285 0)
(10.0918 0.0369212 0)
(10.0003 0.00416988 0)
(10.0028 0.0120902 0)
(10.0075 0.018527 0)
(10.0134 0.0231687 0)
(10.0197 0.0264894 0)
(10.0258 0.0289401 0)
(10.0319 0.0306969 0)
(10.0378 0.0318925 0)
(10.0435 0.0326955 0)
(10.049 0.0332441 0)
(10.0542 0.0336213 0)
(10.0592 0.0338777 0)
(10.0641 0.0340448 0)
(10.0689 0.0341339 0)
(10.0736 0.0341339 0)
(10.0783 0.0340135 0)
(10.0829 0.0337227 0)
(10.0874 0.0332345 0)
(10.0003 0.0035382 0)
(10.0024 0.0102525 0)
(10.0064 0.0158355 0)
(10.0117 0.0200229 0)
(10.0174 0.0230861 0)
(10.0232 0.02536 0)
(10.0289 0.0270176 0)
(10.0345 0.0281762 0)
(10.04 0.0289675 0)
(10.0453 0.0295054 0)
(10.0505 0.029864 0)
(10.0554 0.0300874 0)
(10.0602 0.0302016 0)
(10.0649 0.0302159 0)
(10.0695 0.0301228 0)
(10.074 0.0299027 0)
(10.0784 0.0295241 0)
(10.0827 0.0289846 0)
(10.0002 0.00287953 0)
(10.002 0.00834262 0)
(10.0055 0.0129761 0)
(10.0101 0.0165744 0)
(10.0153 0.0192707 0)
(10.0206 0.0212904 0)
(10.026 0.0227824 0)
(10.0313 0.023847 0)
(10.0366 0.0245828 0)
(10.0417 0.0250777 0)
(10.0467 0.0253931 0)
(10.0515 0.0255667 0)
(10.0562 0.0256197 0)
(10.0608 0.0255611 0)
(10.0652 0.0253885 0)
(10.0696 0.025093 0)
(10.0738 0.0246586 0)
(10.0778 0.024099 0)
(10.0002 0.00219415 0)
(10.0017 0.0063614 0)
(10.0047 0.00995389 0)
(10.0088 0.0128245 0)
(10.0134 0.0150259 0)
(10.0183 0.0166933 0)
(10.0233 0.0179372 0)
(10.0284 0.0188355 0)
(10.0334 0.019458 0)
(10.0383 0.0198671 0)
(10.0431 0.0201092 0)
(10.0478 0.0202142 0)
(10.0523 0.0201994 0)
(10.0567 0.0200737 0)
(10.061 0.0198393 0)
(10.0651 0.0194955 0)
(10.0691 0.0190369 0)
(10.073 0.0184859 0)
(10.0002 0.00147895 0)
(10.0015 0.00429218 0)
(10.0041 0.00674645 0)
(10.0077 0.00874935 0)
(10.0119 0.0103154 0)
(10.0164 0.0115141 0)
(10.0211 0.0124123 0)
(10.0258 0.0130605 0)
(10.0306 0.013502 0)
(10.0353 0.0137753 0)
(10.0399 0.0139104 0)
(10.0444 0.0139277 0)
(10.0487 0.01384 0)
(10.053 0.0136552 0)
(10.0571 0.0133778 0)
(10.061 0.0130116 0)
(10.0648 0.0125566 0)
(10.0684 0.0120379 0)
(10.0001 0.000716257 0)
(10.0013 0.00207904 0)
(10.0037 0.00327436 0)
(10.0069 0.00426094 0)
(10.0108 0.00504113 0)
(10.015 0.00563955 0)
(10.0194 0.00608117 0)
(10.0239 0.00638605 0)
(10.0285 0.00657194 0)
(10.033 0.00665466 0)
(10.0374 0.00664676 0)
(10.0418 0.00655711 0)
(10.0459 0.00639185 0)
(10.05 0.00615551 0)
(10.0539 0.00585179 0)
(10.0577 0.00548482 0)
(10.0613 0.00505643 0)
(10.0647 0.00458926 0)
(10.0001 -0.000140592 0)
(10.0013 -0.00041007 0)
(10.0035 -0.000651366 0)
(10.0067 -0.00085188 0)
(10.0104 -0.00100903 0)
(10.0145 -0.00113661 0)
(10.0188 -0.00125381 0)
(10.0232 -0.00137449 0)
(10.0276 -0.00150732 0)
(10.032 -0.00165954 0)
(10.0363 -0.00183768 0)
(10.0405 -0.00204677 0)
(10.0446 -0.00229011 0)
(10.0485 -0.00256945 0)
(10.0522 -0.00288534 0)
(10.0559 -0.00323669 0)
(10.0593 -0.00362344 0)
(10.0626 -0.00402868 0)
(10.0001 -0.00096443 0)
(10.0014 -0.00280996 0)
(10.0038 -0.00444251 0)
(10.0071 -0.00578002 0)
(10.0111 -0.00681616 0)
(10.0153 -0.00761241 0)
(10.0197 -0.00823572 0)
(10.0242 -0.00873132 0)
(10.0287 -0.00913377 0)
(10.0331 -0.0094751 0)
(10.0374 -0.00978185 0)
(10.0415 -0.0100727 0)
(10.0455 -0.01036 0)
(10.0494 -0.0106526 0)
(10.0531 -0.0109563 0)
(10.0566 -0.011274 0)
(10.06 -0.0116086 0)
(10.0632 -0.0119489 0)
(10.0002 -0.0016782 0)
(10.0015 -0.00491284 0)
(10.0042 -0.00776463 0)
(10.0079 -0.0100302 0)
(10.0123 -0.0117251 0)
(10.0168 -0.0130058 0)
(10.0215 -0.0139902 0)
(10.0261 -0.0147376 0)
(10.0307 -0.0153022 0)
(10.0352 -0.015743 0)
(10.0396 -0.016107 0)
(10.0438 -0.0164245 0)
(10.0478 -0.016715 0)
(10.0516 -0.0169924 0)
(10.0553 -0.0172666 0)
(10.0588 -0.0175434 0)
(10.0621 -0.0178269 0)
(10.0653 -0.0181099 0)
(10.0002 -0.00235999 0)
(10.0017 -0.00700109 0)
(10.0048 -0.0110999 0)
(10.0092 -0.0141984 0)
(10.0141 -0.0163905 0)
(10.019 -0.0180138 0)
(10.0239 -0.0192485 0)
(10.0289 -0.020159 0)
(10.0337 -0.0208173 0)
(10.0383 -0.0213061 0)
(10.0427 -0.0216868 0)
(10.0469 -0.0219976 0)
(10.051 -0.0222646 0)
(10.0548 -0.0225071 0)
(10.0585 -0.0227383 0)
(10.062 -0.022966 0)
(10.0653 -0.0231952 0)
(10.0684 -0.0234212 0)
(10.0002 -0.00299545 0)
(10.0018 -0.00910958 0)
(10.0056 -0.014481 0)
(10.0108 -0.0183243 0)
(10.0164 -0.0209424 0)
(10.0217 -0.0228353 0)
(10.027 -0.0241977 0)
(10.0322 -0.0251353 0)
(10.0372 -0.0257857 0)
(10.0419 -0.0262605 0)
(10.0465 -0.0266198 0)
(10.0508 -0.0268986 0)
(10.0548 -0.0271256 0)
(10.0587 -0.0273235 0)
(10.0624 -0.0275072 0)
(10.0659 -0.027685 0)
(10.0692 -0.0278623 0)
(10.0723 -0.0280358 0)
(10.0001 -0.00357138 0)
(10.0019 -0.0115401 0)
(10.0064 -0.0179336 0)
(10.0127 -0.0220599 0)
(10.0189 -0.025042 0)
(10.0248 -0.027341 0)
(10.0304 -0.0288816 0)
(10.0359 -0.029793 0)
(10.0411 -0.0303522 0)
(10.046 -0.0307372 0)
(10.0506 -0.0310141 0)
(10.055 -0.0312149 0)
(10.0591 -0.0313691 0)
(10.063 -0.0315 0)
(10.0667 -0.0316215 0)
(10.0701 -0.0317405 0)
(10.0734 -0.0318603 0)
(10.0764 -0.0319772 0)
(9.99997 -0.00369108 0)
(10.0018 -0.0151835 0)
(10.0076 -0.0226558 0)
(10.0148 -0.0259862 0)
(10.0214 -0.0285488 0)
(10.0277 -0.0310105 0)
(10.034 -0.0327882 0)
(10.04 -0.0338267 0)
(10.0455 -0.0344271 0)
(10.0505 -0.0347981 0)
(10.0552 -0.0350233 0)
(10.0596 -0.0351514 0)
(10.0638 -0.0352246 0)
(10.0676 -0.0352724 0)
(10.0711 -0.0353114 0)
(10.0744 -0.0353499 0)
(10.0775 -0.0353913 0)
(10.0803 -0.0354334 0)
(9.99898 -0.00131012 0)
(9.99999 -0.0179767 0)
(10.0085 -0.0290736 0)
(10.0174 -0.0326988 0)
(10.0244 -0.0341222 0)
(10.0312 -0.0353478 0)
(10.0382 -0.0362939 0)
(10.0448 -0.0369355 0)
(10.0507 -0.0373852 0)
(10.0559 -0.0376833 0)
(10.0605 -0.0378443 0)
(10.0647 -0.0379043 0)
(10.0684 -0.0379045 0)
(10.0717 -0.0378743 0)
(10.0745 -0.0378321 0)
(10.0771 -0.037789 0)
(10.0794 -0.0377486 0)
(10.0814 -0.0377101 0)
(9.99528 0.00386828 0)
(9.99333 -0.0103134 0)
(10.007 -0.0271058 0)
(10.0212 -0.038929 0)
(10.0311 -0.0448669 0)
(10.0391 -0.0464731 0)
(10.0466 -0.0459892 0)
(10.0529 -0.0450318 0)
(10.058 -0.0441561 0)
(10.062 -0.0433832 0)
(10.0651 -0.0426696 0)
(10.0674 -0.0420125 0)
(10.069 -0.0414183 0)
(10.0699 -0.0408867 0)
(10.0703 -0.0404152 0)
(10.0703 -0.0400029 0)
(10.0699 -0.0396402 0)
(10.0693 -0.0393002 0)
(9.99144 -0.0172938 0)
(9.99189 0.000364413 0)
(10.01 0.0176637 0)
(10.0295 0.0115857 0)
(10.0441 -0.0051124 0)
(10.0541 -0.0188292 0)
(10.06 -0.0271763 0)
(10.0622 -0.0320542 0)
(10.0616 -0.0349365 0)
(10.059 -0.0365428 0)
(10.0548 -0.0373207 0)
(10.0495 -0.0375951 0)
(10.0431 -0.0375791 0)
(10.036 -0.0374022 0)
(10.0285 -0.0371481 0)
(10.0205 -0.0368779 0)
(10.0124 -0.0366472 0)
(10.0042 -0.0364247 0)
(10.0236 -0.206008 0)
(10.0684 -0.31234 0)
(10.0788 -0.255594 0)
(10.0704 -0.184178 0)
(10.0605 -0.134903 0)
(10.0498 -0.102729 0)
(10.0342 -0.0811687 0)
(10.0129 -0.0666228 0)
(9.98776 -0.0566316 0)
(9.96052 -0.0494765 0)
(9.93229 -0.0441198 0)
(9.90378 -0.0399719 0)
(9.87548 -0.0366747 0)
(9.84772 -0.0339954 0)
(9.82073 -0.031786 0)
(9.79464 -0.029983 0)
(9.7697 -0.0285562 0)
(9.74591 -0.0278219 0)
(9.94226 0.671595 0)
(9.87995 0.567454 0)
(9.77444 0.338466 0)
(9.63236 0.183318 0)
(9.48762 0.0949049 0)
(9.35649 0.0470819 0)
(9.24091 0.0212968 0)
(9.1394 0.00707511 0)
(9.05044 -0.000984503 0)
(8.97243 -0.00562592 0)
(8.90366 -0.00831527 0)
(8.84256 -0.00987766 0)
(8.78791 -0.0107833 0)
(8.73871 -0.011301 0)
(8.69415 -0.0115917 0)
(8.6535 -0.0117799 0)
(8.61593 -0.0119595 0)
(8.58106 -0.0124914 0)
(0.0045897 -0.0110915 -3.50174e-20)
(0.0148136 -0.0153865 3.45456e-20)
(0.0226732 -0.0118098 0)
(0.0267232 -0.0054414 0)
(0.0262147 0.00108922 0)
(0.0216765 0.00641436 -3.22977e-20)
(0.0140502 0.0101712 0)
(0.00410225 0.0125953 0)
(-0.00753417 0.0141303 0)
(-0.0204373 0.015156 0)
(-0.0343739 0.0159131 2.94295e-20)
(-0.0491829 0.0165416 0)
(-0.064775 0.017114 0)
(-0.0811004 0.0176637 0)
(-0.0981294 0.0182037 0)
(-0.115842 0.0187374 2.62995e-20)
(-0.134221 0.0192639 0)
(-0.153253 0.019781 0)
(-0.172923 0.0202849 0)
(-0.193214 0.0207704 0)
(-0.214107 0.0212307 0)
(-0.23558 0.0216583 0)
(-0.257607 0.0220463 0)
(-0.28016 0.0223911 2.25611e-20)
(-0.303208 0.0226941 -2.2203e-20)
(-0.326723 0.0229614 2.18688e-20)
(-0.350681 0.0232007 2.15584e-20)
(-0.375052 0.0234212 0)
(-0.399782 0.0236634 0)
(-0.424862 0.0241306 -2.07717e-20)
(-0.450576 0.0255756 -2.05607e-20)
(-0.477367 0.0290898 0)
(-0.50512 0.0323335 0)
(-0.533556 0.0296622 -2.00467e-20)
(-0.562137 0.0271926 0)
(-0.590589 0.0309182 0)
(-0.620453 0.0330331 1.95401e-20)
(-0.651676 0.0342725 0)
(-0.684034 0.0413968 1.92048e-20)
(-0.718476 0.0521012 3.90716e-20)
(-0.755702 0.0458491 0)
(-0.794465 0.0564892 0)
(-0.832256 0.0654295 0)
(-0.872386 0.0380594 0)
(-0.90807 0.027082 0)
(-0.943434 0.0316573 4.00479e-20)
(-0.982093 0.0327814 3.96035e-20)
(-1.02149 0.033551 3.91655e-20)
(-1.06164 0.0339171 0)
(-1.10218 0.0340611 -3.83186e-20)
(-1.14298 0.0340613 0)
(-1.18393 0.0339664 3.75159e-20)
(-1.22494 0.0338056 3.71309e-20)
(-1.26596 0.0335965 0)
(-1.30694 0.0333504 0)
(-1.34786 0.0330741 0)
(-1.38866 0.032772 3.56884e-20)
(-1.42933 0.0324467 0)
(-1.46982 0.0320998 0)
(-1.51013 0.0317319 0)
(-1.5502 0.0313435 0)
(-1.59002 0.0309344 0)
(-1.62955 0.0305046 0)
(-1.66876 0.0300536 0)
(-1.70762 0.0295812 0)
(-1.7461 0.0290871 -3.28409e-20)
(-1.78415 0.0285711 0)
(-1.82175 0.0280331 0)
(-1.85886 0.0274729 3.19544e-20)
(-1.89543 0.0268907 3.16606e-20)
(-1.93144 0.0262867 0)
(-1.96685 0.0256611 -3.10722e-20)
(-2.00161 0.0250142 3.07765e-20)
(-2.03569 0.0243466 0)
(-2.06905 0.0236589 -3.0179e-20)
(-2.10165 0.0229517 0)
(-2.13345 0.0222257 0)
(-2.16442 0.0214817 2.92598e-20)
(-2.19452 0.0207206 0)
(-2.2237 0.019943 -2.86256e-20)
(-2.25194 0.01915 0)
(-2.2792 0.0183421 2.79695e-20)
(-2.30545 0.0175202 2.7632e-20)
(-2.33064 0.0166848 2.72877e-20)
(-2.35475 0.0158363 5.38721e-20)
(-2.37774 0.014975 -5.31533e-20)
(-2.39957 0.0141005 0)
(-2.42022 0.0132124 0)
(-2.43965 0.0123094 0)
(-2.45783 0.0113894 -5.01071e-20)
(-2.47472 0.0104497 -4.92992e-20)
(-2.49027 0.00948628 4.84715e-20)
(-2.50446 0.00849436 0)
(-2.51723 0.00746845 -4.67542e-20)
(-2.52853 0.00640175 -4.58639e-20)
(-2.53829 0.0052881 -4.4952e-20)
(-2.54644 0.00412803 0)
(-2.5529 0.00294099 0)
(-2.55756 0.0017736 0)
(-2.56028 0.000685827 -4.10834e-20)
(-2.56127 -0.00027358 0)
(-2.56086 -0.00112116 0)
(-2.55895 -0.00193989 3.79091e-20)
(-2.55559 -0.00274553 0)
(-2.55077 -0.00354489 0)
(-2.54446 -0.00433916 3.44988e-20)
(-2.53667 -0.00512832 0)
(-2.52738 -0.00591176 0)
(-2.51658 -0.00668868 -3.08489e-20)
(-2.50428 -0.00745822 -2.95791e-20)
(-2.49045 -0.00821953 0)
(-2.47511 -0.00897175 2.69608e-20)
(-2.45826 -0.00971402 0)
(-2.43988 -0.0104455 -2.42395e-20)
(-2.41999 -0.0111655 0)
(-2.3986 -0.0118731 -2.14181e-20)
(-2.37571 -0.0125675 -1.99711e-20)
(-2.35132 -0.013248 0)
(-2.32546 -0.0139139 0)
(-2.29813 -0.0145645 0)
(-2.26935 -0.015199 0)
(-2.23914 -0.0158168 0)
(-2.20751 -0.0164173 0)
(-2.1745 -0.0169999 0)
(-2.14011 -0.0175642 -7.61185e-21)
(-2.10438 -0.0181095 5.98148e-21)
(-2.06733 -0.0186353 0)
(-2.02898 -0.0191413 0)
(-1.98938 -0.0196269 0)
(-1.94855 -0.0200918 0)
(-1.90651 -0.0205355 -4.76821e-21)
(-1.86332 -0.0209578 0)
(-1.81899 -0.0213584 1.16158e-20)
(-1.77358 -0.0217372 -1.50627e-20)
(-1.72711 -0.022094 0)
(-1.67963 -0.0224285 0)
(-1.63117 -0.0227407 0)
(-1.58178 -0.0230306 2.89415e-20)
(-1.53149 -0.0232982 3.24201e-20)
(-1.48036 -0.0235437 0)
(-1.42842 -0.023767 3.93684e-20)
(-1.37572 -0.0239685 4.28324e-20)
(-1.32229 -0.0241483 -4.62859e-20)
(-1.26819 -0.0243067 0)
(-1.21346 -0.0244443 0)
(-1.15814 -0.0245613 -5.65554e-20)
(-1.10227 -0.0246582 0)
(-1.0459 -0.0247357 0)
(-0.989058 -0.0247942 0)
(-0.931798 -0.0248346 0)
(-0.874156 -0.0248575 7.32064e-20)
(-0.816169 -0.0248637 7.64439e-20)
(-0.757875 -0.0248541 0)
(-0.699309 -0.0248296 8.2807e-20)
(-0.640504 -0.0247909 0)
(-0.581493 -0.0247391 0)
(-0.522306 -0.0246752 9.20405e-20)
(-0.462971 -0.0245998 0)
(-0.403514 -0.0245136 9.79659e-20)
(-0.343962 -0.0244168 0)
(-0.284342 -0.0243093 0)
(-0.224678 -0.0241883 1.06474e-19)
(-0.165 -0.0240465 0)
(-0.105337 -0.0238802 1.11876e-19)
(-0.0457102 -0.0236827 0)
(0.0138304 -0.0233986 0)
(0.0731702 -0.0230172 0)
(0.132402 -0.0226349 -1.18495e-19)
(0.191523 -0.022277 0)
(0.250544 -0.0219365 1.19988e-19)
(0.309472 -0.0216032 0)
(0.368293 -0.0212664 0)
(0.426961 -0.0209118 0)
(0.48537 -0.0205157 0)
(0.54334 -0.0200324 0)
(0.600366 -0.0193695 0)
(0.656028 -0.01828 0)
(0.706234 -0.0161331 -2.47183e-19)
(0.755046 -0.011298 0)
(0.757105 0.00633201 0)
(0.00365672 -0.0295438 1.04025e-19)
(0.00711682 -0.0260641 -9.96963e-20)
(0.00568391 -0.0136568 0)
(0.00184297 -0.00108608 6.00999e-20)
(-0.00403788 0.0103096 0)
(-0.0118525 0.0198992 2.8171e-20)
(-0.0215409 0.0275013 -5.48871e-20)
(-0.032989 0.0332959 -5.35595e-20)
(-0.0460416 0.0376574 0)
(-0.0605121 0.0409994 -5.1042e-20)
(-0.0762152 0.0436603 -2.49305e-20)
(-0.0929949 0.0458804 0)
(-0.110732 0.0478176 0)
(-0.129343 0.0495686 0)
(-0.148768 0.0511897 0)
(-0.168971 0.0527123 -2.22249e-20)
(-0.189928 0.0541534 0)
(-0.211625 0.0555213 4.25765e-20)
(-0.234058 0.0568195 0)
(-0.257224 0.0580484 0)
(-0.281128 0.0592066 -4.01709e-20)
(-0.305781 0.0602927 0)
(-0.3312 0.0613074 3.87955e-20)
(-0.35741 0.0622552 -1.91106e-20)
(-0.384445 0.0631451 1.88247e-20)
(-0.412352 0.0639885 -1.85622e-20)
(-0.441188 0.0647944 -1.83237e-20)
(-0.471022 0.0655671 0)
(-0.50195 0.0663178 0)
(-0.534101 0.0670981 1.7767e-20)
(-0.567428 0.0680615 -1.75825e-20)
(-0.601549 0.0694308 0)
(-0.636469 0.0709647 0)
(-0.673118 0.071799 1.74759e-20)
(-0.711393 0.0724176 0)
(-0.750523 0.0737991 0)
(-0.790382 0.0752562 -1.71292e-20)
(-0.831049 0.0763092 0)
(-0.871847 0.0774533 1.67434e-20)
(-0.911987 0.0789246 -3.34862e-20)
(-0.952759 0.0802525 0)
(-0.99143 0.0803537 0)
(-1.03051 0.0819566 -6.55005e-20)
(-1.07068 0.083467 -6.49272e-20)
(-1.11254 0.0849375 -6.41995e-20)
(-1.15379 0.0864889 3.16311e-20)
(-1.19327 0.0872367 -3.14318e-20)
(-1.23192 0.0874249 -9.30791e-20)
(-1.27008 0.0872554 6.13196e-20)
(-1.30789 0.0868346 3.04035e-20)
(-1.34541 0.0862393 0)
(-1.38266 0.0855176 -2.97695e-20)
(-1.41964 0.0847016 2.93175e-20)
(-1.45636 0.0838123 0)
(-1.4928 0.0828632 0)
(-1.52896 0.081863 0)
(-1.56481 0.0808171 -2.83274e-20)
(-1.60034 0.0797286 0)
(-1.63553 0.078599 5.54418e-20)
(-1.67036 0.0774291 0)
(-1.70481 0.0762188 5.44172e-20)
(-1.73887 0.0749678 0)
(-1.7725 0.0736754 -5.34234e-20)
(-1.80568 0.072341 0)
(-1.83838 0.0709641 5.24524e-20)
(-1.87059 0.0695442 -2.59151e-20)
(-1.90228 0.0680811 0)
(-1.9334 0.0665746 -5.10216e-20)
(-1.96395 0.0650249 -2.53422e-20)
(-1.99389 0.0634323 -2.51041e-20)
(-2.02318 0.0617974 0)
(-2.05181 0.0601211 -2.44971e-20)
(-2.07975 0.0584043 -2.43844e-20)
(-2.10695 0.0566483 0)
(-2.1334 0.0548545 2.3896e-20)
(-2.15907 0.0530243 -4.71815e-20)
(-2.18392 0.0511596 0)
(-2.20793 0.0492621 -2.31421e-20)
(-2.23106 0.0473336 0)
(-2.2533 0.0453762 6.7765e-20)
(-2.27461 0.0433917 0)
(-2.29496 0.0413822 -6.6155e-20)
(-2.31434 0.0393494 -2.18027e-20)
(-2.3327 0.0372951 2.14433e-20)
(-2.35003 0.0352211 4.23189e-20)
(-2.3663 0.0331286 -4.17389e-20)
(-2.38148 0.031019 0)
(-2.39555 0.028893 0)
(-2.40849 0.0267511 0)
(-2.42026 0.0245934 1.18011e-19)
(-2.43085 0.0224192 3.86997e-20)
(-2.44024 0.0202272 -3.80207e-20)
(-2.4484 0.0180154 0)
(-2.45532 0.0157815 -3.65931e-20)
(-2.46099 0.0135225 3.58854e-20)
(-2.46542 0.0112341 3.51397e-20)
(-2.46861 0.00891378 0)
(-2.47064 0.00657305 0)
(-2.47158 0.00425397 0)
(-2.47154 0.00201726 3.19713e-20)
(-2.4704 -0.000111355 0)
(-2.46789 -0.00215161 -6.06202e-20)
(-2.464 -0.00415492 -8.82591e-20)
(-2.45868 -0.00613416 5.7093e-20)
(-2.45192 -0.00809537 0)
(-2.44371 -0.0100388 2.67869e-20)
(-2.43402 -0.0119633 0)
(-2.42286 -0.0138666 4.96002e-20)
(-2.4102 -0.0157465 -2.39193e-20)
(-2.39606 -0.0176007 -2.29275e-20)
(-2.38041 -0.0194269 0)
(-2.36327 -0.0212228 -6.21747e-20)
(-2.34462 -0.0229865 3.94296e-20)
(-2.32448 -0.0247157 1.85065e-20)
(-2.30285 -0.0264085 0)
(-2.27972 -0.0280629 1.63068e-20)
(-2.25512 -0.0296772 4.58756e-20)
(-2.22904 -0.0312496 0)
(-2.2015 -0.0327783 2.61411e-20)
(-2.17251 -0.0342616 2.38241e-20)
(-2.14209 -0.0356982 2.14809e-20)
(-2.11026 -0.0370864 0)
(-2.07703 -0.0384252 0)
(-2.04243 -0.0397132 0)
(-2.00647 -0.0409494 -6.15081e-21)
(-1.96919 -0.0421328 -4.4913e-21)
(-1.9306 -0.0432626 0)
(-1.89074 -0.0443378 -4.465e-21)
(-1.84964 -0.0453578 -1.96506e-21)
(-1.80732 -0.0463219 0)
(-1.76381 -0.0472296 3.55646e-21)
(-1.71916 -0.0480805 1.12022e-20)
(-1.6734 -0.0488744 -8.64151e-21)
(-1.62656 -0.0496114 -1.01732e-20)
(-1.57868 -0.0502913 0)
(-1.52981 -0.0509145 0)
(-1.47997 -0.0514809 0)
(-1.42921 -0.0519909 -2.13982e-20)
(-1.37757 -0.0524451 2.28706e-20)
(-1.3251 -0.0528443 5.18788e-20)
(-1.27183 -0.0531894 -2.90066e-20)
(-1.21781 -0.053481 3.04342e-20)
(-1.16308 -0.0537203 3.40284e-20)
(-1.10769 -0.0539083 0)
(-1.05167 -0.0540466 0)
(-0.995076 -0.0541367 -4.03502e-20)
(-0.937944 -0.05418 0)
(-0.880317 -0.0541783 0)
(-0.822237 -0.0541333 9.6292e-20)
(-0.763743 -0.0540472 0)
(-0.704875 -0.053922 5.23155e-20)
(-0.64567 -0.0537598 -5.57185e-20)
(-0.586165 -0.0535628 0)
(-0.526396 -0.0533336 5.91882e-20)
(-0.466394 -0.0530744 0)
(-0.406193 -0.0527875 0)
(-0.34582 -0.0524754 -6.68337e-20)
(-0.285305 -0.05214 1.36872e-19)
(-0.224672 -0.051783 -7.10429e-20)
(-0.163947 -0.051405 0)
(-0.103152 -0.0510052 0)
(-0.0423117 -0.0505819 7.60734e-20)
(0.0185524 -0.0501308 0)
(0.0794154 -0.0496501 7.88902e-20)
(0.140261 -0.049148 0)
(0.201073 -0.048621 0)
(0.261838 -0.0480595 0)
(0.322583 -0.0474918 8.38359e-20)
(0.383296 -0.0469402 0)
(0.443972 -0.046402 -8.55782e-20)
(0.5046 -0.0458642 0)
(0.565153 -0.0453073 0)
(0.625576 -0.0447006 1.74817e-19)
(0.685758 -0.0439922 -1.76134e-19)
(0.745512 -0.0430815 0)
(0.804401 -0.0417736 0)
(0.861974 -0.039567 0)
(0.915688 -0.0355058 5.43586e-19)
(0.968108 -0.0263358 0)
(0.998601 -0.00411846 -3.69808e-19)
(0.000237709 -0.0328458 -4.65858e-23)
(-0.00382137 -0.0182645 1.29004e-19)
(-0.0108608 -0.000891015 0)
(-0.019067 0.0147699 -1.10346e-19)
(-0.028493 0.0286697 0)
(-0.0389879 0.0407299 0)
(-0.0505624 0.0509201 1.14689e-23)
(-0.0632868 0.0593395 4.75322e-20)
(-0.0772013 0.0662164 4.63316e-20)
(-0.0922893 0.0718484 4.52351e-20)
(-0.108492 0.0765342 0)
(-0.125735 0.0805313 0)
(-0.143945 0.0840404 -4.22025e-20)
(-0.163059 0.0872072 -8.25632e-20)
(-0.18303 0.0901323 8.08054e-20)
(-0.203823 0.0928829 0)
(-0.225419 0.0955035 7.75414e-20)
(-0.247808 0.0980234 -3.80312e-20)
(-0.270987 0.100462 0)
(-0.294961 0.102835 7.32569e-20)
(-0.319744 0.105154 3.60081e-20)
(-0.345351 0.107433 -7.07903e-20)
(-0.371806 0.109687 -3.48505e-20)
(-0.399137 0.111937 0)
(-0.427373 0.114209 6.76461e-20)
(-0.456543 0.116529 6.67402e-20)
(-0.486673 0.118923 0)
(-0.517781 0.121414 6.51273e-20)
(-0.54988 0.124029 0)
(-0.582974 0.126809 6.37583e-20)
(-0.616968 0.129814 3.15958e-20)
(-0.651583 0.132994 0)
(-0.686658 0.136013 0)
(-0.722397 0.138502 0)
(-0.758822 0.140623 0)
(-0.795563 0.142722 0)
(-0.832332 0.144624 0)
(-0.869061 0.14625 5.89939e-20)
(-0.905507 0.147763 -8.74772e-20)
(-0.941283 0.148769 0)
(-0.976661 0.148801 0)
(-1.01143 0.148505 0)
(-1.04562 0.147412 -1.7297e-23)
(-1.08001 0.144984 5.49228e-20)
(-1.11506 0.142933 1.08448e-19)
(-1.14994 0.141635 -1.07081e-19)
(-1.18423 0.140466 -5.28374e-20)
(-1.2181 0.13928 5.22655e-20)
(-1.25163 0.138014 -7.92416e-23)
(-1.2849 0.136654 5.09437e-20)
(-1.31795 0.135202 0)
(-1.35078 0.133668 4.97658e-20)
(-1.38343 0.132062 -8.65534e-23)
(-1.41588 0.130391 0)
(-1.44813 0.128662 0)
(-1.48017 0.126877 -4.75851e-20)
(-1.512 0.125039 0)
(-1.54359 0.123147 0)
(-1.57493 0.121203 4.59807e-20)
(-1.60601 0.119204 9.11821e-20)
(-1.63679 0.117149 -4.52107e-20)
(-1.66727 0.115037 0)
(-1.69741 0.112866 4.42803e-20)
(-1.7272 0.110636 0)
(-1.75661 0.108345 4.31814e-20)
(-1.78561 0.105992 4.2924e-20)
(-1.81417 0.103576 -8.47707e-20)
(-1.84227 0.101099 -4.18511e-20)
(-1.86988 0.0985586 0)
(-1.89698 0.095957 8.21321e-20)
(-1.92352 0.0932948 0)
(-1.94949 0.0905731 1.20656e-19)
(-1.97486 0.0877936 7.95009e-20)
(-1.99958 0.084958 7.8619e-20)
(-2.02364 0.0820686 -7.77324e-20)
(-2.047 0.0791275 1.15337e-19)
(-2.06963 0.0761375 0)
(-2.09151 0.0731011 0)
(-2.1126 0.0700213 -7.41139e-20)
(-2.13288 0.0669008 -1.09842e-19)
(-2.15231 0.0637427 0)
(-2.17086 0.0605499 3.57029e-20)
(-2.18852 0.0573253 0)
(-2.20525 0.0540717 -1.04058e-19)
(-2.22102 0.0507916 -9.15576e-23)
(-2.23581 0.0474877 8.29917e-23)
(-2.24959 0.0441622 6.62876e-20)
(-2.26234 0.040817 0)
(-2.27403 0.037454 -6.41603e-20)
(-2.28464 0.0340748 -4.60707e-23)
(-2.29416 0.030681 0)
(-2.30255 0.0272743 0)
(-2.30982 0.0238568 0)
(-2.31593 0.020432 5.84772e-20)
(-2.32089 0.0170052 0)
(-2.32469 0.0135853 0)
(-2.32732 0.0101855 0)
(-2.3288 0.00682389 0)
(-2.3291 0.00351896 0)
(-2.3282 0.000275864 5.08303e-20)
(-2.32602 -0.00293389 0)
(-2.3225 -0.00613292 4.79733e-20)
(-2.31762 -0.00931411 4.65376e-20)
(-2.31136 -0.012474 -4.50764e-20)
(-2.30371 -0.0156093 0)
(-2.29463 -0.0187164 -4.20774e-20)
(-2.28414 -0.0217914 0)
(-2.2722 -0.0248304 -3.89776e-20)
(-2.25882 -0.0278294 3.73905e-20)
(-2.24399 -0.0307847 1.07693e-19)
(-2.22771 -0.0336925 0)
(-2.20996 -0.0365491 9.78585e-20)
(-2.19076 -0.0393512 3.12287e-20)
(-2.17011 -0.0420955 0)
(-2.148 -0.0447787 5.52221e-20)
(-2.12445 -0.0473978 5.17535e-20)
(-2.09945 -0.0499499 -7.21119e-20)
(-2.07303 -0.0524323 0)
(-2.04518 -0.0548421 -2.02815e-20)
(-2.01593 -0.0571768 -1.84628e-20)
(-1.98528 -0.059434 -5.04745e-20)
(-1.95326 -0.0616115 0)
(-1.91988 -0.0637073 0)
(-1.88516 -0.0657195 0)
(-1.84912 -0.0676464 -9.81162e-21)
(-1.8118 -0.0694867 0)
(-1.7732 -0.071239 0)
(-1.73337 -0.0729021 3.4295e-21)
(-1.69232 -0.0744748 1.50771e-21)
(-1.65009 -0.0759563 0)
(-1.60671 -0.0773458 0)
(-1.56221 -0.0786429 -8.56781e-21)
(-1.51663 -0.0798473 0)
(-1.47 -0.0809592 1.63069e-20)
(-1.42236 -0.0819788 1.93844e-20)
(-1.37374 -0.0829063 0)
(-1.32419 -0.0837422 0)
(-1.27375 -0.0844872 -3.09162e-20)
(-1.22244 -0.0851423 -8.17817e-22)
(-1.17033 -0.0857087 -8.23004e-22)
(-1.11743 -0.0861881 0)
(-1.06381 -0.086582 -9.30294e-20)
(-1.0095 -0.0868921 0)
(-0.954538 -0.0871203 0)
(-0.898971 -0.0872692 0)
(-0.842839 -0.0873413 6.17484e-20)
(-0.786185 -0.0873392 0)
(-0.729048 -0.0872656 -1.36258e-19)
(-0.671469 -0.0871237 -7.25183e-20)
(-0.613487 -0.0869168 0)
(-0.55514 -0.0866484 -7.9502e-20)
(-0.496464 -0.0863218 0)
(-0.437496 -0.0859411 0)
(-0.378269 -0.0855099 -2.67298e-19)
(-0.318816 -0.0850321 1.84234e-19)
(-0.259166 -0.0845115 0)
(-0.199348 -0.083952 1.97089e-19)
(-0.139389 -0.0833567 -1.02473e-19)
(-0.0793137 -0.0827283 0)
(-0.0191446 -0.0820697 0)
(0.0410968 -0.0813821 0)
(0.10139 -0.0806652 -3.37516e-19)
(0.161718 -0.0799177 0)
(0.222065 -0.0791403 -1.16856e-19)
(0.282422 -0.0783403 0)
(0.342794 -0.0775306 0)
(0.403201 -0.0767212 0)
(0.463639 -0.0759187 0)
(0.52409 -0.0751291 0)
(0.584538 -0.0743466 0)
(0.644963 -0.0735545 -2.55554e-19)
(0.705334 -0.0727245 0)
(0.765591 -0.0718097 -1.31128e-19)
(0.825628 -0.0707296 3.95924e-19)
(0.88527 -0.0693352 0)
(0.944153 -0.0673433 0)
(1.00194 -0.0641373 -2.70648e-19)
(1.05691 -0.0585416 -2.74174e-19)
(1.11175 -0.0476114 2.76173e-19)
(1.15441 -0.0250541 2.80982e-19)
(-0.00353394 -0.0226503 -2.0521e-19)
(-0.0125468 -0.000657848 -1.88659e-19)
(-0.0230846 0.0193581 -1.12856e-19)
(-0.0343739 0.0366514 -5.1808e-20)
(-0.0464205 0.0519614 0)
(-0.0590486 0.0654787 9.31321e-20)
(-0.072305 0.0772741 -4.49008e-20)
(-0.0863047 0.0874393 0)
(-0.101145 0.0961317 -4.24155e-20)
(-0.116881 0.103564 0)
(-0.133531 0.10997 8.08161e-20)
(-0.151085 0.115575 0)
(-0.169518 0.120574 3.86481e-20)
(-0.188801 0.125123 7.56631e-20)
(-0.208906 0.129343 -7.4109e-20)
(-0.229812 0.133321 0)
(-0.251502 0.13712 -7.1226e-20)
(-0.273969 0.140787 0)
(-0.297207 0.144355 0)
(-0.321218 0.147849 -6.7429e-20)
(-0.346005 0.151288 0)
(-0.371572 0.154693 4.30507e-24)
(-0.397924 0.15808 0)
(-0.42506 0.161465 0)
(-0.452975 0.164864 -4.23062e-24)
(-0.481653 0.168286 -6.1472e-20)
(-0.511065 0.17173 -6.06491e-20)
(-0.541164 0.175188 -5.98724e-20)
(-0.571888 0.178635 0)
(-0.60315 0.182042 -1.16795e-19)
(-0.634822 0.185369 0)
(-0.666736 0.188527 -5.70001e-20)
(-0.698754 0.191324 0)
(-0.730852 0.193587 0)
(-0.763017 0.195358 5.49179e-20)
(-0.795138 0.196755 0)
(-0.827089 0.197756 -5.34893e-20)
(-0.8588 0.198357 -1.19061e-23)
(-0.8902 0.198585 1.04124e-19)
(-0.921244 0.198399 -1.02691e-19)
(-0.951984 0.197686 0)
(-0.982471 0.196602 0)
(-1.01277 0.195074 -4.9246e-20)
(-1.04309 0.192977 0)
(-1.07351 0.190821 -4.7922e-20)
(-1.1039 0.188811 4.7278e-20)
(-1.13413 0.186861 4.66519e-20)
(-1.16422 0.18492 0)
(-1.19416 0.182953 -4.54521e-20)
(-1.22396 0.18094 -4.48771e-20)
(-1.25365 0.178872 8.857e-20)
(-1.28321 0.176744 -4.37735e-20)
(-1.31266 0.174556 -4.32433e-20)
(-1.342 0.172307 0)
(-1.3712 0.169995 0)
(-1.40027 0.167621 4.173e-20)
(-1.42919 0.165181 0)