/*--------------------------------*- C++ -*----------------------------------*\
  =========                 |
  \\      /  F ield         | OpenFOAM: The Open Source CFD Toolbox
   \\    /   O peration     | Website:  https://openfoam.org
    \\  /    A nd           | Version:  12
     \\/     M anipulation  |
\*---------------------------------------------------------------------------*/
FoamFile
{
    format      ascii;
    class       volScalarField;
    location    "12.8";
    object      p_rgh;
}
// * * * * * * * * * * * * * * * * * * * * * * * * * * * * * * * * * * * * * //

dimensions      [1 -1 -2 0 0 0 0];

internalField   nonuniform List<scalar> 
3829
(
0.793151
0.793006
0.792705
0.792242
0.791611
0.790806
0.789817
0.788636
0.787252
0.785654
0.783828
0.781759
0.77943
0.77682
0.773907
0.770666
0.767068
0.763082
0.758672
0.7538
0.748425
0.742499
0.735973
0.728791
0.720893
0.712214
0.702685
0.692232
0.680777
0.668241
0.654539
0.639588
0.623303
0.605597
0.586388
0.565591
0.543127
0.51892
0.493001
0.465322
0.435857
0.404602
0.371577
0.336828
0.300421
0.262448
0.223024
0.182291
0.140416
0.0975936
0.054048
0.0100299
-0.0341818
-0.0782854
-0.121952
-0.164836
-0.206564
-0.246756
-0.285016
-0.320949
-0.354155
-0.384234
-0.410801
-0.433479
-0.45193
-0.465833
-0.474926
-0.478982
-0.477825
-0.471363
-0.459553
-0.442464
-0.419869
-0.39222
-0.359681
-0.322471
-0.281555
-0.23731
-0.190333
-0.141302
-0.0909867
-0.0402099
0.0101374
0.0591336
0.10584
0.149328
0.188683
0.223051
0.251666
0.273896
0.289236
0.294722
0.291845
0.280612
0.26117
0.233829
0.199037
0.157415
0.109794
0.0572251
0.000985895
-0.0574976
-0.116615
-0.174717
-0.230093
-0.281019
-0.325846
-0.363051
-0.391301
-0.409557
-0.417104
-0.410977
-0.393031
-0.3639
-0.324396
-0.275607
-0.219059
-0.156705
-0.0907619
-0.0238073
0.0414122
0.102283
0.156152
0.200602
0.233554
0.253435
0.259256
0.248559
0.223297
0.184724
0.134457
0.074819
0.00877557
-0.0602519
-0.129773
-0.193727
-0.249748
-0.294609
-0.325733
-0.341392
-0.340878
-0.32377
-0.292001
-0.247929
-0.194802
-0.136583
-0.0775181
-0.0227185
0.0238637
0.0585164
0.0785411
0.0825725
0.070084
0.0429849
0.00383386
-0.0489716
-0.100557
-0.15089
-0.195152
-0.228831
-0.248592
-0.252701
-0.240643
-0.214332
-0.176855
-0.132692
-0.0868454
-0.0449576
-0.0114294
0.010024
0.0173813
0.0104707
-0.00845542
-0.0357831
-0.0666957
-0.0960614
-0.118865
-0.131703
-0.132537
-0.121404
-0.100227
-0.0727293
-0.0434979
-0.0173902
0.00110853
0.00924509
0.00605157
-0.0076293
-0.0291513
-0.0547482
-0.0800455
-0.100822
-0.113862
-0.117859
-0.113056
-0.101291
-0.0853591
-0.0687771
-0.055096
-0.0473231
0.810837
0.810689
0.810386
0.809925
0.809305
0.808525
0.807587
0.80649
0.805234
0.803819
0.802242
0.800501
0.798593
0.796512
0.794251
0.791799
0.789141
0.786257
0.783118
0.779692
0.775934
0.771791
0.767202
0.762096
0.756389
0.749993
0.742808
0.734726
0.72563
0.715397
0.703901
0.691012
0.676597
0.66053
0.642694
0.622994
0.601408
0.577264
0.550566
0.521337
0.489604
0.45543
0.418908
0.380134
0.339205
0.296215
0.25128
0.20454
0.156185
0.106447
0.0555988
0.00395378
-0.048137
-0.100294
-0.152099
-0.203114
-0.252861
-0.30086
-0.346611
-0.389603
-0.429328
-0.465271
-0.496964
-0.523944
-0.54576
-0.561946
-0.572297
-0.576491
-0.574291
-0.565542
-0.550173
-0.528143
-0.499785
-0.465225
-0.42476
-0.378861
-0.32804
-0.272829
-0.214441
-0.153605
-0.0912614
-0.028446
0.033732
0.0941244
0.151554
0.204842
0.252817
0.294366
0.328451
0.354055
0.370385
0.378431
0.375693
0.362353
0.338654
0.304984
0.261926
0.210313
0.151251
0.0860959
0.0164601
-0.0558801
-0.128891
-0.200535
-0.268689
-0.331213
-0.386055
-0.431333
-0.465396
-0.486885
-0.494725
-0.487363
-0.465554
-0.429883
-0.3813
-0.321217
-0.25161
-0.174955
-0.0940343
-0.0120169
0.0677116
0.141891
0.207262
0.260857
0.300128
0.323059
0.328425
0.314897
0.283638
0.235954
0.173941
0.100609
0.019631
-0.0648219
-0.148295
-0.225768
-0.293091
-0.346392
-0.382548
-0.399507
-0.396265
-0.373299
-0.332449
-0.27669
-0.21022
-0.137983
-0.0648921
0.00210771
0.0585809
0.0999855
0.123113
0.126027
0.108894
0.0735812
0.0234322
-0.0386962
-0.10321
-0.165388
-0.219414
-0.259934
-0.283028
-0.286522
-0.270498
-0.237073
-0.190338
-0.135914
-0.0799262
-0.0294912
0.0101569
0.0347667
0.0421556
0.0309565
0.00546067
-0.0297651
-0.0688469
-0.105487
-0.133555
-0.14899
-0.149438
-0.135116
-0.108827
-0.075062
-0.0394989
-0.00793124
0.0139268
0.0230536
0.0185629
0.0015201
-0.0246088
-0.0551937
-0.0849409
-0.108762
-0.123224
-0.12687
-0.120152
-0.105359
-0.085892
-0.0658894
-0.0495018
-0.0402308
0.833573
0.833333
0.832854
0.832139
0.831201
0.830056
0.828729
0.82725
0.825655
0.823982
0.822267
0.820551
0.818863
0.81723
0.815693
0.814276
0.812993
0.811853
0.810853
0.809976
0.809186
0.808428
0.807624
0.806676
0.805465
0.803843
0.801645
0.798681
0.794737
0.789574
0.782941
0.77458
0.764218
0.751574
0.736354
0.718229
0.696811
0.672879
0.64597
0.615839
0.582309
0.54524
0.504532
0.460154
0.412156
0.360678
0.305927
0.248171
0.187723
0.124943
0.060245
-0.00591421
-0.0730264
-0.140536
-0.207853
-0.274347
-0.339355
-0.402189
-0.462141
-0.518498
-0.570558
-0.617281
-0.658626
-0.693691
-0.721846
-0.742536
-0.755305
-0.759775
-0.755695
-0.742851
-0.721192
-0.689755
-0.649935
-0.601881
-0.545987
-0.482869
-0.413271
-0.338069
-0.258049
-0.174753
-0.0897643
-0.0043579
0.080021
0.161833
0.23949
0.311406
0.376006
0.431745
0.477257
0.511337
0.532743
0.542108
0.537192
0.518169
0.485208
0.438734
0.379508
0.308709
0.227884
0.138903
0.0439892
-0.05443
-0.15355
-0.250619
-0.342715
-0.426936
-0.500515
-0.560892
-0.605812
-0.633377
-0.642421
-0.631858
-0.601945
-0.55327
-0.487096
-0.405488
-0.311199
-0.207609
-0.0985356
0.0116779
0.118451
0.217389
0.30411
0.374639
0.425515
0.454216
0.458892
0.439265
0.395963
0.33065
0.246325
0.147186
0.0383194
-0.0746231
-0.185261
-0.287465
-0.375437
-0.444018
-0.489189
-0.508216
-0.499672
-0.465024
-0.406596
-0.328664
-0.23711
-0.13868
-0.0396594
0.0499535
0.124684
0.178454
0.206851
0.207532
0.181288
0.130697
0.0607085
-0.022835
-0.110529
-0.194169
-0.265925
-0.318751
-0.347528
-0.349534
-0.325543
-0.278481
-0.214296
-0.140694
-0.0655384
0.000465287
0.0509738
0.0808029
0.0888699
0.0682678
0.0304257
-0.0195545
-0.0738249
-0.123983
-0.161661
-0.181628
-0.181063
-0.160641
-0.124457
-0.0789344
-0.0317996
0.0102727
0.0379187
0.048486
0.0412694
0.0179301
-0.016674
-0.056491
-0.0945064
-0.123765
-0.140464
-0.143259
-0.132916
-0.112557
-0.0866623
-0.0604898
-0.0392506
-0.027308
0.87152
0.870868
0.869566
0.867638
0.865127
0.862099
0.858636
0.85485
0.850864
0.846812
0.842866
0.839192
0.835918
0.833167
0.831066
0.829789
0.82948
0.830248
0.83217
0.835275
0.839548
0.844933
0.851312
0.858513
0.866304
0.874406
0.882485
0.890169
0.897046
0.902691
0.906643
0.908436
0.907608
0.903724
0.896398
0.885431
0.868721
0.846439
0.818709
0.785599
0.747115
0.703217
0.65386
0.599048
0.538851
0.473423
0.403023
0.327999
0.248789
0.165917
0.0799817
-0.0083404
-0.0983115
-0.189123
-0.279923
-0.369808
-0.457799
-0.542923
-0.624187
-0.700182
-0.770658
-0.834279
-0.890081
-0.937156
-0.974673
-1.0019
-1.01818
-1.02293
-1.01572
-0.99624
-0.964029
-0.920406
-0.864817
-0.797653
-0.719614
-0.631661
-0.534938
-0.430781
-0.320791
-0.20126
-0.0843685
0.0333896
0.149804
0.262633
0.369624
0.468536
0.557184
0.633558
0.695706
0.741947
0.771108
0.781576
0.773008
0.745202
0.698204
0.632565
0.549373
0.450327
0.337594
0.213775
0.0819701
-0.0544535
-0.191516
-0.325435
-0.452219
-0.567829
-0.668434
-0.750503
-0.810957
-0.847435
-0.857914
-0.84216
-0.799801
-0.731587
-0.63938
-0.526129
-0.395721
-0.252866
-0.102824
0.0481857
0.194057
0.328671
0.446017
0.54068
0.608078
0.64458
0.648158
0.618984
0.557387
0.465859
0.348831
0.212083
0.0626955
-0.0915265
-0.241495
-0.379097
-0.496377
-0.586455
-0.644129
-0.665819
-0.648712
-0.59616
-0.511639
-0.401182
-0.272957
-0.136128
-0.00109821
0.121225
0.221967
0.293281
0.329237
0.325633
0.285252
0.212093
0.113248
-0.0027939
-0.123768
-0.238019
-0.334943
-0.404911
-0.441091
-0.440401
-0.404026
-0.336677
-0.246993
-0.145924
-0.0421722
0.0454262
0.110712
0.14573
0.145672
0.119239
0.0649212
-0.00625901
-0.0824468
-0.152141
-0.203263
-0.229258
-0.226714
-0.197044
-0.146198
-0.0836064
-0.020695
0.0378226
0.0725143
0.0845986
0.0726482
0.04055
-0.00603759
-0.0590908
-0.109047
-0.145547
-0.164759
-0.166191
-0.150564
-0.122289
-0.0873935
-0.0526549
-0.0247429
-0.00914004
0.934951
0.933262
0.929868
0.924802
0.918104
0.909848
0.900305
0.889833
0.878708
0.867181
0.855542
0.844277
0.833921
0.825011
0.818032
0.813388
0.811388
0.812388
0.816643
0.824203
0.835097
0.849264
0.866504
0.886496
0.908796
0.932854
0.957995
0.98349
1.00852
1.03223
1.05375
1.07214
1.0864
1.09557
1.0987
1.09487
1.08565
1.06949
1.04558
1.01329
0.972226
0.922215
0.863276
0.795571
0.719391
0.635146
0.543338
0.444569
0.339542
0.229059
0.114019
-0.0045877
-0.125679
-0.248112
-0.370634
-0.491982
-0.610782
-0.725552
-0.835186
-0.938167
-1.03313
-1.11868
-1.19355
-1.25652
-1.30639
-1.34217
-1.363
-1.36813
-1.35711
-1.32978
-1.28451
-1.22306
-1.14555
-1.0525
-0.944789
-0.823631
-0.690508
-0.547128
-0.395467
-0.237634
-0.0768361
0.0844285
0.243392
0.397109
0.542549
0.676786
0.796844
0.899829
0.983282
1.04492
1.08254
1.09536
1.08209
1.04249
0.976657
0.885437
0.770432
0.633975
0.479058
0.309297
0.128949
-0.0574793
-0.244328
-0.426506
-0.598539
-0.754984
-0.890669
-1.00088
-1.08149
-1.12902
-1.14105
-1.1178
-1.05831
-0.963716
-0.836779
-0.681623
-0.503552
-0.309084
-0.105478
0.0988417
0.295627
0.476556
0.633559
0.759318
0.847649
0.894057
0.895515
0.852773
0.766265
0.639759
0.479446
0.293275
0.0907795
-0.117464
-0.318633
-0.501837
-0.656496
-0.773627
-0.846665
-0.872184
-0.841627
-0.764776
-0.645602
-0.492344
-0.316056
-0.129178
0.0531226
0.217376
0.351198
0.444575
0.491286
0.479363
0.419342
0.31608
0.179136
0.0201816
-0.144226
-0.29808
-0.427202
-0.518748
-0.563931
-0.558515
-0.504899
-0.410203
-0.286384
-0.147978
-0.0106689
0.106171
0.190895
0.233734
0.230691
0.18729
0.108972
0.0092697
-0.0958431
-0.190593
-0.258829
-0.292037
-0.28614
-0.243691
-0.173254
-0.0877625
-0.0017646
0.0711501
0.117019
0.131015
0.113142
0.0688159
0.006751
-0.0650771
-0.127314
-0.172955
-0.196426
-0.195191
-0.172489
-0.13407
-0.0878352
-0.0424089
-0.00625192
0.0138542
1.04409
1.03987
1.03147
1.01912
1.0032
0.984531
0.963114
0.937236
0.908264
0.87746
0.845996
0.815232
0.786301
0.760525
0.73916
0.723328
0.713948
0.711793
0.717354
0.730841
0.752246
0.781432
0.817966
0.861205
0.910181
0.963773
1.0205
1.07896
1.13745
1.19436
1.24778
1.29604
1.33747
1.37063
1.3943
1.40752
1.4094
1.39931
1.37675
1.34137
1.29297
1.23156
1.15728
1.07046
0.971586
0.861303
0.740388
0.609755
0.470439
0.323612
0.170555
0.0126564
-0.148578
-0.311564
-0.474648
-0.636069
-0.793905
-0.946528
-1.09203
-1.22856
-1.35426
-1.46733
-1.56602
-1.64868
-1.71386
-1.76016
-1.78638
-1.79159
-1.77496
-1.73564
-1.67555
-1.59318
-1.48908
-1.36423
-1.2199
-1.05779
-0.879904
-0.688577
-0.486565
-0.276919
-0.0630568
0.151297
0.362415
0.566314
0.75902
0.936576
1.09498
1.23058
1.34002
1.42006
1.46846
1.48317
1.46349
1.40871
1.31907
1.19575
1.04099
0.857956
0.650666
0.423958
0.183518
-0.0647202
-0.312963
-0.554598
-0.782293
-0.988846
-1.16743
-1.31177
-1.41639
-1.47698
-1.4907
-1.45723
-1.37572
-1.24785
-1.07746
-0.8701
-0.632985
-0.374757
-0.105018
0.164834
0.424032
0.661492
0.866571
1.02978
1.14319
1.20073
1.19891
1.13837
1.0203
0.850099
0.636077
0.388932
0.121129
-0.154601
-0.418123
-0.656462
-0.855856
-1.0046
-1.09351
-1.11676
-1.07448
-0.968532
-0.806519
-0.600221
-0.364425
-0.116159
0.124219
0.339044
0.511955
0.630272
0.688276
0.665532
0.581468
0.440875
0.256621
0.0448234
-0.172913
-0.375105
-0.54303
-0.660097
-0.715043
-0.702809
-0.626961
-0.497805
-0.331526
-0.147432
0.0317076
0.183638
0.291482
0.343075
0.334234
0.2701
0.161381
0.025993
-0.11523
-0.239536
-0.328509
-0.369809
-0.358899
-0.29999
-0.205049
-0.09143
0.0216133
0.11417
0.171838
0.187235
0.161229
0.101745
0.0221634
-0.0745737
-0.150612
-0.206633
-0.234089
-0.229571
-0.198037
-0.147432
-0.087802
-0.0298279
0.0159019
0.0412093
1.2564
1.24471
1.22123
1.18597
1.13896
1.08071
1.01269
0.940208
0.866267
0.793371
0.723159
0.65833
0.600694
0.552255
0.514497
0.48855
0.474959
0.474052
0.486174
0.511873
0.551646
0.605835
0.674041
0.755521
0.848573
0.951208
1.0602
1.17248
1.28467
1.39348
1.4954
1.58733
1.66667
1.73165
1.78141
1.81453
1.82992
1.82692
1.80518
1.76462
1.70536
1.62775
1.53229
1.41971
1.29086
1.14676
0.988587
0.817678
0.635487
0.443617
0.243795
0.0378567
-0.172197
-0.384299
-0.596152
-0.805601
-1.01038
-1.20807
-1.39626
-1.57256
-1.73462
-1.88011
-2.00682
-2.11263
-2.19565
-2.2542
-2.28678
-2.29229
-2.26977
-2.21792
-2.1378
-2.02927
-1.89299
-1.73009
-1.5422
-1.33148
-1.10055
-0.852454
-0.590789
-0.319563
-0.0429692
0.233974
0.506489
0.769442
1.0177
1.24605
1.44944
1.62317
1.76271
1.86426
1.92479
1.94133
1.91346
1.84014
1.72174
1.56
1.35785
1.11941
0.849953
0.555793
0.244218
-0.0774218
-0.398121
-0.709607
-1.0026
-1.26777
-1.49635
-1.68035
-1.81289
-1.88856
-1.90315
-1.85679
-1.74838
-1.58045
-1.35816
-1.08872
-0.781558
-0.447991
-0.100362
0.246499
0.578836
0.882349
1.14344
1.34992
1.49168
1.5613
1.55469
1.47205
1.31586
1.09348
0.815799
0.496987
0.153083
-0.204954
-0.540502
-0.84242
-1.09347
-1.2784
-1.38524
-1.4063
-1.34731
-1.2055
-0.99213
-0.722749
-0.416622
-0.0955033
0.212869
0.486295
0.703488
0.846837
0.901886
0.880237
0.769564
0.584615
0.344101
0.0697386
-0.210545
-0.46911
-0.681924
-0.82794
-0.893303
-0.871524
-0.76843
-0.597814
-0.381022
-0.143302
0.0852438
0.277687
0.411754
0.47245
0.4551
0.366015
0.22083
0.0430368
-0.140574
-0.299646
-0.412088
-0.461911
-0.444105
-0.365033
-0.240817
-0.0941449
0.0503635
0.166098
0.23642
0.252418
0.215966
0.137813
0.0338465
-0.0823489
-0.178043
-0.245949
-0.277111
-0.268708
-0.226508
-0.161916
-0.0870322
-0.0150649
0.0412932
0.0723527
1.71089
1.6932
1.65864
1.60793
1.54302
1.46724
1.37866
1.27455
1.15695
1.03003
0.896164
0.76014
0.626154
0.499637
0.385415
0.288377
0.213329
0.164641
0.145674
0.158806
0.204959
0.283523
0.392855
0.530567
0.692365
0.873743
1.0667
1.26147
1.45789
1.64672
1.82002
1.9731
2.10482
2.21276
2.29478
2.34989
2.37769
2.37827
2.35204
2.29969
2.22206
2.12012
1.99498
1.84791
1.68023
1.49345
1.28918
1.06918
0.835352
0.589744
0.33457
0.0721915
-0.194925
-0.464122
-0.732614
-0.997779
-1.25656
-1.50601
-1.74313
-1.96495
-2.16852
-2.35096
-2.50952
-2.64157
-2.74477
-2.81692
-2.85622
-2.86106
-2.83043
-2.76443
-2.66214
-2.52393
-2.35084
-2.14437
-1.90657
-1.64023
-1.34867
-1.03575
-0.705996
-0.364481
-0.0163656
0.331852
0.67422
1.00429
1.31555
1.6015
1.85582
2.07245
2.24592
2.37151
2.44514
2.46346
2.42564
2.33054
2.1788
1.97273
1.71607
1.41412
1.07356
0.702293
0.309526
-0.0963534
-0.499485
-0.890339
-1.25724
-1.58867
-1.87364
-2.1022
-2.26579
-2.35744
-2.37264
-2.31049
-2.17051
-1.95627
-1.67419
-1.3336
-0.946425
-0.526841
-0.0907233
0.343643
0.758784
1.13677
1.46062
1.71527
1.8883
1.97066
1.95741
1.84845
1.64799
1.36529
1.01457
0.614685
0.189631
-0.273237
-0.684524
-1.05744
-1.36639
-1.59168
-1.71894
-1.74002
-1.65676
-1.47203
-1.1992
-0.857572
-0.471416
-0.0661371
0.319031
0.658124
0.925154
1.09868
1.16369
1.12705
0.982045
0.74502
0.439735
0.0938667
-0.257389
-0.57947
-0.842272
-1.01997
-1.09649
-1.06196
-0.926774
-0.708239
-0.433607
-0.134834
0.149722
0.38743
0.550213
0.619929
0.591481
0.473247
0.285973
0.0596589
-0.172159
-0.370481
-0.508677
-0.567133
-0.540417
-0.437571
-0.279667
-0.0955354
0.0847774
0.226154
0.309794
0.325472
0.276362
0.1766
0.0458558
-0.0931156
-0.209757
-0.290273
-0.324904
-0.31154
-0.257182
-0.177093
-0.0855018
0.00162106
0.0693957
0.106599
2.34659
2.30419
2.21972
2.0905
1.91293
1.68246
1.39813
1.0638
0.751048
0.462526
0.18516
-0.0744111
-0.309262
-0.510608
-0.673639
-0.795255
-0.873837
-0.908267
-0.897512
-0.840404
-0.734904
-0.579043
-0.373341
-0.116251
0.188911
0.539107
0.924095
1.31155
1.68276
2.00851
2.28986
2.52185
2.70779
2.8524
2.958
3.02496
3.0545
3.04804
3.00707
2.9331
2.82769
2.69243
2.52897
2.33903
2.12442
1.88705
1.62891
1.35221
1.05929
0.752664
0.435004
0.10915
-0.221867
-0.554768
-0.886444
-1.21337
-1.53198
-1.83866
-2.1298
-2.40179
-2.65105
-2.87406
-3.0675
-3.22817
-3.35323
-3.44007
-3.48649
-3.4907
-3.45133
-3.36819
-3.24062
-3.06912
-2.85495
-2.59996
-2.3067
-1.97861
-1.61981
-1.23506
-0.829943
-0.410649
0.0166214
0.443567
0.863037
1.26713
1.64781
1.99718
2.30744
2.57112
2.78165
2.93321
3.02067
3.04062
2.99124
2.87147
2.6823
2.42666
2.10923
1.73664
1.31715
0.860546
0.378135
-0.122095
-0.615993
-1.09416
-1.54242
-1.94658
-2.29326
-2.57027
-2.76713
-2.87571
-2.89079
-2.81032
-2.63472
-2.3685
-2.01983
-1.60014
-1.12423
-0.609649
-0.0753982
0.455105
0.961122
1.42067
1.81304
2.12
2.32643
2.4216
2.39978
2.2608
2.01036
1.66015
1.22759
0.735176
0.208243
-0.337592
-0.844372
-1.29755
-1.67005
-1.939
-2.08761
-2.10651
-1.99598
-1.76281
-1.42346
-1.00204
-0.527967
-0.0272323
0.441453
0.851953
1.17311
1.37953
1.45488
1.39967
1.21479
0.918927
0.54136
0.116245
-0.313097
-0.704676
-1.02166
-1.23282
-1.32015
-1.27039
-1.09901
-0.826853
-0.487955
-0.121755
0.224344
0.511238
0.704616
0.783025
0.741013
0.589696
0.3554
0.0752178
-0.209824
-0.451079
-0.616757
-0.683676
-0.64612
-0.516103
-0.320596
-0.0955709
0.124853
0.293325
0.390644
0.405017
0.341209
0.217344
0.0577555
-0.106864
-0.245334
-0.338783
-0.37648
-0.357169
-0.289361
-0.192575
-0.0831881
0.0199048
0.0996086
0.143195
3.3728
3.32304
3.22895
3.08749
2.89639
2.64538
2.32713
1.99152
1.59119
1.08891
0.661649
0.264806
-0.0988641
-0.420589
-0.69738
-0.923118
-1.09283
-1.20188
-1.24633
-1.22268
-1.12591
-0.953325
-0.706704
-0.380621
0.0193975
0.493264
1.10288
1.62243
2.1371
2.56783
2.92542
3.22731
3.46895
3.65072
3.77421
3.84229
3.8601
3.83262
3.76347
3.65558
3.51137
3.333
3.12247
2.88178
2.61292
2.31806
1.99957
1.65992
1.30184
0.928235
0.54226
0.147298
-0.253087
-0.655184
-1.05506
-1.44867
-1.83175
-2.20004
-2.54925
-2.87509
-3.17332
-3.43975
-3.67043
-3.86159
-4.00982
-4.1121
-4.16579
-4.16883
-4.1197
-4.01766
-3.86247
-3.65472
-3.39592
-3.08835
-2.73507
-2.34027
-1.90887
-1.4466
-0.960188
-0.457094
0.0554773
0.567156
1.06958
1.55325
2.00852
2.42593
2.7961
3.11018
3.36025
3.53924
3.64131
3.66236
3.5999
3.45297
3.22289
2.91326
2.52982
2.08066
1.57584
1.0275
0.449581
-0.15576
-0.745959
-1.31748
-1.8529
-2.33496
-2.74751
-3.07603
-3.3081
-3.43418
-3.44797
-3.34698
-3.13228
-2.8094
-2.38836
-1.88309
-1.31135
-0.69435
-0.0546927
0.579094
1.18247
1.72912
2.19442
2.55665
2.79801
2.90581
2.87363
2.70135
2.39631
1.97265
1.45143
0.859547
0.227361
-0.416045
-1.02092
-1.55924
-1.99919
-2.31397
-2.48407
-2.49893
-2.35829
-2.07197
-1.6603
-1.15313
-0.585155
0.0209962
0.577972
1.064
1.44242
1.68312
1.76734
1.69193
1.46291
1.10281
0.646797
0.136196
-0.376908
-0.842667
-1.21697
-1.4624
-1.55332
-1.49275
-1.28194
-0.951293
-0.54284
-0.10412
0.307866
0.646897
0.872144
0.958715
0.900924
0.713073
0.427639
0.0894815
-0.253298
-0.540068
-0.734361
-0.809348
-0.759089
-0.598986
-0.362547
-0.0944815
0.170401
0.366318
0.477432
0.489596
0.409231
0.259165
0.0690076
-0.123256
-0.284154
-0.390543
-0.430796
-0.404651
-0.322387
-0.208016
-0.0801124
0.0394182
0.131303
0.181373
4.61114
4.54735
4.41677
4.19727
3.85444
3.32491
2.4797
1.24043
0.316664
-0.588221
-1.3076
-1.91952
-2.4268
-2.83828
-3.16018
-3.39679
-3.55159
-3.62649
-3.6214
-3.53494
-3.35818
-3.0816
-2.69927
-2.19276
-1.5412
-0.718109
0.39548
1.68944
2.81222
3.53076
4.01489
4.34518
4.56415
4.69981
4.77144
4.79175
4.76638
4.69724
4.58612
4.43457
4.24409
4.01638
3.75318
3.45649
3.12843
2.77139
2.38796
1.98097
1.55348
1.10882
0.650588
0.182638
-0.290935
-0.765818
-1.23742
-1.70105
-2.15179
-2.58469
-2.99473
-3.37692
-3.72633
-4.03809
-4.30757
-4.5304
-4.70262
-4.82069
-4.8816
-4.88291
-4.8229
-4.70065
-4.51602
-4.26975
-3.96367
-3.60045
-3.18374
-2.71846
-2.21043
-1.66643
-1.09432
-0.50289
0.0992082
0.700169
1.28988
1.85724
2.3909
2.87973
3.31273
3.67955
3.97087
4.17838
4.29537
4.317
4.2402
4.06412
3.7904
3.42337
2.96989
2.43948
1.84421
1.19891
0.521488
-0.195697
-0.886132
-1.55589
-2.1829
-2.7466
-3.22798
-3.61011
-3.87857
-4.02225
-4.03384
-3.91049
-3.65383
-3.27069
-2.77286
-2.17701
-1.50416
-0.779177
-0.0289926
0.713361
1.41873
2.05641
2.59764
3.01712
3.29424
3.41435
3.37018
3.16196
2.79855
2.29701
1.68225
0.986046
0.244169
-0.505052
-1.2112
-1.83789
-2.34766
-2.70949
-2.90095
-2.91007
-2.73683
-2.39355
-1.90503
-1.30753
-0.646955
0.0824642
0.725682
1.28993
1.72772
2.0033
2.09503
1.99791
1.72152
1.29307
0.754027
0.153304
-0.447644
-0.9909
-1.42475
-1.70591
-1.80713
-1.72633
-1.47226
-1.07922
-0.597253
-0.0822348
0.398695
0.791824
1.04961
1.14365
1.06818
0.841022
0.501272
0.102266
-0.301924
-0.635747
-0.859235
-0.941756
-0.877172
-0.684575
-0.404433
-0.0900315
0.218426
0.443556
0.568493
0.577505
0.479128
0.301269
0.0792362
-0.141897
-0.325479
-0.444563
-0.486804
-0.453059
-0.355653
-0.22313
-0.0763425
0.0597772
0.163858
0.220389
5.50142
5.40027
5.19568
4.85017
4.3723
3.73397
2.99042
1.99852
4.04593
4.47589
4.82882
5.13802
5.3953
5.59139
5.71176
5.76825
5.76429
5.70697
5.59928
5.44477
5.2459
5.00487
4.72353
4.40381
4.0477
3.65739
3.23536
2.78437
2.30749
1.80813
1.28999
0.757122
0.213844
-0.335173
-0.884995
-1.43041
-1.96607
-2.48636
-2.98561
-3.45809
-3.8981
-4.29997
-4.65812
-4.96726
-5.22238
-5.41895
-5.55291
-5.62084
-5.61995
-5.54828
-5.40482
-5.18947
-4.90313
-4.54794
-4.12703
-3.64463
-3.10645
-2.51922
-1.89074
-1.2301
-0.547465
0.146966
0.840024
1.51979
2.17342
2.78785
3.35023
3.84785
4.26883
4.6024
4.839
4.97093
4.99266
4.9006
4.69393
4.37465
3.94784
3.42151
2.80667
2.11731
1.37015
0.583835
-0.232514
-1.03235
-1.80476
-2.52639
-3.17405
-3.72603
-4.16292
-4.46821
-4.62923
-4.6378
-4.49061
-4.19002
-3.74405
-3.16657
-2.47682
-1.69932
-0.862978
0.00135692
0.855359
1.6655
2.39648
3.01531
3.49305
3.8061
3.93799
3.88046
3.63435
3.21005
2.62758
1.91597
1.1121
0.257642
-0.601587
-1.41146
-2.12833
-2.70913
-3.11841
-3.33073
-3.33275
-3.12482
-2.72184
-2.15289
-1.46102
-0.703072
0.146662
0.879956
1.52516
2.0236
2.33413
2.43225
2.31202
1.98599
1.4862
0.861233
0.167374
-0.523891
-1.14655
-1.64109
-1.95831
-2.06833
-1.96636
-1.66654
-1.20847
-0.650389
-0.0565617
0.495035
0.943272
1.23372
1.33446
1.23976
0.971243
0.574994
0.113499
-0.354813
-0.73624
-0.989019
-1.07846
-0.99824
-0.771361
-0.445473
-0.0814798
0.267147
0.523598
0.662182
0.667219
0.549678
0.342873
0.0883042
-0.162331
-0.368504
-0.49986
-0.543513
-0.50154
-0.388634
-0.237693
-0.0719745
0.0806037
0.196697
0.25956
7.10102
7.06162
6.99112
6.88471
6.7673
6.64785
6.54016
6.47834
6.65902
6.66887
6.78009
6.82175
6.87026
6.8995
6.89853
6.86776
6.79593
6.68074
6.52035
6.31507
6.06502
5.77115
5.43473
5.05729
4.6407
4.18711
3.69911
3.17962
2.63198
2.05988
1.46743
0.859105
0.239632
-0.38558
-1.01108
-1.63101
-2.23938
-2.82984
-3.39603
-3.93147
-4.42974
-4.88444
-5.28926
-5.63826
-5.92575
-6.14663
-6.29634
-6.37099
-6.36753
-6.28363
-6.11832
-5.87148
-5.5442
-5.13895
-4.65931
-4.11012
-3.49786
-2.8302
-2.11598
-1.36554
-0.590398
0.197715
0.984111
1.75514
2.49619
3.19242
3.82922
4.39221
4.86786
5.24398
5.5098
5.65655
5.67793
5.56996
5.33182
4.96586
4.47796
3.87721
3.17631
2.39122
1.54069
0.645897
-0.275366
-1.18403
-2.06018
-2.87753
-3.61
-4.23313
-4.72498
-5.06698
-5.24492
-5.24966
-5.07768
-4.73196
-4.22163
-3.56292
-2.77769
-1.89395
-0.944807
0.0358979
1.00246
1.91835
2.74339
3.44025
3.97628
4.32495
4.46792
4.39612
4.11072
3.62407
2.95905
2.14898
1.23605
0.267446
-0.703514
-1.6179
-2.42541
-3.07731
-3.53373
-3.7662
-3.75998
-3.51595
-3.05155
-2.40009
-1.61017
-0.740983
0.200143
1.03711
1.76543
2.32486
2.66996
2.77348
2.62904
2.25197
1.67915
0.966623
0.17855
-0.604083
-1.30678
-1.86211
-2.215
-2.33257
-2.20864
-1.86166
-1.33701
-0.701236
-0.0280659
0.595017
1.0985
1.42124
1.52787
1.4128
1.10159
0.647654
0.123424
-0.411166
-0.839633
-1.1214
-1.21713
-1.12028
-0.857987
-0.485247
-0.0713495
0.317918
0.605211
0.756942
0.757297
0.619803
0.383407
0.0961035
-0.184099
-0.412444
-0.555509
-0.60003
-0.549345
-0.420893
-0.251536
-0.0671264
0.101545
0.229303
0.298289
8.73914
8.71947
8.68548
8.62687
8.56265
8.47694
8.39306
8.31648
7.8561
7.90889
7.99938
8.04499
8.06918
8.06192
8.01359
7.9305
7.80654
7.64055
7.43005
7.17456
6.87336
6.52683
6.13559
5.70085
5.22424
4.70789
4.15443
3.56695
2.94902
2.30466
1.63835
0.955019
0.259799
-0.441134
-1.14184
-1.83583
-2.51643
-3.1766
-3.80926
-4.40723
-4.96333
-5.47044
-5.92155
-6.31
-6.62949
-6.87431
-7.03939
-7.12042
-7.1139
-7.01762
-6.83018
-6.55162
-6.18319
-5.72772
-5.18926
-4.57324
-3.88691
-3.13886
-2.33898
-1.49884
-0.631334
0.250352
1.12992
1.99202
2.82027
3.59809
4.3091
4.93719
5.46723
5.8856
6.18031
6.34158
6.36224
6.23801
5.96804
5.55506
5.00572
4.33026
3.54306
2.66215
1.70838
0.706015
-0.322273
-1.33878
-2.31811
-3.23073
-4.04754
-4.74127
-5.2875
-5.66559
-5.85983
-5.86012
-5.66283
-5.27143
-4.6964
-3.95603
-3.07517
-2.08517
-1.02328
0.0731129
1.15196
2.1731
3.09156
3.86575
4.45926
4.84282
4.99607
4.90933
4.58411
4.03458
3.28672
2.37806
1.35603
0.273765
-0.808616
-1.82692
-2.72424
-3.44636
-3.949
-4.20067
-4.18535
-3.9045
-3.37796
-2.64352
-1.75508
-0.777029
0.258282
1.19599
2.00701
2.62677
3.00555
3.1136
2.94427
2.51551
1.86928
1.06875
0.18706
-0.686677
-1.46884
-2.08422
-2.4719
-2.59593
-2.4495
-2.05476
-1.4631
-0.749618
0.00279961
0.696854
1.25491
1.60916
1.72089
1.58471
1.2302
0.718244
0.132621
-0.47043
-0.944061
-1.25422
-1.35561
-1.24148
-0.94326
-0.523412
-0.0600494
0.369981
0.687159
0.85134
0.846441
0.688574
0.422371
0.102656
-0.206745
-0.456569
-0.610678
-0.655576
-0.595848
-0.452079
-0.264543
-0.0619225
0.122288
0.261236
0.336069
10.2548
10.2427
10.2218
10.1841
10.1475
10.0964
10.0571
10.028
9.24889
9.2125
9.24242
9.2339
9.20624
9.15374
9.06392
8.93849
8.77142
8.56161
8.30622
8.00442
7.65523
7.25854
6.81468
6.3246
5.7898
5.21238
4.59509
3.94121
3.25455
2.53946
1.80082
1.04393
0.274596
-0.50059
-1.27502
-2.04159
-2.79298
-3.52147
-4.21928
-4.8785
-5.49125
-6.0497
-6.5461
-6.97313
-7.32383
-7.59195
-7.77191
-7.85897
-7.84934
-7.74038
-7.53082
-7.22072
-6.81154
-6.30642
-5.70987
-5.02791
-4.26855
-3.44127
-2.55701
-1.62852
-0.670021
0.30383
1.27513
2.22688
3.14097
3.99908
4.78307
5.47516
6.05862
6.51839
6.8413
7.01661
7.03629
6.89571
6.59405
6.1344
5.52412
4.77475
3.90231
2.92673
1.87129
0.763113
-0.371765
-1.49407
-2.57472
-3.58092
-4.48048
-5.24336
-5.84269
-6.25584
-6.4656
-6.461
-6.23826
-5.8013
-5.16217
-4.34096
-3.3656
-2.27072
-1.09769
0.112058
1.30145
2.42597
3.43603
4.28583
4.9354
5.35265
5.51544
5.41328
5.04829
4.43637
3.60654
2.6005
1.47092
0.277098
-0.915031
-2.03526
-3.02045
-3.81106
-4.35847
-4.62828
-4.60331
-4.28543
-3.69717
-2.88034
-1.89487
-0.81127
0.319902
1.35465
2.24651
2.92507
3.33633
3.4481
3.25356
2.77328
2.05436
1.1667
0.193045
-0.770229
-1.63025
-2.30419
-2.7254
-2.855
-2.68577
-2.24345
-1.58536
-0.794852
0.0350023
0.798881
1.41018
1.79483
1.9109
1.75326
1.35551
0.785895
0.141674
-0.53203
-1.04778
-1.38556
-1.492
-1.36028
-1.02619
-0.559672
-0.04782
0.422432
0.768292
0.944122
0.933541
0.755219
0.459446
0.107997
-0.229833
-0.500232
-0.664654
-0.709511
-0.64055
-0.481927
-0.276644
-0.0564864
0.142564
0.292135
0.372496
11.6299
11.6219
11.6095
11.5855
11.5662
11.5366
11.5193
11.5053
10.4064
10.3563
10.3585
10.3206
10.2586
10.1715
10.047
9.88593
9.68219
9.4341
9.1387
8.79487
8.40135
7.95784
7.46438
6.92176
6.33137
5.69538
5.01667
4.29876
3.54574
2.7623
1.95368
1.1256
0.284463
-0.562628
-1.40845
-2.24531
-3.06526
-3.85991
-4.62082
-5.33935
-6.00697
-6.61511
-7.15535
-7.61967
-8.0005
-8.29105
-8.48525
-8.57795
-8.56507
-8.4435
-8.21213
-7.87112
-7.42206
-6.86847
-6.2153
-5.46909
-4.63861
-3.73422
-2.76783
-1.75335
-0.706323
0.357215
1.41775
2.45669
3.45429
4.39046
5.2454
5.99966
6.63496
7.13485
7.48498
7.67374
7.69225
7.53549
7.20269
6.69726
6.02738
5.2058
4.25013
3.18222
2.02779
0.816536
-0.422556
-1.64761
-2.82666
-3.92368
-4.9035
-5.73335
-6.38397
-6.83077
-7.05522
-7.04538
-6.7974
-6.31566
-5.61378
-4.71368
-3.64598
-2.44889
-1.16753
0.151865
1.44884
2.6737
3.77252
4.69546
5.39909
5.84851
6.0201
5.90242
5.49815
4.82513
3.91522
2.81422
1.58005
0.277608
-1.02105
-2.24009
-3.31029
-4.16696
-4.75731
-5.04415
-5.00916
-4.65462
-4.00584
-3.10846
-2.02825
-0.843059
0.382965
1.51102
2.48098
3.21615
3.65841
3.77319
3.55347
3.0226
2.23258
1.25987
0.196639
-0.853422
-1.78885
-2.51927
-2.97245
-3.10683
-2.91485
-2.42574
-1.70266
-0.837115
0.0681795
0.899643
1.5623
1.97598
2.09571
1.9166
1.47626
0.849855
0.147346
-0.591613
-1.14922
-1.51381
-1.62472
-1.47538
-1.10597
-0.593783
-0.0349421
0.474446
0.847609
1.03423
1.01769
0.819132
0.494365
0.112259
-0.252967
-0.542883
-0.716854
-0.761325
-0.683077
-0.510245
-0.287807
-0.0509329
0.162156
0.321721
0.407263
12.8645
12.859
12.8513
12.835
12.8236
12.804
12.7949
12.7845
11.4405
11.38
11.3655
11.3086
11.2233
11.1106
10.959
10.7688
10.5341
10.2528
9.92188
9.54014
9.10618
8.61946
8.07986
7.48789
6.845
6.1534
5.41618
4.63717
3.82074
2.97193
2.09636
1.20002
0.290042
-0.625964
-1.54022
-2.44443
-3.33008
-4.18814
-5.00953
-5.78494
-6.50513
-7.16091
-7.74316
-8.24318
-8.6528
-8.96475
-9.17244
-9.27038
-9.2543
-9.12021
-8.8676
-8.49661
-8.009
-7.40862
-6.70084
-5.89272
-4.99374
-4.01509
-2.96965
-1.87239
-0.740133
0.409726
1.55612
2.67899
3.75695
4.76822
5.69141
6.5054
7.19053
7.72888
8.10502
8.30658
8.3238
8.15119
7.78812
7.23836
6.51081
5.61948
4.58341
3.42643
2.17655
0.865998
-0.473518
-1.79745
-3.07113
-4.25541
-5.31224
-6.2063
-6.90595
-7.38477
-7.62301
-7.60774
-7.33494
-6.80978
-6.04714
-5.07086
-3.91412
-2.61835
-1.23274
0.192084
1.59242
2.91363
4.09755
5.09054
5.84577
6.32566
6.50527
6.37225
5.92969
5.19747
4.21025
3.01771
1.68276
0.27565
-1.12516
-2.43907
-3.59067
-4.51046
-5.14163
-5.44431
-5.39913
-5.00885
-4.30129
-3.32619
-2.15445
-0.8719
0.445921
1.66326
2.70792
3.49705
3.96863
4.08579
3.84131
3.26135
2.40248
1.34772
0.198206
-0.935096
-1.94283
-2.72718
-3.21062
-3.34906
-3.13465
-2.60012
-1.8142
-0.876189
0.101617
0.997899
1.70961
2.15077
2.27352
2.07328
1.5915
0.909724
0.145376
-0.643975
-1.24722
-1.63766
-1.7525
-1.58575
-1.182