/*--------------------------------*- C++ -*----------------------------------*\
  =========                 |
  \\      /  F ield         | OpenFOAM: The Open Source CFD Toolbox
   \\    /   O peration     | Website:  https://openfoam.org
    \\  /    A nd           | Version:  12
     \\/     M anipulation  |
\*---------------------------------------------------------------------------*/
FoamFile
{
    format      ascii;
    class       volVectorField;
    location    "12.8";
    object      zeta;
}
// * * * * * * * * * * * * * * * * * * * * * * * * * * * * * * * * * * * * * //

dimensions      [0 1 0 0 0 0 0];

internalField   uniform (0 0 0);

boundaryField
{
    freeSurface
    {
        type            calculated;
        value           nonuniform List<vector> 
181
(
(0 0.00165496 0)
(0 0.00165547 0)
(0 0.00165496 0)
(0 0.00165334 0)
(0 0.00165253 0)
(0 0.00164998 0)
(0 0.00164965 0)
(0 0.00164681 0)
(0 0.00146059 0)
(0 0.00145273 0)
(0 0.00145001 0)
(0 0.00143709 0)
(0 0.00142749 0)
(0 0.00140931 0)
(0 0.00138961 0)
(0 0.00136296 0)
(0 0.00133213 0)
(0 0.00129449 0)
(0 0.00125114 0)
(0 0.00120145 0)
(0 0.00114561 0)
(0 0.00108342 0)
(0 0.00101474 0)
(0 0.00093939 0)
(0 0.000857665 0)
(0 0.00076973 0)
(0 0.000676116 0)
(0 0.000577484 0)
(0 0.000474291 0)
(0 0.000367124 0)
(0 0.00025667 0)
(0 0.000143647 0)
(0 2.90115e-05 0)
(0 -8.62746e-05 0)
(0 -0.000201149 0)
(0 -0.000314666 0)
(0 -0.000425775 0)
(0 -0.000533325 0)
(0 -0.000636288 0)
(0 -0.000733369 0)
(0 -0.000823452 0)
(0 -0.000905442 0)
(0 -0.000978165 0)
(0 -0.00104049 0)
(0 -0.00109129 0)
(0 -0.00112984 0)
(0 -0.00115522 0)
(0 -0.0011667 0)
(0 -0.00116383 0)
(0 -0.00114609 0)
(0 -0.00111353 0)
(0 -0.00106603 0)
(0 -0.00100386 0)
(0 -0.000927617 0)
(0 -0.000837978 0)
(0 -0.000735739 0)
(0 -0.000622158 0)
(0 -0.000498608 0)
(0 -0.000366782 0)
(0 -0.000228389 0)
(0 -8.56263e-05 0)
(0 5.92171e-05 0)
(0 0.00020352 0)
(0 0.000344838 0)
(0 0.000480472 0)
(0 0.000607566 0)
(0 0.000723493 0)
(0 0.000825534 0)
(0 0.000911278 0)
(0 0.00097834 0)
(0 0.0010249 0)
(0 0.00104946 0)
(0 0.00105064 0)
(0 0.00102785 0)
(0 0.000981003 0)
(0 0.000910652 0)
(0 0.000817852 0)
(0 0.000704537 0)
(0 0.000572962 0)
(0 0.000426394 0)
(0 0.000268327 0)
(0 0.000102739 0)
(0 -6.5626e-05 0)
(0 -0.000232358 0)
(0 -0.000392454 0)
(0 -0.000540971 0)
(0 -0.000673207 0)
(0 -0.000784758 0)
(0 -0.000871584 0)
(0 -0.000930409 0)
(0 -0.000958847 0)
(0 -0.000955297 0)
(0 -0.000919407 0)
(0 -0.000851781 0)
(0 -0.000754406 0)
(0 -0.000630333 0)
(0 -0.000483837 0)
(0 -0.000320006 0)
(0 -0.00014527 0)
(0 3.35127e-05 0)
(0 0.000209263 0)
(0 0.000374667 0)
(0 0.000522409 0)
(0 0.000645847 0)
(0 0.000739045 0)
(0 0.000797428 0)
(0 0.000818089 0)
(0 0.000799316 0)
(0 0.000741686 0)
(0 0.000647904 0)
(0 0.000522382 0)
(0 0.000371381 0)
(0 0.000202895 0)
(0 2.61798e-05 0)
(0 -0.000149156 0)
(0 -0.000313353 0)
(0 -0.000456532 0)
(0 -0.000570219 0)
(0 -0.00064733 0)
(0 -0.000682901 0)
(0 -0.00067476 0)
(0 -0.000623303 0)
(0 -0.000532131 0)
(0 -0.000407694 0)
(0 -0.000258854 0)
(0 -9.67097e-05 0)
(0 6.65725e-05 0)
(0 0.00021927 0)
(0 0.000349406 0)
(0 0.000446813 0)
(0 0.000503939 0)
(0 0.000516291 0)
(0 0.000483189 0)
(0 0.000408113 0)
(0 0.000298362 0)
(0 0.000164392 0)
(0 1.95813e-05 0)
(0 -0.000122315 0)
(0 -0.000248083 0)
(0 -0.000345043 0)
(0 -0.000403688 0)
(0 -0.000418751 0)
(0 -0.000389482 0)
(0 -0.000320233 0)
(0 -0.000219849 0)
(0 -0.000100797 0)
(0 2.18337e-05 0)
(0 0.000133891 0)
(0 0.000221925 0)
(0 0.000275419 0)
(0 0.000288587 0)
(0 0.000261159 0)
(0 0.000198569 0)
(0 0.00011107 0)
(0 1.24029e-05 0)
(0 -8.1992e-05 0)
(0 -0.000158843 0)
(0 -0.000206824 0)
(0 -0.000219546 0)
(0 -0.00019673 0)
(0 -0.000144379 0)
(0 -7.3411e-05 0)
(0 2.62449e-06 0)
(0 7.0282e-05 0)
(0 0.000118941 0)
(0 0.000141876 0)
(0 0.0001374 0)
(0 0.000108666 0)
(0 6.35903e-05 0)
(0 1.23477e-05 0)
(0 -3.57527e-05 0)
(0 -7.27929e-05 0)
(0 -9.39859e-05 0)
(0 -9.80887e-05 0)
(0 -8.60281e-05 0)
(0 -6.29399e-05 0)
(0 -3.33368e-05 0)
(0 -2.71325e-06 0)
(0 2.43629e-05 0)
(0 4.43938e-05 0)
(0 5.50486e-05 0)
)
;
    }
    walls
    {
        type            calculated;
        value           uniform (0 0 0);
    }
    floatingObject
    {
        type            calculated;
        value           uniform (0 0 0);
    }
    frontAndBack
    {
        type            empty;
    }
}


// ************************************************************************* //
