/*--------------------------------*- C++ -*----------------------------------*\
  =========                 |
  \\      /  F ield         | OpenFOAM: The Open Source CFD Toolbox
   \\    /   O peration     | Website:  https://openfoam.org
    \\  /    A nd           | Version:  12
     \\/     M anipulation  |
\*---------------------------------------------------------------------------*/
FoamFile
{
    format      ascii;
    class       volVectorField;
    location    "12.08";
    object      U;
}
// * * * * * * * * * * * * * * * * * * * * * * * * * * * * * * * * * * * * * //

dimensions      [0 1 -1 0 0 0 0];

internalField   nonuniform List<vector> 
3829
(
(7.88759e-07 -0.000260749 0)
(1.73862e-06 -0.00027025 0)
(3.26978e-06 -0.000269912 0)
(4.4399e-06 -0.000269159 0)
(5.63095e-06 -0.000268157 0)
(6.62865e-06 -0.000266889 0)
(7.44647e-06 -0.000265364 0)
(7.93577e-06 -0.000263576 0)
(8.02101e-06 -0.000261505 0)
(7.70079e-06 -0.000259135 0)
(7.12811e-06 -0.000256457 0)
(6.28669e-06 -0.000253476 0)
(5.15861e-06 -0.000250197 0)
(3.86559e-06 -0.000246635 0)
(2.39044e-06 -0.000242801 0)
(7.42237e-07 -0.000238723 0)
(-1.05312e-06 -0.000234422 0)
(-2.93757e-06 -0.00022993 0)
(-4.84719e-06 -0.000225285 0)
(-6.70179e-06 -0.000220518 0)
(-8.42917e-06 -0.000215665 0)
(-9.97556e-06 -0.000210736 0)
(-1.13782e-05 -0.000205745 0)
(-1.23949e-05 -0.000200655 0)
(-1.27689e-05 -0.000195489 0)
(-1.22242e-05 -0.000190278 0)
(-1.08451e-05 -0.000185102 0)
(-8.63636e-06 -0.00018 0)
(-5.33687e-06 -0.000175002 0)
(-1.12202e-06 -0.000170141 0)
(3.97644e-06 -0.000165395 0)
(1.00753e-05 -0.00016075 0)
(1.70295e-05 -0.000156172 0)
(2.4973e-05 -0.000151643 0)
(3.37005e-05 -0.000147126 0)
(4.31721e-05 -0.000142531 0)
(5.34961e-05 -0.000137883 0)
(6.43199e-05 -0.000133089 0)
(7.56879e-05 -0.000128132 0)
(8.75466e-05 -0.000122952 0)
(9.97166e-05 -0.000117558 0)
(0.000112082 -0.000111928 0)
(0.000124543 -0.000106029 0)
(0.000136932 -9.98634e-05 0)
(0.000149089 -9.34431e-05 0)
(0.000160796 -8.6767e-05 0)
(0.000171899 -7.98451e-05 0)
(0.000182185 -7.26957e-05 0)
(0.00019148 -6.53408e-05 0)
(0.000199642 -5.77868e-05 0)
(0.000206277 -5.0115e-05 0)
(0.000211564 -4.22665e-05 0)
(0.000215146 -3.44258e-05 0)
(0.0002168 -2.64868e-05 0)
(0.000216122 -1.86334e-05 0)
(0.000213127 -1.07926e-05 0)
(0.000208025 -3.19942e-06 0)
(0.000200278 4.23635e-06 0)
(0.000190263 1.1361e-05 0)
(0.000178091 1.82112e-05 0)
(0.00016381 2.45839e-05 0)
(0.000147102 3.05159e-05 0)
(0.00012841 3.59802e-05 0)
(0.000107975 4.085e-05 0)
(8.56178e-05 4.51026e-05 0)
(6.17809e-05 4.86517e-05 0)
(3.67379e-05 5.1493e-05 0)
(1.07387e-05 5.3532e-05 0)
(-1.63318e-05 5.47612e-05 0)
(-4.37548e-05 5.513e-05 0)
(-7.10717e-05 5.45898e-05 0)
(-9.8018e-05 5.31823e-05 0)
(-0.000123915 5.09261e-05 0)
(-0.000148858 4.77326e-05 0)
(-0.000172056 4.38161e-05 0)
(-0.000193034 3.89813e-05 0)
(-0.000211528 3.34821e-05 0)
(-0.000227354 2.72515e-05 0)
(-0.000239811 2.05677e-05 0)
(-0.000248706 1.33367e-05 0)
(-0.000253947 5.82419e-06 0)
(-0.000254772 -1.92832e-06 0)
(-0.000251099 -9.75927e-06 0)
(-0.000242911 -1.75068e-05 0)
(-0.000230293 -2.50689e-05 0)
(-0.000213248 -3.22748e-05 0)
(-0.000192062 -3.89664e-05 0)
(-0.000167118 -4.50052e-05 0)
(-0.000138844 -5.02385e-05 0)
(-0.000107533 -5.45158e-05 0)
(-7.3739e-05 -5.77171e-05 0)
(-3.80985e-05 -5.97376e-05 0)
(-1.32097e-06 -6.05058e-05 0)
(3.58433e-05 -5.99476e-05 0)
(7.25587e-05 -5.80619e-05 0)
(0.000107966 -5.48427e-05 0)
(0.000141257 -5.03326e-05 0)
(0.000171524 -4.46159e-05 0)
(0.000198008 -3.77894e-05 0)
(0.000219922 -3.00217e-05 0)
(0.000236635 -2.14581e-05 0)
(0.000247605 -1.23443e-05 0)
(0.000252419 -2.89918e-06 0)
(0.000250397 6.62776e-06 0)
(0.000241412 1.5991e-05 0)
(0.00022585 2.48841e-05 0)
(0.000204119 3.31248e-05 0)
(0.00017677 4.03363e-05 0)
(0.00014437 4.64074e-05 0)
(0.000107904 5.0981e-05 0)
(6.83772e-05 5.40377e-05 0)
(2.68722e-05 5.52813e-05 0)
(-1.53656e-05 5.47656e-05 0)
(-5.67334e-05 5.24754e-05 0)
(-9.58917e-05 4.84387e-05 0)
(-0.000131508 4.27995e-05 0)
(-0.000162357 3.57392e-05 0)
(-0.000187253 2.75193e-05 0)
(-0.000205214 1.84401e-05 0)
(-0.000215833 8.84769e-06 0)
(-0.000218155 -8.37553e-07 0)
(-0.000212072 -1.02733e-05 0)
(-0.000198184 -1.89889e-05 0)
(-0.000177061 -2.66892e-05 0)
(-0.000149829 -3.30173e-05 0)
(-0.000117691 -3.76172e-05 0)
(-8.20665e-05 -4.02849e-05 0)
(-4.48121e-05 -4.09506e-05 0)
(-7.70616e-06 -3.94769e-05 0)
(2.7385e-05 -3.60306e-05 0)
(5.84816e-05 -3.07696e-05 0)
(8.40207e-05 -2.396e-05 0)
(0.000102663 -1.60383e-05 0)
(0.000113412 -7.39292e-06 0)
(0.00011549 1.37966e-06 0)
(0.000108657 9.79639e-06 0)
(9.36511e-05 1.73585e-05 0)
(7.1561e-05 2.35818e-05 0)
(4.40235e-05 2.81673e-05 0)
(1.22669e-05 3.0557e-05 0)
(-2.12142e-05 3.08115e-05 0)
(-5.3275e-05 2.8772e-05 0)
(-8.21719e-05 2.46392e-05 0)
(-0.000105704 1.8709e-05 0)
(-0.000121957 1.13698e-05 0)
(-0.000129749 3.19505e-06 0)
(-0.000127819 -5.15574e-06 0)
(-0.000116169 -1.31603e-05 0)
(-9.58066e-05 -2.00777e-05 0)
(-6.82658e-05 -2.55078e-05 0)
(-3.54854e-05 -2.8841e-05 0)
(5.95431e-07 -2.99302e-05 0)
(3.64885e-05 -2.85597e-05 0)
(6.90396e-05 -2.49047e-05 0)
(9.60475e-05 -1.93205e-05 0)
(0.000115302 -1.23514e-05 0)
(0.000125253 -4.5433e-06 0)
(0.000125111 3.26499e-06 0)
(0.000114905 1.04636e-05 0)
(9.61536e-05 1.63734e-05 0)
(7.08449e-05 2.04863e-05 0)
(4.15118e-05 2.24219e-05 0)
(1.09189e-05 2.21088e-05 0)
(-1.78011e-05 1.96267e-05 0)
(-4.16915e-05 1.54112e-05 0)
(-5.88834e-05 1.00306e-05 0)
(-6.80576e-05 4.12805e-06 0)
(-6.88375e-05 -1.53669e-06 0)
(-6.19044e-05 -6.36218e-06 0)
(-4.9021e-05 -9.77621e-06 0)
(-3.24005e-05 -1.15084e-05 0)
(-1.46884e-05 -1.14553e-05 0)
(1.57384e-06 -9.76623e-06 0)
(1.42259e-05 -6.9106e-06 0)
(2.1803e-05 -3.42093e-06 0)
(2.37595e-05 7.21323e-08 0)
(2.04742e-05 2.99899e-06 0)
(1.33051e-05 4.93191e-06 0)
(3.83187e-06 5.60663e-06 0)
(-5.4613e-06 4.96349e-06 0)
(-1.25004e-05 3.30826e-06 0)
(-1.59292e-05 1.02139e-06 0)
(-1.51617e-05 -1.37054e-06 0)
(-1.04983e-05 -3.39369e-06 0)
(-2.80084e-06 -4.63548e-06 0)
(6.31661e-06 -4.84662e-06 0)
(1.46812e-05 -3.87524e-06 0)
(2.01391e-05 -2.00119e-06 0)
(2.15404e-05 4.59106e-07 0)
(1.80295e-05 3.01356e-06 0)
(1.00873e-05 5.22416e-06 0)
(-1.70344e-06 6.62869e-06 0)
(-1.53184e-05 6.97164e-06 0)
(-2.81496e-05 6.09937e-06 0)
(-3.84194e-05 4.15343e-06 0)
(-4.40098e-05 1.40598e-06 0)
(-4.37151e-05 -1.70073e-06 0)
(-3.71252e-05 -4.67223e-06 0)
(-2.4948e-05 -7.01144e-06 0)
(-8.80768e-06 -8.31232e-06 0)
(2.59423e-06 0.000217727 0)
(8.43098e-06 0.000224716 0)
(1.42347e-05 0.000225833 0)
(1.9897e-05 0.000227362 0)
(2.53808e-05 0.000229368 0)
(3.06485e-05 0.000231781 0)
(3.56143e-05 0.000234536 0)
(4.03831e-05 0.000237507 0)
(4.49577e-05 0.000240551 0)
(4.92311e-05 0.000243502 0)
(5.3169e-05 0.00024608 0)
(5.66652e-05 0.00024821 0)
(5.96122e-05 0.000249686 0)
(6.20789e-05 0.000250447 0)
(6.39834e-05 0.000250262 0)
(6.52606e-05 0.000249102 0)
(6.59085e-05 0.000246755 0)
(6.58795e-05 0.000243187 0)
(6.52642e-05 0.000238319 0)
(6.41727e-05 0.000232134 0)
(6.28497e-05 0.000224593 0)
(6.15241e-05 0.000215697 0)
(6.04959e-05 0.000205465 0)
(5.9943e-05 0.000193931 0)
(5.96357e-05 0.000181172 0)
(5.94774e-05 0.000167232 0)
(5.93401e-05 0.000152275 0)
(5.95917e-05 0.000136436 0)
(6.05553e-05 0.000120004 0)
(6.24006e-05 0.000103266 0)
(6.54015e-05 8.65332e-05 0)
(6.97428e-05 7.00523e-05 0)
(7.52992e-05 5.3969e-05 0)
(8.21965e-05 3.85238e-05 0)
(9.06628e-05 2.38199e-05 0)
(0.000100253 9.97221e-06 0)
(0.000111069 -2.8465e-06 0)
(0.000123026 -1.454e-05 0)
(0.000135961 -2.49624e-05 0)
(0.000149655 -3.39646e-05 0)
(0.000163703 -4.14252e-05 0)
(0.000178227 -4.72074e-05 0)
(0.000192966 -5.13055e-05 0)
(0.000207494 -5.35943e-05 0)
(0.000221677 -5.4074e-05 0)
(0.000235309 -5.27293e-05 0)
(0.000248131 -4.95731e-05 0)
(0.000259874 -4.46548e-05 0)
(0.000270428 -3.80889e-05 0)
(0.000279357 -2.98882e-05 0)
(0.000286605 -2.02226e-05 0)
(0.000291851 -9.19616e-06 0)
(0.000294974 2.86822e-06 0)
(0.000295789 1.60569e-05 0)
(0.000293719 2.99125e-05 0)
(0.000288575 4.45299e-05 0)
(0.000280654 5.94805e-05 0)
(0.000269845 7.47394e-05 0)
(0.000256267 8.99191e-05 0)
(0.000239831 0.000104939 0)
(0.000220602 0.000119263 0)
(0.0001991 0.00013297 0)
(0.000175025 0.000145533 0)
(0.000148656 0.000156855 0)
(0.000120013 0.000166549 0)
(8.9628e-05 0.000174565 0)
(5.77614e-05 0.000180582 0)
(2.46581e-05 0.000184428 0)
(-9.60561e-06 0.000185961 0)
(-4.44683e-05 0.000185104 0)
(-7.90784e-05 0.000181697 0)
(-0.000112916 0.000175779 0)
(-0.000145822 0.000167238 0)
(-0.000177113 0.000156176 0)
(-0.000206427 0.000142691 0)
(-0.000233163 0.000126814 0)
(-0.000256551 0.000108807 0)
(-0.000276356 8.87998e-05 0)
(-0.000292003 6.71857e-05 0)
(-0.000303378 4.41238e-05 0)
(-0.000309899 2.01498e-05 0)
(-0.000311235 -4.51241e-06 0)
(-0.000306902 -2.92469e-05 0)
(-0.000297123 -5.38474e-05 0)
(-0.000281985 -7.75678e-05 0)
(-0.000261335 -0.000100258 0)
(-0.000235611 -0.000121174 0)
(-0.000205242 -0.000140082 0)
(-0.000170646 -0.000156367 0)
(-0.00013226 -0.000169651 0)
(-9.08154e-05 -0.000179545 0)
(-4.71283e-05 -0.000185758 0)
(-2.02226e-06 -0.00018806 0)
(4.35184e-05 -0.000186228 0)
(8.84401e-05 -0.000180224 0)
(0.000131752 -0.000170089 0)
(0.00017238 -0.000155936 0)
(0.000209266 -0.000138032 0)
(0.000241419 -0.000116684 0)
(0.000267946 -9.2385e-05 0)
(0.000288026 -6.56911e-05 0)
(0.000300943 -3.72584e-05 0)
(0.000306322 -7.8469e-06 0)
(0.000303451 2.17445e-05 0)
(0.0002921 5.07623e-05 0)
(0.000272879 7.83621e-05 0)
(0.000246051 0.000103718 0)
(0.000212401 0.000126062 0)
(0.000172604 0.000144525 0)
(0.000127913 0.000158578 0)
(7.95342e-05 0.000167673 0)
(2.87537e-05 0.00017132 0)
(-2.24497e-05 0.000169452 0)
(-7.25469e-05 0.000161944 0)
(-0.000119809 0.00014917 0)
(-0.000162542 0.000131342 0)
(-0.000199271 0.000109183 0)
(-0.000228573 8.34611e-05 0)
(-0.000249305 5.50664e-05 0)
(-0.000260834 2.52066e-05 0)
(-0.000262279 -4.90636e-06 0)
(-0.000253485 -3.40812e-05 0)
(-0.00023521 -6.10828e-05 0)
(-0.000208343 -8.47927e-05 0)
(-0.000173926 -0.000104057 0)
(-0.000133542 -0.000118037 0)
(-8.92667e-05 -0.000125918 0)
(-4.31186e-05 -0.000127515 0)
(2.61815e-06 -0.000122536 0)
(4.54667e-05 -0.00011148 0)
(8.32721e-05 -9.472e-05 0)
(0.000113937 -7.33508e-05 0)
(0.000135926 -4.84825e-05 0)
(0.000147987 -2.14853e-05 0)
(0.000149222 5.87024e-06 0)
(0.000139658 3.21856e-05 0)
(0.000120097 5.56099e-05 0)
(9.20632e-05 7.49804e-05 0)
(5.71127e-05 8.87091e-05 0)
(1.7184e-05 9.62089e-05 0)
(-2.44602e-05 9.65296e-05 0)
(-6.44246e-05 8.9991e-05 0)
(-0.000100155 7.68203e-05 0)
(-0.000129154 5.80997e-05 0)
(-0.000149067 3.50987e-05 0)
(-0.000158299 9.57012e-06 0)
(-0.000155754 -1.65349e-05 0)
(-0.000141371 -4.13138e-05 0)
(-0.000116425 -6.28357e-05 0)
(-8.27395e-05 -7.94027e-05 0)
(-4.27154e-05 -8.95465e-05 0)
(1.02895e-06 -9.26232e-05 0)
(4.44777e-05 -8.80258e-05 0)
(8.35764e-05 -7.65248e-05 0)
(0.000115582 -5.90077e-05 0)
(0.000138039 -3.71965e-05 0)
(0.000149011 -1.30086e-05 0)
(0.000147684 1.12285e-05 0)
(0.000134401 3.33885e-05 0)
(0.000110896 5.14749e-05 0)
(7.96482e-05 6.3825e-05 0)
(4.38598e-05 6.94523e-05 0)
(6.96941e-06 6.80353e-05 0)
(-2.71835e-05 6.00241e-05 0)
(-5.49902e-05 4.66687e-05 0)
(-7.43457e-05 2.9743e-05 0)
(-8.37321e-05 1.138e-05 0)
(-8.28938e-05 -6.1827e-06 0)
(-7.28229e-05 -2.09269e-05 0)
(-5.57669e-05 -3.12802e-05 0)
(-3.45838e-05 -3.62392e-05 0)
(-1.24702e-05 -3.56844e-05 0)
(7.3125e-06 -3.00514e-05 0)
(2.21521e-05 -2.08794e-05 0)
(3.04293e-05 -9.83161e-06 0)
(3.16031e-05 1.08416e-06 0)
(2.63471e-05 1.01715e-05 0)
(1.64246e-05 1.60333e-05 0)
(3.87748e-06 1.79313e-05 0)
(-8.1347e-06 1.57197e-05 0)
(-1.70397e-05 1.03453e-05 0)
(-2.12587e-05 3.07733e-06 0)
(-2.01361e-05 -4.53337e-06 0)
(-1.41377e-05 -1.08196e-05 0)
(-4.40582e-06 -1.46792e-05 0)
(7.1364e-06 -1.53022e-05 0)
(1.77352e-05 -1.22661e-05 0)
(2.47423e-05 -6.39203e-06 0)
(2.68083e-05 1.21744e-06 0)
(2.29802e-05 9.15029e-06 0)
(1.38034e-05 1.59241e-05 0)
(7.617e-08 2.02543e-05 0)
(-1.58421e-05 2.13189e-05 0)
(-3.09374e-05 1.86543e-05 0)
(-4.30145e-05 1.27198e-05 0)
(-4.96791e-05 4.36862e-06 0)
(-4.95364e-05 -5.06305e-06 0)
(-4.21557e-05 -1.40844e-05 0)
(-2.83598e-05 -2.11791e-05 0)
(-1.0018e-05 -2.5104e-05 0)
(5.07947e-06 -0.000340894 0)
(1.53707e-05 -0.000353799 0)
(2.53738e-05 -0.000351457 0)
(3.48036e-05 -0.000347622 0)
(4.32511e-05 -0.000342438 0)
(5.02797e-05 -0.000335998 0)
(5.55091e-05 -0.000328208 0)
(5.82977e-05 -0.000319239 0)
(5.83424e-05 -0.000308985 0)
(5.46928e-05 -0.000297642 0)
(4.82538e-05 -0.000285096 0)
(3.96041e-05 -0.000271688 0)
(2.88721e-05 -0.000257565 0)
(1.60819e-05 -0.000243069 0)
(1.50612e-06 -0.000228726 0)
(-1.46729e-05 -0.000214954 0)
(-3.24168e-05 -0.000202163 0)
(-5.07024e-05 -0.000190676 0)
(-6.93544e-05 -0.000180804 0)
(-8.79945e-05 -0.000172772 0)
(-0.000106405 -0.000166821 0)
(-0.000124145 -0.000163047 0)
(-0.000141002 -0.000161454 0)
(-0.000156393 -0.000162139 0)
(-0.000170073 -0.000164852 0)
(-0.000181324 -0.00016958 0)
(-0.00018972 -0.000175736 0)
(-0.000194546 -0.00018309 0)
(-0.000194718 -0.000191143 0)
(-0.000190352 -0.000200056 0)
(-0.000181795 -0.00020966 0)
(-0.000169973 -0.000219886 0)
(-0.000155153 -0.000230173 0)
(-0.000137484 -0.000240259 0)
(-0.000117873 -0.000249594 0)
(-9.60632e-05 -0.000257929 0)
(-7.21342e-05 -0.000264596 0)
(-4.66408e-05 -0.000269497 0)
(-1.93704e-05 -0.000272302 0)
(9.42287e-06 -0.000272847 0)
(3.94413e-05 -0.000271015 0)
(6.99879e-05 -0.000266593 0)
(0.000100874 -0.000259546 0)
(0.000131868 -0.000249828 0)
(0.000162263 -0.000237417 0)
(0.000191793 -0.000222348 0)
(0.000219983 -0.000204697 0)
(0.000246157 -0.00018455 0)
(0.000270345 -0.000162054 0)
(0.000292153 -0.000137441 0)
(0.000310836 -0.000110819 0)
(0.000325881 -8.24687e-05 0)
(0.000337858 -5.25994e-05 0)
(0.000346031 -2.16278e-05 0)
(0.00035003 1.03038e-05 0)
(0.000350082 4.26348e-05 0)
(0.000345902 7.51498e-05 0)
(0.000337275 0.000107307 0)
(0.000324336 0.000138858 0)
(0.00030667 0.000169336 0)
(0.000285026 0.000198412 0)
(0.000259321 0.000225614 0)
(0.000229249 0.000250579 0)
(0.000195703 0.000272771 0)
(0.000158749 0.00029194 0)
(0.000119169 0.000307644 0)
(7.67961e-05 0.000319579 0)
(3.26301e-05 0.000327399 0)
(-1.30335e-05 0.000330907 0)
(-5.95523e-05 0.000329912 0)
(-0.00010597 0.000324302 0)
(-0.000151815 0.000313978 0)
(-0.00019624 0.000298915 0)
(-0.000238501 0.000279271 0)
(-0.000278161 0.000255068 0)
(-0.000314187 0.000226723 0)
(-0.000345938 0.00019438 0)
(-0.000372858 0.000158584 0)
(-0.00039423 0.000119648 0)
(-0.000409469 7.83569e-05 0)
(-0.000418267 3.52894e-05 0)
(-0.000419786 -8.90227e-06 0)
(-0.000414029 -5.33065e-05 0)
(-0.000400697 -9.73171e-05 0)
(-0.000380122 -0.000139988 0)
(-0.000352418 -0.000180533 0)
(-0.000317734 -0.00021807 0)
(-0.000276932 -0.000251688 0)
(-0.00023008 -0.000280619 0)
(-0.000178259 -0.000304117 0)
(-0.000122366 -0.000321531 0)
(-6.35708e-05 -0.000332298 0)
(-2.82925e-06 -0.000336051 0)
(5.85097e-05 -0.000332398 0)
(0.000118838 -0.000321294 0)
(0.000176881 -0.000302778 0)
(0.000231219 -0.000277125 0)
(0.000280444 -0.000244757 0)
(0.000323229 -0.000206327 0)
(0.000358225 -0.000162642 0)
(0.00038446 -0.000114757 0)
(0.000400951 -6.38779e-05 0)
(0.000407066 -1.12004e-05 0)
(0.000402265 4.16056e-05 0)
(0.000386443 9.32827e-05 0)
(0.000359976 0.000142331 0)
(0.000323563 0.000187237 0)
(0.000277812 0.00022662 0)
(0.000223986 0.000259035 0)
(0.000163959 0.000283446 0)
(9.89338e-05 0.000298892 0)
(3.11673e-05 0.000304747 0)
(-3.71522e-05 0.000300558 0)
(-0.000103453 0.000286561 0)
(-0.000165632 0.000262842 0)
(-0.000221616 0.000230474 0)
(-0.000269043 0.000190261 0)
(-0.000306478 0.000143869 0)
(-0.000332112 9.29101e-05 0)
(-0.000344993 3.94635e-05 0)
(-0.000344398 -1.43039e-05 0)
(-0.000330345 -6.62185e-05 0)
(-0.000303747 -0.000114114 0)
(-0.000265536 -0.00015582 0)
(-0.000217528 -0.000189554 0)
(-0.000161752 -0.000213587 0)
(-0.000101042 -0.000226879 0)
(-3.83254e-05 -0.000228649 0)
(2.32748e-05 -0.000218825 0)
(8.06096e-05 -0.000197967 0)
(0.000130674 -0.000167136 0)
(0.000170607 -0.000128166 0)
(0.0001987 -8.30431e-05 0)
(0.000212928 -3.4563e-05 0)
(0.000212635 1.47405e-05 0)
(0.000197681 6.15572e-05 0)
(0.000169391 0.000103492 0)
(0.000129522 0.000137551 0)
(8.08002e-05 0.000161618 0)
(2.57173e-05 0.00017422 0)
(-3.16125e-05 0.000174143 0)
(-8.60884e-05 0.000161627 0)
(-0.000134713 0.00013746 0)
(-0.0001737 0.000103417 0)
(-0.000200178 6.19061e-05 0)
(-0.000212033 1.61204e-05 0)
(-0.000208006 -3.06906e-05 0)
(-0.000188323 -7.48091e-05 0)
(-0.000154513 -0.000112976 0)
(-0.000109007 -0.000141965 0)
(-5.54683e-05 -0.000159533 0)
(2.75233e-06 -0.000164145 0)
(6.00661e-05 -0.000155372 0)
(0.000111137 -0.000134182 0)
(0.000152483 -0.000102579 0)
(0.000180592 -6.33783e-05 0)
(0.000193223 -2.03028e-05 0)
(0.000189508 2.26891e-05 0)
(0.000170157 6.17167e-05 0)
(0.000137496 9.31505e-05 0)
(9.50292e-05 0.000114197 0)
(4.71849e-05 0.000123182 0)
(-1.33913e-06 0.000119605 0)
(-4.53894e-05 0.000104325 0)
(-8.03863e-05 7.97687e-05 0)
(-0.000103491 4.91764e-05 0)
(-0.000112975 1.63595e-05 0)
(-0.000108796 -1.46979e-05 0)
(-9.26177e-05 -4.0442e-05 0)
(-6.75794e-05 -5.80323e-05 0)
(-3.77324e-05 -6.58779e-05 0)
(-7.45701e-06 -6.37754e-05 0)
(1.87867e-05 -5.27838e-05 0)
(3.75024e-05 -3.55766e-05 0)
(4.68224e-05 -1.53487e-05 0)
(4.63034e-05 4.37407e-06 0)
(3.71487e-05 2.05073e-05 0)
(2.18863e-05 3.05995e-05 0)
(3.53349e-06 3.34308e-05 0)
(-1.35826e-05 2.88788e-05 0)
(-2.5914e-05 1.86753e-05 0)
(-3.15503e-05 5.24553e-06 0)
(-2.96003e-05 -8.69639e-06 0)
(-2.09324e-05 -2.00527e-05 0)
(-7.37136e-06 -2.6916e-05 0)
(8.71487e-06 -2.7919e-05 0)
(2.35005e-05 -2.24093e-05 0)
(3.33492e-05 -1.18826e-05 0)
(3.66038e-05 1.64659e-06 0)
(3.21298e-05 1.56716e-05 0)
(2.06219e-05 2.75944e-05 0)
(3.36588e-06 3.51527e-05 0)
(-1.67806e-05 3.7077e-05 0)
(-3.60038e-05 3.24472e-05 0)
(-5.13345e-05 2.21806e-05 0)
(-5.99129e-05 7.78734e-06 0)
(-6.00356e-05 -8.4312e-06 0)
(-5.1223e-05 -2.39101e-05 0)
(-3.44872e-05 -3.60495e-05 0)
(-1.21806e-05 -4.27902e-05 0)
(1.16925e-05 8.63476e-05 0)
(3.6193e-05 9.48978e-05 0)
(6.03187e-05 0.000105447 0)
(8.40097e-05 0.000121071 0)
(0.000106728 0.000141758 0)
(0.00012858 0.000166845 0)
(0.00014894 0.00019614 0)
(0.000168002 0.000228226 0)
(0.000185703 0.000262863 0)
(0.000201892 0.000297883 0)
(0.000215793 0.00033221 0)
(0.000225761 0.000364359 0)
(0.000231868 0.000393606 0)
(0.000231916 0.000418828 0)
(0.000225532 0.000439752 0)
(0.000213543 0.000455421 0)
(0.000196663 0.00046555 0)
(0.000175719 0.000469652 0)
(0.000151507 0.000467141 0)
(0.000124643 0.000458135 0)
(9.62699e-05 0.000442396 0)
(6.79955e-05 0.000420022 0)
(4.01137e-05 0.000391321 0)
(1.42521e-05 0.000356591 0)
(-9.19922e-06 0.000316689 0)
(-2.85226e-05 0.000271931 0)
(-4.26738e-05 0.000223588 0)
(-5.19067e-05 0.000171995 0)
(-5.80242e-05 0.000118458 0)
(-6.26423e-05 6.36063e-05 0)
(-6.44175e-05 9.76759e-06 0)
(-6.14172e-05 -4.2196e-05 0)
(-5.28808e-05 -9.13853e-05 0)
(-3.89497e-05 -0.000137523 0)
(-1.97708e-05 -0.000180151 0)
(4.787e-06 -0.000218877 0)
(3.40203e-05 -0.000253238 0)
(6.61451e-05 -0.000282768 0)
(0.000101331 -0.000307118 0)
(0.000138289 -0.000325977 0)
(0.000176765 -0.000339157 0)
(0.000216358 -0.000346556 0)
(0.000256028 -0.000348051 0)
(0.0002953 -0.000343715 0)
(0.000333614 -0.000333657 0)
(0.000370341 -0.000318013 0)
(0.000404998 -0.000297072 0)
(0.000437014 -0.000271133 0)
(0.00046572 -0.000240475 0)
(0.000490906 -0.000205606 0)
(0.00051231 -0.000166949 0)
(0.000529219 -0.000124937 0)
(0.000541144 -8.01282e-05 0)
(0.000548167 -3.31408e-05 0)
(0.000549284 1.52542e-05 0)
(0.000544145 6.49273e-05 0)
(0.00053319 0.000115078 0)
(0.000516233 0.000165029 0)
(0.000493792 0.000214261 0)
(0.000465516 0.000261857 0)
(0.000431654 0.000307296 0)
(0.000392624 0.000349652 0)
(0.000348016 0.000388537 0)
(0.000298653 0.000423086 0)
(0.00024497 0.000452889 0)
(0.000187411 0.000477208 0)
(0.000126612 0.000495636 0)
(6.33261e-05 0.000507803 0)
(-1.79147e-06 0.0005131 0)
(-6.78451e-05 0.000511467 0)
(-0.000133663 0.000502611 0)
(-0.000198451 0.000486414 0)
(-0.00026115 0.000462958 0)
(-0.000320919 0.000432285 0)
(-0.000376661 0.000394655 0)
(-0.000427414 0.000350544 0)
(-0.000472074 0.000300383 0)
(-0.000509944 0.000244881 0)
(-0.000539889 0.00018472 0)
(-0.00056103 0.000120912 0)
(-0.000573321 5.42393e-05 0)
(-0.000575607 -1.40165e-05 0)
(-0.000567727 -8.27659e-05 0)
(-0.000549889 -0.000150582 0)
(-0.000521843 -0.000216424 0)
(-0.000483817 -0.00027876 0)
(-0.000436069 -0.000336436 0)
(-0.000379509 -0.000387993 0)
(-0.000315075 -0.000432194 0)
(-0.000243725 -0.000468044 0)
(-0.000166801 -0.000494336 0)
(-8.59659e-05 -0.000510443 0)
(-2.55493e-06 -0.000515607 0)
(8.15566e-05 -0.000509451 0)
(0.00016418 -0.000491798 0)
(0.000243528 -0.000462762 0)
(0.000317614 -0.000422776 0)
(0.00038452 -0.000372506 0)
(0.000442391 -0.00031306 0)
(0.00048952 -0.000245645 0)
(0.000524318 -0.000171944 0)
(0.00054588 -9.36527e-05 0)
(0.00055298 -1.28348e-05 0)
(0.000544988 6.81093e-05 0)
(0.000522307 0.000147161 0)
(0.000485182 0.000222023 0)
(0.000434373 0.000290405 0)
(0.000371003 0.000349912 0)
(0.000296733 0.000398756 0)
(0.000214045 0.000435105 0)
(0.000125108 0.000457531 0)
(3.24452e-05 0.000465279 0)
(-6.0184e-05 0.000457499 0)
(-0.000150067 0.00043483 0)
(-0.00023385 0.000397284 0)
(-0.000308485 0.00034652 0)
(-0.000371438 0.000283959 0)
(-0.000419954 0.000212036 0)
(-0.000452251 0.000133529 0)
(-0.000466862 5.13464e-05 0)
(-0.000463059 -3.09745e-05 0)
(-0.000440985 -0.000110308 0)
(-0.000401666 -0.000183094 0)
(-0.000346919 -0.00024619 0)
(-0.000278899 -0.000296589 0)
(-0.000200689 -0.000332106 0)
(-0.000116198 -0.000350932 0)
(-2.92636e-05 -0.000352008 0)
(5.54832e-05 -0.00033528 0)
(0.000133688 -0.000301727 0)
(0.00020116 -0.000252996 0)
(0.000254397 -0.000191913 0)
(0.000290554 -0.000121504 0)
(0.0003077 -4.64808e-05 0)
(0.000304471 2.94747e-05 0)
(0.000281396 0.000101397 0)
(0.000240122 0.000165271 0)
(0.000182862 0.000216808 0)
(0.000113808 0.000252975 0)
(3.64513e-05 0.000271143 0)
(-4.32812e-05 0.000269833 0)
(-0.000118908 0.000249277 0)
(-0.00018574 0.000211171 0)
(-0.000239031 0.000157932 0)
(-0.000274623 9.36767e-05 0)
(-0.000289982 2.27615e-05 0)
(-0.000283618 -4.91105e-05 0)
(-0.000255804 -0.000116509 0)
(-0.0002088 -0.000174394 0)
(-0.000146103 -0.000217912 0)
(-7.26604e-05 -0.000243813 0)
(6.38107e-06 -0.00024974 0)
(8.36231e-05 -0.000235099 0)
(0.000151891 -0.000201644 0)
(0.000206238 -0.00015245 0)
(0.000242232 -9.20427e-05 0)
(0.000256802 -2.60919e-05 0)
(0.000249268 3.92432e-05 0)
(0.000220723 9.80743e-05 0)
(0.000174511 0.000144917 0)
(0.00011571 0.000175502 0)
(5.04102e-05 0.000187451 0)
(-1.49085e-05 0.000180137 0)
(-7.30631e-05 0.000155163 0)
(-0.000117873 0.000116453 0)
(-0.000145873 6.8835e-05 0)
(-0.000155003 1.84096e-05 0)
(-0.000145592 -2.86938e-05 0)
(-0.000120161 -6.70658e-05 0)
(-8.33003e-05 -9.25665e-05 0)
(-4.08343e-05 -0.000102859 0)
(1.19e-06 -9.77481e-05 0)
(3.65597e-05 -7.93189e-05 0)
(6.05959e-05 -5.16189e-05 0)
(7.10284e-05 -1.97908e-05 0)
(6.7658e-05 1.08133e-05 0)
(5.24533e-05 3.53251e-05 0)
(2.91868e-05 5.01516e-05 0)
(2.28448e-06 5.34726e-05 0)
(-2.22266e-05 4.54632e-05 0)
(-3.94086e-05 2.8838e-05 0)
(-4.68997e-05 7.42097e-06 0)
(-4.35855e-05 -1.43287e-05 0)
(-3.08518e-05 -3.20046e-05 0)
(-1.15661e-05 -4.24311e-05 0)
(1.11306e-05 -4.36817e-05 0)
(3.18984e-05 -3.50707e-05 0)
(4.5772e-05 -1.88978e-05 0)
(5.06386e-05 1.72407e-06 0)
(4.51792e-05 2.29656e-05 0)
(3.02947e-05 4.08744e-05 0)
(8.02801e-06 5.21635e-05 0)
(-1.80492e-05 5.5081e-05 0)
(-4.30809e-05 4.8212e-05 0)
(-6.29119e-05 3.30272e-05 0)
(-7.4112e-05 1.18569e-05 0)
(-7.45587e-05 -1.19648e-05 0)
(-6.37214e-05 -3.45835e-05 0)
(-4.29463e-05 -5.23448e-05 0)
(-1.51862e-05 -6.21479e-05 0)
(3.86364e-05 -0.000756876 0)
(0.000116594 -0.000770571 0)
(0.000193013 -0.000759036 0)
(0.000266081 -0.00074124 0)
(0.00033286 -0.000716316 0)
(0.000392177 -0.00068608 0)
(0.000439538 -0.000646852 0)
(0.000473501 -0.000602946 0)
(0.000489373 -0.000547909 0)
(0.000482764 -0.000487312 0)
(0.000458613 -0.000418097 0)
(0.000419745 -0.000345789 0)
(0.000368429 -0.000271059 0)
(0.000307269 -0.000198183 0)
(0.000237893 -0.000128541 0)
(0.000160743 -6.49347e-05 0)
(7.89386e-05 -9.07907e-06 0)
(-7.97441e-06 3.74944e-05 0)
(-9.65036e-05 7.29376e-05 0)
(-0.000184552 9.63831e-05 0)
(-0.000271603 0.000108031 0)
(-0.000354443 0.000107026 0)
(-0.000431941 9.47929e-05 0)
(-0.000500824 7.00496e-05 0)
(-0.000560954 3.66511e-05 0)
(-0.000609701 -7.62396e-06 0)
(-0.000646812 -5.57467e-05 0)
(-0.000671676 -0.000113173 0)
(-0.000682669 -0.000168169 0)
(-0.000675346 -0.000227067 0)
(-0.000649484 -0.000283142 0)
(-0.000612337 -0.000340326 0)
(-0.000567033 -0.000394708 0)
(-0.000515651 -0.000445814 0)
(-0.000458755 -0.000491691 0)
(-0.000396384 -0.00053168 0)
(-0.000328674 -0.000565024 0)
(-0.000257039 -0.000591195 0)
(-0.000181958 -0.000609881 0)
(-0.000104484 -0.000620881 0)
(-2.57508e-05 -0.000624005 0)
(5.33551e-05 -0.000619438 0)
(0.000131862 -0.000607024 0)
(0.000208624 -0.000587347 0)
(0.000282769 -0.000560195 0)
(0.000353357 -0.000526191 0)
(0.000419362 -0.000485409 0)
(0.000480264 -0.000438575 0)
(0.000535334 -0.000386001 0)
(0.000583774 -0.000328207 0)
(0.00062529 -0.000265835 0)
(0.000659032 -0.000199637 0)
(0.000684865 -0.000130148 0)
(0.000701592 -5.82937e-05 0)
(0.000710585 1.53414e-05 0)
(0.000712075 8.97717e-05 0)
(0.000704112 0.000164304 0)
(0.000687566 0.00023807 0)
(0.000661975 0.000310189 0)
(0.000627056 0.000379588 0)
(0.000583689 0.000445564 0)
(0.000532383 0.00050701 0)
(0.000473199 0.000562966 0)
(0.00040702 0.000612745 0)
(0.000334491 0.000655306 0)
(0.000256465 0.000690045 0)
(0.000174078 0.000716113 0)
(8.77849e-05 0.000733014 0)
(-1.09013e-06 0.000740131 0)
(-9.0919e-05 0.000737242 0)
(-0.00018086 0.000723938 0)
(-0.000269331 0.00070016 0)
(-0.000355031 0.000665871 0)
(-0.000436701 0.000621322 0)
(-0.000512719 0.000566887 0)
(-0.00058171 0.000503119 0)
(-0.00064241 0.000430776 0)
(-0.000693708 0.000350714 0)
(-0.000734239 0.000264072 0)
(-0.000763244 0.000172265 0)
(-0.0007799 7.66641e-05 0)
(-0.000782796 -2.10964e-05 0)
(-0.000771768 -0.000119432 0)
(-0.000746881 -0.000216493 0)
(-0.000708342 -0.000310417 0)
(-0.000656227 -0.000399329 0)
(-0.000591146 -0.000481246 0)
(-0.000513923 -0.000554536 0)
(-0.000425996 -0.000617086 0)
(-0.000328695 -0.000667749 0)
(-0.000223953 -0.000704636 0)
(-0.000114138 -0.00072681 0)
(-8.91861e-07 -0.000733335 0)
(0.000113039 -0.000723693 0)
(0.000224901 -0.000697671 0)
(0.00033206 -0.000655502 0)
(0.000431933 -0.000597741 0)
(0.000521735 -0.000525485 0)
(0.000599068 -0.000440163 0)
(0.000661607 -0.000343709 0)
(0.000707527 -0.000238448 0)
(0.000735313 -0.000126728 0)
(0.000743157 -1.19962e-05 0)
(0.000730883 0.000103056 0)
(0.000698968 0.000215151 0)
(0.000647552 0.000320881 0)
(0.000577422 0.000417031 0)
(0.000490477 0.00050063 0)
(0.000389337 0.000568529 0)
(0.000276802 0.000618819 0)
(0.000156318 0.000648829 0)
(3.1328e-05 0.000658387 0)
(-9.32888e-05 0.000645651 0)
(-0.000213445 0.000611344 0)
(-0.000325209 0.000556563 0)
(-0.000424087 0.000482746 0)
(-0.000506631 0.000392635 0)
(-0.000569254 0.000289563 0)
(-0.000609657 0.000177345 0)
(-0.000625908 6.03437e-05 0)
(-0.000617328 -5.66485e-05 0)
(-0.0005843 -0.000168981 0)
(-0.000528053 -0.000271402 0)
(-0.000450835 -0.000359863 0)
(-0.000356304 -0.000429532 0)
(-0.000248672 -0.000478039 0)
(-0.000132765 -0.000502272 0)
(-1.43429e-05 -0.000501693 0)
(0.000100274 -0.000475429 0)
(0.000205419 -0.000425505 0)
(0.000295473 -0.000354167 0)
(0.000365766 -0.000265761 0)
(0.000412143 -0.000164676 0)
(0.000432054 -5.66359e-05 0)
(0.000424829 5.14917e-05 0)
(0.000390372 0.000154017 0)
(0.000331366 0.000244152 0)
(0.000251257 0.000316681 0)
(0.000155441 0.000366611 0)
(4.87626e-05 0.000390445 0)
(-6.06578e-05 0.000386909 0)
(-0.000163528 0.000355994 0)
(-0.000254038 0.000300164 0)
(-0.000325531 0.000222968 0)
(-0.0003729 0.000130351 0)
(-0.000392444 2.90079e-05 0)
(-0.00038204 -7.30136e-05 0)
(-0.000343149 -0.000168533 0)
(-0.000278466 -0.000249801 0)
(-0.000192986 -0.00031038 0)
(-9.36601e-05 -0.000345456 0)
(1.27802e-05 -0.000352206 0)
(0.000115893 -0.00032968 0)
(0.000206168 -0.000280761 0)
(0.000277159 -0.000209762 0)
(0.000322772 -0.000123551 0)
(0.000339317 -2.98972e-05 0)
(0.00032616 6.21921e-05 0)
(0.000285192 0.000144313 0)
(0.000220899 0.0002089 0)
(0.000140439 0.000250005 0)
(5.22841e-05 0.000264546 0)
(-3.46492e-05 0.000251282 0)
(-0.000110587 0.000213847 0)
(-0.000167849 0.000157237 0)
(-0.00020175 8.87273e-05 0)
(-0.000209665 1.69327e-05 0)
(-0.00019264 -4.92579e-05 0)
(-0.000154628 -0.000102302 0)
(-0.000102025 -0.000136479 0)
(-4.28301e-05 -0.000148603 0)
(1.43869e-05 -0.000138733 0)
(6.13051e-05 -0.000110186 0)
(9.1828e-05 -6.9046e-05 0)
(0.000103201 -2.25729e-05 0)
(9.55547e-05 2.12572e-05 0)
(7.19501e-05 5.56714e-05 0)
(3.78256e-05 7.56974e-05 0)
(-4.00404e-07 7.90046e-05 0)
(-3.4495e-05 6.60907e-05 0)
(-5.79093e-05 4.1061e-05 0)
(-6.74856e-05 9.57042e-06 0)
(-6.20791e-05 -2.19311e-05 0)
(-4.38442e-05 -4.72538e-05 0)
(-1.68232e-05 -6.18626e-05 0)
(1.45122e-05 -6.31259e-05 0)
(4.29493e-05 -5.0659e-05 0)
(6.19313e-05 -2.7618e-05 0)
(6.87748e-05 1.52193e-06 0)
(6.18954e-05 3.12862e-05 0)
(4.25887e-05 5.62008e-05 0)
(1.39529e-05 7.17289e-05 0)
(-1.96417e-05 7.5784e-05 0)
(-5.19794e-05 6.62385e-05 0)
(-7.74021e-05 4.54637e-05 0)
(-9.18248e-05 1.66009e-05 0)
(-9.26147e-05 -1.57161e-05 0)
(-7.9241e-05 -4.63644e-05 0)
(-5.34138e-05 -7.0326e-05 0)
(-1.88639e-05 -8.35627e-05 0)
(4.98886e-05 -0.000688883 0)
(0.000151479 -0.00066766 0)
(0.000250822 -0.000615779 0)
(0.000352903 -0.000537943 0)
(0.000448711 -0.000430619 0)
(0.000549411 -0.000299453 0)
(0.000639224 -0.000132976 0)
(0.00073421 4.59657e-05 0)
(0.000819372 0.000260425 0)
(0.000883528 0.000462688 0)
(0.000936654 0.000659322 0)
(0.000956808 0.00083591 0)
(0.000948882 0.000996118 0)
(0.000908512 0.00113321 0)
(0.000842928 0.00124655 0)
(0.00075191 0.00133364 0)
(0.00064236 0.00139338 0)
(0.000515387 0.00142478 0)
(0.000378443 0.00142786 0)
(0.000237047 0.00140375 0)