/*--------------------------------*- C++ -*----------------------------------*\
  =========                 |
  \\      /  F ield         | OpenFOAM: The Open Source CFD Toolbox
   \\    /   O peration     | Website:  https://openfoam.org
    \\  /    A nd           | Version:  12
     \\/     M anipulation  |
\*---------------------------------------------------------------------------*/
FoamFile
{
    format      ascii;
    class       surfaceScalarField;
    location    "19.82";
    object      phi;
}
// * * * * * * * * * * * * * * * * * * * * * * * * * * * * * * * * * * * * * //

dimensions      [1 0 -1 0 0 0 0];

internalField   nonuniform List<scalar> 
7429
(
0.00031381
-0.00031381
0.000637907
-0.000324097
0.00096676
-0.000328852
0.00130038
-0.000333616
0.00163919
-0.000338818
0.00198349
-0.000344299
0.00233352
-0.000350029
0.00268948
-0.000355957
0.00305147
-0.000361986
0.00341955
-0.000368078
0.00379356
-0.000374012
0.00417332
-0.000379761
0.00455849
-0.000385169
0.00494851
-0.000390018
0.00534272
-0.00039421
0.00574026
-0.000397537
0.00613998
-0.000399726
0.00654062
-0.000400633
0.00694078
-0.000400164
0.00733894
-0.000398156
0.0077333
-0.000394368
0.00812192
-0.000388617
0.00850266
-0.000380738
0.00887314
-0.000370476
0.00923087
-0.000357731
0.00957314
-0.000342271
0.00989739
-0.000324248
0.0102007
-0.00030329
0.0104801
-0.000279414
0.010733
-0.000252879
0.0109564
-0.000223475
0.0111481
-0.00019166
0.0113056
-0.000157451
0.0114268
-0.000121254
0.01151
-8.31789e-05
0.0115538
-4.37962e-05
0.0115573
-3.54939e-06
0.0115224
3.49813e-05
0.0114468
7.55139e-05
0.0113303
0.000116554
0.0111728
0.0001575
0.0109748
0.000197955
0.0107374
0.00023744
0.0104617
0.000275656
0.0101495
0.00031226
0.00980255
0.000346933
0.00942311
0.000379437
0.00901366
0.000409453
0.00857689
0.000436762
0.00811584
0.000461052
0.00763369
0.000482153
0.00713395
0.000499739
0.00662033
0.000513624
0.00609673
0.000523598
0.00556722
0.000529503
0.00503567
0.000531553
0.00450698
0.000528689
0.00398497
0.00052201
0.00347462
0.000510353
0.00297971
0.000494907
0.00250524
0.000474471
0.00205504
0.000450201
0.00163358
0.000421459
0.00124473
0.000388852
0.00089205
0.00035268
0.000579204
0.000312845
0.000308789
0.000270415
8.36663e-05
0.000225123
-9.40448e-05
0.000177711
-0.000223149
0.000129104
-0.000302808
7.96588e-05
-0.000333358
3.05501e-05
-0.00030969
-2.36681e-05
-0.000236296
-7.33939e-05
-0.000116445
-0.000119851
4.69213e-05
-0.000163367
0.000250856
-0.000203935
0.000491519
-0.000240663
0.000763551
-0.000272032
0.00106093
-0.000297381
0.00137769
-0.000316753
0.00170636
-0.000328672
0.00203955
-0.000333191
0.0023693
-0.000329755
0.00268751
-0.000318207
0.00298598
-0.000298472
0.00325639
-0.000270411
0.00349089
-0.000234498
0.00368228
-0.000191392
0.00382382
-0.000141541
0.00390937
-8.55484e-05
0.00393559
-2.62187e-05
0.00388849
4.71037e-05
0.00377076
0.000117723
0.00358392
0.000186847
0.00333052
0.000253397
0.00301421
0.000316306
0.00264
0.000374212
0.00221393
0.000426068
0.00174445
0.000469479
0.00124172
0.000502732
0.000717219
0.000524504
0.000184238
0.000532981
-0.000343592
0.000527829
-0.000851304
0.000507713
-0.00132432
0.000473017
-0.00174811
0.00042379
-0.00210932
0.000361204
-0.00239565
0.000286332
-0.00259696
0.000201316
-0.00270572
0.000108753
-0.00271729
1.15753e-05
-0.00261779
-9.94974e-05
-0.00241874
-0.000199054
-0.00212796
-0.000290782
-0.00175508
-0.000372877
-0.00131277
-0.000442314
-0.000817708
-0.00049506
-0.000288977
-0.000528731
0.000250643
-0.00053962
0.000777884
-0.000527241
0.00126849
-0.000490606
0.00169882
-0.000430333
0.00204744
-0.000348615
0.00229482
-0.000247386
0.00242741
-0.00013259
0.00243278
-5.36689e-06
0.00229731
0.000135472
0.00203303
0.000264276
0.00165258
0.000380454
0.00117237
0.000480211
0.000614759
0.000557607
8.96832e-06
0.000605791
-0.000613373
0.000622341
-0.00121486
0.000601488
-0.00175918
0.000544321
-0.00221211
0.000452925
-0.00254354
0.000331431
-0.00273063
0.000187093
-0.00275795
2.73153e-05
-0.00260504
-0.000152907
-0.0022904
-0.000314641
-0.00183465
-0.000455752
-0.00126601
-0.000568638
-0.000622864
-0.000643143
4.94504e-05
-0.000672315
0.000698757
-0.000649307
0.0012745
-0.000575745
0.00172999
-0.000455493
0.00202686
-0.000296866
0.00213883
-0.000111969
0.00204185
9.69795e-05
0.00174852
0.000293327
0.00128838
0.000460148
0.000700118
0.000588258
3.85697e-05
0.000661548
-0.000634672
0.000673242
-0.00124829
0.000613614
-0.00173861
0.000490321
-0.00205327
0.00031466
-0.00215694
0.000103676
-0.00202058
-0.000136362
-0.00166706
-0.000353522
-0.00113781
-0.000529251
-0.000491577
-0.00064623
0.000196534
-0.000688111
0.000837504
-0.00064097
0.00135025
-0.000512745
0.0016684
-0.00031815
0.0017511
-8.27035e-05
0.00157096
0.000180139
0.00116726
0.000403707
0.000600059
0.000567198
-4.65334e-05
0.000646592
-0.000667209
0.000620676
-0.00116248
0.000495266
-0.00145164
0.000289166
-0.00148956
3.79216e-05
-0.00125197
-0.000237591
-0.000796385
-0.000455587
-0.000205047
-0.000591338
0.000411226
-0.000616272
0.000925676
-0.00051445
0.00123461
-0.00030893
0.00127582
-4.1216e-05
0.00102096
0.000254861
0.000533592
0.000487369
-8.42958e-05
0.000617888
-0.000691503
0.000607207
-0.00114406
0.000452562
-0.00133099
0.000186928
-0.00119226
-0.000138735
-0.000757934
-0.000434324
-0.000129679
-0.000628255
0.000536218
-0.000665896
0.0010588
-0.000522579
0.00129065
-0.000231852
0.00115549
0.000135154
0.000682477
0.000473018
0.000682477
0.000353736
-0.000667545
0.000729884
-0.000700244
0.00111353
-0.000712494
0.00150567
-0.000725758
0.00190743
-0.000740573
0.00232002
-0.000756889
0.00274417
-0.00077418
0.00318051
-0.0007923
0.00362914
-0.000810618
0.00408997
-0.000828908
0.00456233
-0.00084637
0.00504554
-0.000862965
0.00553871
-0.000878342
0.00604065
-0.000891951
0.00654989
-0.000903456
0.00706475
-0.000912392
0.00758318
-0.000918159
0.00810296
-0.00092041
0.00862135
-0.00091855
0.0091353
-0.000912104
0.00964145
-0.00090052
0.0101363
-0.00088342
0.0106159
-0.000860394
0.0110766
-0.000831149
0.0115143
-0.000795402
0.0119252
-0.000753172
0.0123051
-0.000704212
0.0126509
-0.000649058
0.012959
-0.000587545
0.0132266
-0.000520483
0.0134511
-0.000447993
0.0136305
-0.00037097
0.013763
-0.000289992
0.0138476
-0.000205898
0.0138842
-0.000119759
0.0138737
-3.33074e-05
0.0138046
6.56347e-05
0.0136765
0.00016306
0.0134938
0.000258186
0.0132598
0.000350551
0.0129778
0.000439513
0.0126509
0.000524801
0.012282
0.000606404
0.0118734
0.000684263
0.0114277
0.000757897
0.0109476
0.000827037
0.0104359
0.000891159
0.00989568
0.000949686
0.00933028
0.00100216
0.00874377
0.00104756
0.00813975
0.00108618
0.00752248
0.001117
0.0068963
0.0011398
0.00626529
0.00115461
0.00563429
0.0011605
0.00500763
0.00115822
0.0043901
0.00114622
0.00378641
0.00112569
0.00320128
0.00109548
0.00263899
0.0010572
0.00210416
0.0010093
0.00160131
0.000953055
0.00113426
0.000888505
0.000706841
0.000816272
0.000323337
0.000736184
-1.34722e-05
0.000649654
-0.000300315
0.000557257
-0.000534694
0.000459503
-0.000715327
0.000358344
-0.000839459
0.000253236
-0.000907238
0.000147438
-0.000918861
4.21727e-05
-0.000872899
-6.96296e-05
-0.000773136
-0.000173158
-0.000621748
-0.000271238
-0.000421238
-0.000363877
-0.000176302
-0.000448871
0.000108163
-0.000525128
0.000426512
-0.000590381
0.000772835
-0.000643705
0.0011392
-0.000683119
0.00151826
-0.000707729
0.00190115
-0.000716078
0.00227947
-0.000708083
0.00264414
-0.000682871
0.00298633
-0.000640661
0.00329654
-0.000580626
0.00356674
-0.000504696
0.00378796
-0.000412609
0.00395395
-0.000307537
0.00405801
-0.0001896
0.00409321
-6.14277e-05
0.00405175
8.85697e-05
0.00393398
0.000235494
0.00374094
0.000379888
0.00347486
0.000519469
0.00313897
0.000652199
0.00273877
0.000774414
0.00228112
0.000883717
0.00177565
0.000974955
0.00123356
0.00104481
0.000667702
0.00109037
9.24725e-05
0.00110821
-0.00047672
0.00109702
-0.00102375
0.00105475
-0.00153251
0.00098177
-0.00198694
0.000878222
-0.00237259
0.000746855
-0.00267592
0.000589663
-0.00288607
0.000411465
-0.00299444
0.00021712
-0.002991
8.1441e-06
-0.0028757
-0.000214797
-0.00265249
-0.000422263
-0.00232925
-0.000614025
-0.00191552
-0.00078661
-0.00142598
-0.000931849
-0.000878801
-0.00104224
-0.000296178
-0.00111135
0.000298982
-0.00113478
0.000879224
-0.00110748
0.00141874
-0.00103012
0.00189121
-0.000902806
0.00227383
-0.000731233
0.00254426
-0.000517817
0.00268818
-0.000276509
0.00269014
-7.32407e-06
0.0025436
0.000282009
0.00225718
0.000550697
0.00184304
0.000794599
0.00131948
0.00100377
0.000711669
0.00116542
4.94054e-05
0.00126805
-0.000628726
0.00130047
-0.0012838
0.00125656
-0.00187658
0.0011371
-0.00236857
0.00094491
-0.002727
0.00068986
-0.0029268
0.000386899
-0.00295138
5.18967e-05
-0.00278416
-0.000320133
-0.00244161
-0.00065719
-0.00194435
-0.000953008
-0.00132393
-0.00118906
-0.000622052
-0.00134503
0.000110025
-0.00140439
0.000815774
-0.00135506
0.00144017
-0.00120014
0.00193198
-0.000947302
0.00224908
-0.000613968
0.00236414
-0.000227031
0.00225164
0.000209483
0.00192837
0.000616595
0.00142131
0.000967213
0.000774704
0.00123486
4.85377e-05
0.00138771
-0.000686606
0.00140839
-0.00135536
0.00128237
-0.0018881
0.00102306
-0.00222661
0.000653171
-0.00233381
0.000210875
-0.00218109
-0.000289087
-0.0017932
-0.000741409
-0.00121216
-0.00111029
-0.000502258
-0.00135614
0.000249876
-0.00144024
0.000948646
-0.00133974
0.00150453
-0.00106862
0.00184468
-0.000658304
0.00192483
-0.000162851
0.00172018
0.000384786
0.00127117
0.00085272
0.000642526
0.00119584
-7.12732e-05
0.00136039
-0.000754003
0.00130341
-0.00129595
0.00103721
-0.00160855
0.00060177
-0.00164033
6.96988e-05
-0.00137347
-0.000504453
-0.000866251
-0.000962804
-0.000209589
-0.001248
0.000472645
-0.00129851
0.00104115
-0.00108295
0.00138092
-0.000648699
0.00142149
-8.17841e-05
0.00114003
0.000536317
0.000601074
0.00102633
-8.27915e-05
0.00130175
-0.000754184
0.0012786
-0.00125473
0.000953104
-0.00146136
0.000393562
-0.00131042
-0.000289672
-0.000833634
-0.000911113
-0.000142674
-0.00131922
0.0005902
-0.00139877
0.00116485
-0.00109723
0.00141974
-0.000486743
0.00127145
0.000283444
0.000750945
0.000993527
0.00143342
0.000121376
-0.00078892
0.000255244
-0.000834112
0.000395421
-0.00085267
0.00054442
-0.000874756
0.000703674
-0.000899826
0.000875845
-0.000929058
0.00106125
-0.00095958
0.00126286
-0.00099391
0.0014803
-0.00102806
0.00171732
-0.00106593
0.00197523
-0.00110428
0.00225653
-0.00114426
0.00256033
-0.00118214
0.00288554
-0.00121716
0.00323652
-0.00125443
0.00361548
-0.00129135
0.00402186
-0.00132453
0.00445465
-0.0013532
0.00491042
-0.00137432
0.0053859
-0.00138758
0.00587656
-0.00139118
0.00637781
-0.00138468
0.00688396
-0.00136654
0.00738918
-0.00133637
0.00788672
-0.00129294
0.00837083
-0.00123728
0.00883439
-0.00116777
0.00927195
-0.00108662
0.00967648
-0.000992078
0.0100421
-0.000886087
0.0103616
-0.000767526
0.0106301
-0.000639445
0.0108431
-0.000503033
0.0109981
-0.000360908
0.0110934
-0.000215046
0.0111271
-6.70168e-05
0.0111164
7.6365e-05
0.0110567
0.000222731
0.0109458
0.000369088
0.010783
0.000513359
0.0105685
0.000654053
0.0103032
0.0007901
0.00998923
0.000920373
0.00962931
0.00104417
0.00922658
0.00116063
0.00878478
0.00126883
0.00830747
0.00136847
0.00779862
0.00145854
0.00726211
0.00153867
0.00670169
0.00160797
0.00612192
0.00166595
0.0055269
0.00171203
0.00492136
0.00174534
0.0043095
0.00176646
0.00369645
0.00177355
0.00308704
0.00176763
0.00248676
0.0017465
0.00190003
0.00171243
0.00133184
0.00166367
0.00078813
0.0016009
0.000273424
0.00152401
-0.000207029
0.00143351
-0.000648672
0.00133015
-0.00104585
0.00121345
-0.00139555
0.00108588
-0.00169322
0.000947323
-0.00193547
0.000799515
-0.00211966
0.000643693
-0.00224271
0.000481394
-0.0023036
0.000314118
-0.00230178
0.000145622
-0.00222868
-3.09295e-05
-0.0020963
-0.000202009
-0.00190407
-0.000365389
-0.00165418
-0.000521125
-0.00134997
-0.000668089
-0.000996275
-0.000802564
-0.000598747
-0.000922655
-0.00016445
-0.00102468
0.00029952
-0.00110768
0.00078455
-0.00116815
0.00128101
-0.00120419
0.00177941
-0.00121449
0.00226895
-0.00119762
0.00273903
-0.00115295
0.00317861
-0.00108024
0.00357788
-0.000979895
0.00392497
-0.000851785
0.00421256
-0.000700199
0.00442909
-0.000524065
0.00456981
-0.000330318
0.00462838
-0.000120003
0.00459306
0.000123894
0.00446607
0.000362486
0.00424868
0.000597271
0.00394253
0.000825625
0.00355161
0.00104312
0.00308213
0.0012439
0.00254346
0.00142238
0.00194679
0.00157163
0.00130658
0.00168502
0.000637969
0.00175898
-4.16379e-05
0.00178782
-0.000713363
0.00176875
-0.00135853
0.00169991
-0.00195703
0.00158027
-0.00249046
0.00141165
-0.0029404
0.0011968
-0.00329157
0.000940834
-0.00353
0.000649894
-0.00364703
0.000334147
-0.00362697
-1.19139e-05
-0.00347563
-0.000366136
-0.00319681
-0.000701084
-0.00279742
-0.00101341
-0.00229034
-0.00129369
-0.00169243
-0.00152976
-0.00102608
-0.00170859
-0.000319673
-0.00181777
0.00040107
-0.00185552
0.00110312
-0.00180954
0.00175403
-0.00168103
0.0023238
-0.00147258
0.00278301
-0.00119044
0.00310792
-0.000842731
0.00327681
-0.000445395
0.00327549
-6.00494e-06
0.00310044
0.000457058
0.00275827
0.000892871
0.00226195
0.00129091
0.00163274
0.00163298
0.000901009
0.00189715
0.000108209
0.00206085
-0.000703889
0.00211257
-0.00148776
0.00204043
-0.00219468
0.00184403
-0.00278056
0.00153079
-0.00320555
0.00111485
-0.00343689
0.000618242
-0.00346086
7.58657e-05
-0.00325592
-0.000525076
-0.00284338
-0.00106974
-0.00224515
-0.00155123
-0.00150103
-0.00193317
-0.000660431
-0.00218563
0.000215071
-0.00227989
0.00105719
-0.00219717
0.00179961
-0.00194256
0.00238006
-0.00152775
0.00274882
-0.000982723
0.00287251
-0.000350729
0.00272864
0.000353359
0.00233428
0.00101095
0.00171944
0.00158205
0.000938244
0.00201606
6.288e-05
0.00226308
-0.000820247
0.00229151
-0.00162079
0.00208291
-0.00225503
0.0016573
-0.00265386
0.001052
-0.00277078
0.000327799
-0.00258021
-0.000479664
-0.00210905
-0.00121257
-0.00140548
-0.00181385
-0.000551665
-0.00220996
0.00035297
-0.00234488
0.00118974
-0.00217651
0.00185095
-0.00172984
0.00224772
-0.00105508
0.00232724
-0.00024237
0.00206892
0.000643104
0.00151684
0.0014048
0.000748758
0.00196393
-0.000119509
0.00222866
-0.00094616
0.00213006
-0.00159801
0.00168906
-0.00196717
0.00097093
-0.00199009
9.26229e-05
-0.00165797
-0.000836576
-0.0010333
-0.00158748
-0.000228193
-0.00205311
0.00060507
-0.00213177
0.00129645
-0.00177433
0.00170673
-0.00105898
0.00174866
-0.000123714
0.00140374
0.000881237
0.000744997
0.00168506
-8.89876e-05
0.00213574
-0.00090743
0.00209704
-0.00151747
0.00156314
-0.0017682
0.000644293
-0.001587
-0.000470866
-0.00100983
-0.00148828
-0.000171949
-0.0021571
0.000716339
-0.00228706
0.00141352
-0.00179441
0.00172193
-0.000795155
0.00154216
0.000463212
0.000910739
0.00162495
0.00234416
2.65423e-05
-0.000815462
8.91744e-05
-0.000896743
0.000178526
-0.000942021
0.000306626
-0.00100285
0.00048357
-0.00107677
0.000723026
-0.00116851
0.0010287
-0.00126526
0.0014094
-0.0013746
0.00186068
-0.00147934
0.00237817
-0.00158342
0.0029447
-0.00167081
0.00355545
-0.00175501
0.00420864
-0.00183533
0.00490748
-0.00191601
0.005646
-0.00199295
0.00642076
-0.00206611
0.00722636
-0.00213013
0.00805855
-0.00218538
0.00890944
-0.00222521
0.00977398
-0.00225212
0.0106432
-0.00226045
0.0115074
-0.00224882
0.0123535
-0.00221261
0.0131715
-0.00215441
0.0139464
-0.00206782
0.0146687
-0.00195962
0.0153216
-0.00182066
0.0158996
-0.00166464
0.0163857
-0.00147809
0.0167793
-0.00127974
0.0170743
-0.00106247
0.0172733
-0.000838495
0.0173769
-0.0006066
0.0173894
-0.000373435
0.0173167
-0.000142345
0.0171456
0.0001041
0.0168741
0.000347882
0.016518
0.000578749
0.0160886
0.000798543
0.0155938
0.00100812
0.0150405
0.0012074
0.014434
0.00139659
0.0137794
0.00157496
0.0130821
0.00174149
0.012347
0.00189574
0.0115789
0.0020369
0.0107822
0.00216517
0.00996319
0.00227756
0.00912558
0.00237628
0.00827534
0.00245821
0.00741679
0.0025245
0.0065546
0.00257423
0.00569476
0.00260519
0.00484221
0.00261901
0.00400137
0.00261439
0.00317926
0.00258974
0.00238016
0.0025456
0.00160959
0.002483
0.000873202
0.00240006
0.000174946
0.00229916
-0.000477491
0.00217645
-0.00107981
0.00203582
-0.00162593
0.00187627
-0.00211185
0.00169937
-0.002533
0.00150703
-0.00288473
0.00129905
-0.00316371
0.0010785
-0.00336877
0.000848753
-0.00349477
0.000607395
-0.00354181
0.000361164
-0.00350855
0.000112357
-0.00339607
-0.000143409
-0.00320807
-0.000390005
-0.00294473
-0.000628732
-0.00260858
-0.000857273
-0.00220666
-0.00107001
-0.00174332
-0.0012659
-0.00122768
-0.00143829
-0.000667094
-0.00158527
-7.29439e-05
-0.00170183
0.000546044
-0.00178714
0.00117738
-0.00183552
0.00180953
-0.00184664
0.00242861
-0.00181671
0.00302269
-0.00174703
0.00357862
-0.00163617
0.00408148
-0.00148276
0.00452193
-0.00129223
0.00488408
-0.00106235
0.00516244
-0.000802422
0.00534147
-0.00050935
0.0054197
-0.000198238
0.00538541
0.000158184
0.00523963
0.000508266
0.00498263
0.000854276
0.0046164
0.00119186
0.00414579
0.00151373
0.00357895
0.00181073
0.00292708
0.00207425
0.00220469
0.00229402
0.00142908
0.00246063
0.00061911
0.00256895
-0.000203549
0.00261048
-0.00101583
0.00258103
-0.00179354
0.00247762
-0.00251315
0.00229988
-0.00315199
0.00205049
-0.00368854
0.00173335
-0.00410256
0.00135485
-0.00437819
0.000925533
-0.00450109
0.000457038
-0.00446318
-4.9819e-05
-0.00426714
-0.000562178
-0.00391456
-0.00105367
-0.00341485
-0.00151312
-0.00278262
-0.00192592
-0.00204224
-0.00227013
-0.00121844
-0.00253239
-0.000343536
-0.00269267
0.000542321
-0.00274138
0.0014044
-0.00267161
0.00220283
-0.00247946
0.0028996
-0.00216935
0.00345993
-0.00175077
0.00385564
-0.00123844
0.00405766
-0.00064741
0.00405202
-3.7077e-07
0.00383605
0.000673034
0.00341537
0.00131355
0.00280637
0.00189992
0.00203572
0.00240364
0.00114295
0.00278991
0.000174613
0.00302919
-0.000818075
0.00310526
-0.00177371
0.00299606
-0.00263458
0.00270489
-0.00334418
0.00224039
-0.00385744
0.00162812
-0.00413264
0.000893437
-0.00415028
9.35051e-05
-0.00389653
-0.000778819
-0.00338932
-0.00157695
-0.00265605
-0.0022845
-0.00174422
-0.002845
-0.00071911
-0.00321074
0.00034794
-0.00334694
0.00137118
-0.00322041
0.00227028
-0.00284166
0.00297124
-0.00222872
0.0034113
-0.00142278
0.00354625
-0.000485685
0.00336078
0.000538838
0.00286899
0.00150274
0.00210932
0.00234172
0.00114674
0.00297864
7.19747e-05
0.00333785
-0.00100764
0.00337113
-0.00198295
0.00305823
-0.00275321
0.00242755
-0.0032306
0.00152939
-0.00336111
0.000458313
-0.00312065
-0.000720127
-0.00253603
-0.00179719
-0.00166813
-0.00268175
-0.000616157
-0.00326192
0.000492093
-0.00345313
0.00151245
-0.00319686
0.00231293
-0.00253032
0.00278859
-0.00153074
0.00286552
-0.000319303
0.00253509
0.000973531
0.00184197
0.00209792
0.000886235
0.00291966
-0.000187635
0.00330253
-0.00120523
0.00314765
-0.00200278
0.00248661
-0.00244755
0.0014157
-0.00246114
0.000106211
-0.00203781
-0.0012599
-0.00125473
-0.00237056
-0.000252316
-0.00305552
0.000782072
-0.00316616
0.00163788
-0.00263014
0.00214215
-0.00156324
0.00218553
-0.000167098
0.00175471
0.00131206
0.000933851
0.00250592
-0.000102634
0.00317222
-0.00111757
0.00311198
-0.00187256
0.00231813
-0.00218336
0.000955095
-0.00195966
-0.000694566
-0.00124538
-0.00220257
-0.000209412
-0.00319306
0.000888007
-0.00338448
0.00174781
-0.00265421
0.0021279
-0.00117525
0.00190557
0.000685544
0.00112529
0.00240523
0.00346945
-0.000321227
-0.000494235
-0.000592596
-0.000625373
-0.000825876
-0.000708741
-0.00100138
-0.000827346
-0.00111172
-0.00096643
-0.00114462
-0.00113561
-0.0011395
-0.00127038
-0.00110477
-0.00140933
-0.0011308
-0.00145331
-0.0011674
-0.00154682
-0.00116946
-0.00166874
-0.00107761
-0.00184687
-0.000870513
-0.00204242
-0.000535883
-0.00225064
-7.05508e-05
-0.00245828
0.000522525
-0.00265919
0.00123702
-0.00284463
0.00206029
-0.00300866
0.00297867
-0.00314358
0.00397419
-0.00324763
0.00502379
-0.00331006
0.00611286
-0.00333789
0.00721812
-0.00331787
0.00832312
-0.00325942
0.00939839
-0.00314309
0.0104336
-0.00299486
0.0113943
-0.0027813
0.0122789
-0.00254929
0.0130442
-0.00224339
0.0136845
-0.00192007
0.0141826
-0.00156054
0.0145383
-0.00119413
0.0147555
-0.000823882
0.0148426
-0.00046049
0.0148114
-0.000111103
0.0146874
0.000228089
0.0144794
0.000555811
0.0141886
0.000869625
0.0138194
0.00116766
0.0133779
0.00144963
0.012871
0.00171435
0.0123054
0.00196216
0.0116878
0.00219263
0.0110239
0.00240534
0.0103188
0.00260081
0.00957822
0.00277751
0.00880681
0.00293658
0.00800877
0.00307561
0.00718954
0.00319551
0.0063536
0.00329415
0.00550527
0.00337283
0.0046513
0.00342819
0.00379397
0.00346252
0.00294074
0.00347224
0.00209781
0.00345732
0.00126898
0.00341857
0.000461785
0.00335279
-0.000318502
0.00326328
-0.00106368
0.00314524
-0.00176657
0.00300204
-0.00242354
0.00283342
-0.00302532
0.0026376
-0.00356764
0.0024186
-0.00404435
0.00217608
-0.00444902
0.0019117
-0.0047755
0.00162553
-0.00502082
0.00132381
-0.00517937
0.00100731
-0.00525311
0.000681128
-0.00523819
0.000346246
-0.00512247
-3.35584e-06
-0.00491864
-0.000347248
-0.00462722
-0.000681425
-0.00424921
-0.00100674
-0.00378943
-0.00131705
-0.00325342
-0.00160602
-0.00264913
-0.00187019
-0.00198382
-0.00210361
-0.00126844
-0.00230064
-0.000514454
-0.00245582
0.000265568
-0.00256716
0.00105795
-0.00262789
0.00184687
-0.00263556
0.0026188
-0.00258863
0.00335765
-0.00248589
0.00404543
-0.00232394
0.00467079
-0.00210812
0.00521293
-0.00183437
0.00566545
-0.00151487
0.0060065
-0.00114347
0.00623636
-0.000739214
0.00633184
-0.000293714
0.00629866
0.000191358
0.00613085
0.000676083
0.00582749
0.00115763
0.00539159
0.00162775
0.00482873
0.00207659
0.00414974
0.00248972
0.00336849
0.00285551
0.00250312
0.00315939
0.00157362
0.00339013
0.000603873
0.0035387
-0.000378383
0.00359273
-0.00134864
0.00355129
-0.00227729
0.00340628
-0.00313542
0.003158
-0.00389432
0.00280939
-0.00452766
0.0023667
-0.00501292
0.0018401
-0.00533216
0.00124477
-0.00547047
0.000595355
-0.00540939
-0.000110907
-0.00515959
-0.000811979
-0.00472145
-0.00149181
-0.00410537
-0.0021292
-0.00333252
-0.00269877
-0.0024282
-0.00317445
-0.00142983
-0.00353075
-0.000369653
-0.00375286
0.000705032
-0.00381606
0.00174897
-0.00371555
0.00271342
-0.00344391
0.00355235
-0.00300829
0.0042267
-0.00242512
0.0046982
-0.00170994
0.00493771
-0.000886918
0.00492628
1.10618e-05
0.00466309
0.000936224
0.00415323
0.0018234
0.00341424
0.00263891
0.00248287
0.00333501
0.00140333
0.00386945
0.000233399
0.00419912
-0.000960507
0.00429916
-0.0021093
0.00414486
-0.00314101
0.00373661
-0.00399147
0.00309084
-0.00459961
0.00223626
-0.00492658
0.00122041
-0.00493508
0.000102009
-0.00462351
-0.00109039
-0.00400665
-0.00219381
-0.00311894
-0.00317221
-0.00201738
-0.00394657
-0.000780309
-0.00444781
0.000501743
-0.004629
0.00172995
-0.00444862
0.00280397
-0.00391568
0.0036361
-0.00306085
0.00415376
-0.00194043
0.00430538
-0.000637305
0.0040702
0.000774011
0.00346522
0.00210772
0.00254005
0.00326689
0.00137309
0.0041456
7.38831e-05
0.00463705
-0.00122651
0.00467152
-0.00239909
0.0042308
-0.00332129
0.00334975
-0.00388794
0.00209604
-0.00402992
0.000600294
-0.00373142
-0.00101862
-0.00301621
-0.0025124
-0.00196016
-0.0037378
-0.000687189
-0.0045349
0.000650367
-0.00479069
0.00187931
-0.00442581
0.00283843
-0.00348944
0.00339621
-0.00208852
0.00347792
-0.000401006
0.0030614
0.00139005
0.00220791
0.00295141
0.00103923
0.00408834
-0.000270088
0.00461185
-0.00150557
0.00438314
-0.00246722
0.00344826
-0.00299556
0.00194404
-0.00299716
0.000107815
-0.00246928
-0.00178778
-0.00150363
-0.00333622
-0.000273822
-0.00428532
0.000988586
-0.00442857
0.00202842
-0.00366998
0.00263689
-0.00217171
0.00268364
-0.000213847
0.00215118
0.00184452
0.00114574
0.00351136
-0.000120547
0.00443851
-0.00135917
0.00435061
-0.00228041
0.00323936
-0.00265684
0.00133153
-0.00238447
-0.000966941
-0.00151359
-0.00307345
-0.00025187
-0.00445479
0.00108332
-0.00471967
0.0021299
-0.0037008
0.00259157
-0.00163692
0.00231996
0.000957159
0.0013697
0.00335549
0.00483915
-0.00144553
0.000951291
-0.00284073
0.000769829
-0.00409134
0.000541869
-0.00508912
0.000170442
-0.00572712
-0.00032843
-0.00589176
-0.000970976
-0.00566377
-0.00149837
-0.00513906
-0.00193403
-0.00460399
-0.00198839
-0.00385995
-0.00229086
-0.00300104
-0.00252765
-0.00207673
-0.00277118
-0.00110156
-0.00301759
-5.54524e-05
-0.00329675
0.00108292
-0.00359665
0.00233189
-0.00390816
0.00370032
-0.00421306
0.00518976
-0.0044981
0.00678749
-0.00474131
0.0084803
-0.00494044
0.0102434
-0.00507318
0.0120497
-0.00514419
0.0138532
-0.00512134
0.0156283
-0.00503451
0.0173085
-0.00482332
0.0188828
-0.00456916
0.0202435
-0.00414196
0.0214534
-0.00375916
0.0222964
-0.00308645
0.0228643
-0.00248801
0.0231282
-0.00182445
0.0231493
-0.00121513
0.0229625
-0.00063709
0.0226086
-0.000106678
0.0220893
0.000408286
0.02144
0.000877395
0.0206867
0.00130909
0.0198501
0.00170622
0.0189478
0.00206993
0.017993
0.00240445
0.0169973
0.00271002
0.0159693
0.00299018
0.0149164
0.00324557
0.0138446
0.00347712
0.0127578
0.00368764
0.0116599
0.00387537
0.0105549
0.0040416
0.00944618
0.0041843
0.00833614
0.00430555
0.00722804
0.00440225
0.006126
0.00447486
0.00503383
0.00452037
0.00395613
0.00454021
0.00289715
0.00453123
0.00186112
0.00449335
0.000854084
0.0044256
-0.000117273
0.00432415
-0.00104698
0.00419299
-0.00192832
0.00402658
-0.00275631
0.00383004
-0.00352158
0.00359868
-0.0042198
0.00333582
-0.00484237
0.00304117
-0.00538268
0.00271638
-0.0058352
0.00236422
-0.00619684
0.00198717
-0.00645988
0.00158685
-0.00662331
0.00117075
-0.00667739
0.000735209
-0.00662311
0.000291959
-0.006465
-0.000161464
-0.00620297
-0.000609277
-0.00583537
-0.00104902
-0.005366
-0.00147612
-0.00480094
-0.00188211
-0.00414705
-0.00225991
-0.00341234
-0.0026049
-0.00260766
-0.00290829
-0.00174651
-0.00316179
-0.000841766
-0.00336056
9.24142e-05
-0.00350134
0.00103934
-0.00357481
0.00198052
-0.00357675
0.00290049
-0.0035086
0.0037766
-0.003362
0.00459692
-0.00314426
0.00533549
-0.00284669
0.0059828
-0.00248168
0.00651371
-0.00204579
0.00692274
-0.00155249
0.00718852
-0.001005
0.00730665
-0.00041184
0.0072687
0.000229301
0.00707194
0.000872843
0.00671541
0.00151417
0.00620249
0.00214067
0.00554076
0.00273832
0.00474441
0.00328607
0.00382869
0.00377123
0.00281346
0.00417461
0.00172465
0.00447894
0.000588966
0.00467438
-0.000562256
0.00474395
-0.00169545
0.00468448
-0.00277833
0.00448916
-0.00377713
0.0041568
-0.00465931
0.00369157
-0.00539324
0.00310063
-0.00595373
0.0024006
-0.00631321
0.00160424
-0.00645626
0.000738409
-0.00637564
-0.000191526
-0.00606932
-0.0011183
-0.00554462
-0.00201651
-0.00480985
-0.00286397
-0.00389051
-0.00361812
-0.00281724
-0.00424772
-0.00163208
-0.00471591
-0.000383956
-0.00500098
0.000883796
-0.00508382
0.00211228
-0.00494403
0.00324633
-0.00457796
0.0042319
-0.00399385
0.00501883
-0.00321205
0.00556818
-0.0022593
0.00584424
-0.00116298
0.00582538
2.99214e-05
0.00550999
0.00125162
0.00490573
0.00242766
0.00403157
0.00351307
0.00293285
0.00443372
0.00166146
0.00514084
0.000287313
0.00557327
-0.00111465
0.00570113
-0.00246006
0.00549027
-0.00366831
0.00494486
-0.00466199
0.00408452
-0.00536948
0.00294375
-0.00574515
0.00159608
-0.00574035
9.72035e-05
-0.0053702
-0.00146054
-0.00463922
-0.00292479
-0.00359138
-0.00422004
-0.00229712
-0.00524083
-0.000842594
-0.00590234
0.000663091
-0.00613468
0.00210126
-0.00588678
0.00335651
-0.00517094
0.00432337
-0.00402771
0.00491693
-0.00253399
0.00508402
-0.000804394
0.00479613
0.0010619
0.00407496
0.00282888
0.00297814
0.00436372
0.00160074
0.005523
7.03998e-05
0.00616739
-0.00145947
0.00620139
-0.00283466
0.00560599
-0.00391066
0.00442576
-0.00456742
0.00275281
-0.00472398
0.000756846
-0.00436242
-0.00138018
-0.00350947
-0.00336535
-0.00225957
-0.0049877
-0.000754169
-0.0060403
0.000823516
-0.00636837
0.00226601
-0.0058683
0.00338753
-0.00461095
0.00403172
-0.00273272
0.00410747
-0.000476752
0.00360137
0.00189615
0.00257878
0.003974
0.00118749
0.00547963
-0.000362958
0.0061623
-0.00182227
0.00584244
-0.00295554
0.00458154
-0.00356986
0.00255836
-0.00355106
8.90132e-05
-0.00291396
-0.00242488
-0.00175812
-0.00449206
-0.000293989
-0.00574945
0.00120594
-0.0059285
0.00243801
-0.00490205
0.00315396
-0.00288767
0.00320307
-0.000262958
0.00256295
0.00248464
0.00136206
0.00471225
-0.000144018
0.00594459
-0.00161407
0.00582066
-0.00270578
0.00433108
-0.00315114
0.00177689
-0.00282663
-0.00129145
-0.00179197
-0.0041081
-0.000293922
-0.00595284
0.00128844
-0.00630202
0.00252732
-0.00493968
0.00307325
-0.00218285
0.00275083
0.00127957
0.00162409
0.00448223
0.00646324
-0.0027459
0.00369719
-0.00534211
0.00336603
-0.00747826
0.00267802
-0.00881258
0.00150477
-0.00906093
-8.00833e-05
-0.00792946
-0.00210245
-0.00591119
-0.00351664
-0.00392164
-0.00392358
-0.00407702
-0.00183301
-0.00554694
-0.000820945
-0.00725047
-0.00082412
-0.00851142
-0.00151023
-0.00908603
-0.00244298
-0.00896303
-0.00341975
-0.00822439
-0.0043353
-0.00696969
-0.00516286
-0.0052967
-0.00588604
-0.00329723
-0.00649756
-0.00104867
-0.00698988
0.00136319
-0.00735229
0.00386002
-0.00757001
0.0064305
-0.00771466
0.00899616
-0.00768701
0.0115286
-0.0075669
0.0139451
-0.00723988
0.0162641
-0.00688817
0.0183741
-0.00625194
0.0203537
-0.00573875
0.0216898
-0.00442255
0.0224587
-0.00325688
0.0227155
-0.00208122
0.0225885
-0.00108818
0.0221916
-0.000240191
0.0215682
0.000516744
0.0208218
0.00115463
0.0199848
0.00171444
0.0190885
0.0022054
0.0181507
0.002644
0.0171858
0.00303481
0.0162011
0.00338914
0.0152016
0.0037095
0.0141893
0.00400249
0.0131662
0.00426867
0.0121317
0.00451164
0.0110877
0.00473167
0.0100351
0.00492795
0.00897333
0.00510337
0.00790332
0.00525431
0.00682639
0.00538248
0.00574626
0.00548237
0.00466506
0.00555606
0.00358394
0.00560149
0.00250989
0.00561426
0.00144652
0.0055946
0.000402565
0.0055373
-0.000617162
0.00544533
-0.00160597
0.00531296
-0.00255653
0.00514355
-0.00345945
0.0049295
-0.00430771
0.00467829
-0.00509453
0.00438551
-0.00580986
0.00405115
-0.00644493
0.00367624
-0.00699386
0.00326531
-0.00744631
0.00281667
-0.00779584
0.0023367
-0.00804245
0.00183345
-0.00817118
0.00129948
-0.00818509
0.00074912
-0.00808052