/*--------------------------------*- C++ -*----------------------------------*\
  =========                 |
  \\      /  F ield         | OpenFOAM: The Open Source CFD Toolbox
   \\    /   O peration     | Website:  https://openfoam.org
    \\  /    A nd           | Version:  12
     \\/     M anipulation  |
\*---------------------------------------------------------------------------*/
FoamFile
{
    format      ascii;
    class       volScalarField;
    location    "9.96";
    object      p_rgh;
}
// * * * * * * * * * * * * * * * * * * * * * * * * * * * * * * * * * * * * * //

dimensions      [1 -1 -2 0 0 0 0];

internalField   nonuniform List<scalar> 
3829
(
-2.92475
-2.92374
-2.92166
-2.91849
-2.91415
-2.90861
-2.90178
-2.8936
-2.88399
-2.87288
-2.86017
-2.84577
-2.82959
-2.81151
-2.79145
-2.76928
-2.74493
-2.7183
-2.6893
-2.65786
-2.62393
-2.58745
-2.54841
-2.50679
-2.46262
-2.41593
-2.36679
-2.31529
-2.26154
-2.2057
-2.14793
-2.08842
-2.02741
-1.96513
-1.90186
-1.83787
-1.77347
-1.70895
-1.64465
-1.58088
-1.51798
-1.45626
-1.3962
-1.33809
-1.28225
-1.22895
-1.17845
-1.13098
-1.08673
-1.04587
-1.00852
-0.974793
-0.944735
-0.918377
-0.89571
-0.876687
-0.86122
-0.849171
-0.840353
-0.834526
-0.831412
-0.830685
-0.831982
-0.834898
-0.838997
-0.843816
-0.848867
-0.853651
-0.857661
-0.86038
-0.861294
-0.859931
-0.855831
-0.848575
-0.837784
-0.823138
-0.804392
-0.781375
-0.754017
-0.721952
-0.68552
-0.644973
-0.600617
-0.552819
-0.502028
-0.448816
-0.393846
-0.337789
-0.281665
-0.226244
-0.172426
-0.12114
-0.0733221
-0.0298594
0.00840496
0.0407038
0.0663955
0.0849441
0.0960372
0.0985181
0.0929277
0.0796381
0.0590902
0.0318483
-0.00133412
-0.0394749
-0.0814086
-0.125815
-0.17126
-0.216187
-0.259073
-0.298377
-0.332655
-0.360593
-0.381092
-0.3933
-0.396696
-0.390011
-0.374102
-0.349601
-0.317297
-0.278315
-0.23414
-0.186509
-0.137061
-0.0886048
-0.0428136
-0.00171783
0.0328556
0.0593982
0.0768047
0.0844168
0.0814315
0.0687948
0.0474587
0.0187987
-0.0153307
-0.0527258
-0.0910066
-0.127423
-0.159716
-0.185718
-0.203702
-0.212533
-0.211707
-0.200997
-0.181691
-0.155253
-0.123726
-0.08955
-0.0553572
-0.0238816
0.00259008
0.0221545
0.0335866
0.0364177
0.0307123
0.0177442
-0.000853049
-0.022928
-0.0461244
-0.0680745
-0.0868098
-0.100806
-0.109221
-0.112053
-0.10999
-0.10304
-0.0952007
-0.0873662
-0.0811542
-0.0780536
-0.0790051
-0.0842151
-0.0931896
-0.104791
-0.117394
-0.129119
-0.138097
-0.142759
-0.141767
-0.134776
-0.122026
-0.104425
-0.0835812
-0.0614945
-0.0402013
-0.0224902
-0.0101987
-0.00471855
-0.00683777
-0.0170764
-0.0343956
-0.0574695
-0.0843781
-0.112683
-0.143013
-0.166472
-0.183608
-0.192734
-3.01765
-3.01698
-3.01559
-3.01345
-3.01048
-3.00658
-3.00167
-2.9956
-2.98824
-2.97944
-2.96901
-2.9568
-2.94263
-2.92632
-2.90771
-2.8866
-2.86283
-2.83619
-2.80654
-2.77371
-2.73758
-2.69806
-2.65509
-2.60863
-2.55871
-2.50539
-2.44877
-2.38899
-2.32621
-2.26065
-2.19253
-2.12214
-2.04981
-1.97588
-1.90076
-1.82486
-1.74864
-1.67255
-1.59703
-1.52252
-1.44941
-1.37788
-1.30933
-1.24395
-1.18201
-1.12374
-1.0694
-1.01918
-0.973281
-0.931848
-0.895008
-0.862849
-0.835418
-0.812718
-0.794703
-0.78127
-0.772274
-0.767504
-0.766691
-0.7695
-0.775548
-0.784393
-0.795554
-0.808494
-0.822649
-0.837424
-0.852196
-0.866326
-0.879172
-0.890087
-0.898463
-0.903703
-0.905239
-0.902558
-0.895206
-0.882792
-0.865013
-0.841648
-0.812395
-0.777406
-0.73688
-0.691059
-0.640303
-0.585099
-0.526061
-0.463918
-0.399519
-0.333475
-0.267502
-0.202321
-0.139065
-0.0788952
-0.0229731
0.0276024
0.0717787
0.108623
0.137343
0.157276
0.167896
0.168537
0.159549
0.141235
0.114063
0.0787525
0.0362964
-0.0120587
-0.0648539
-0.120452
-0.177085
-0.232816
-0.285775
-0.334085
-0.375976
-0.409866
-0.434391
-0.448553
-0.451661
-0.443024
-0.42319
-0.392791
-0.352836
-0.304826
-0.250665
-0.192519
-0.132647
-0.0740574
-0.0190553
0.02988
0.0705356
0.101082
0.120193
0.127148
0.121591
0.10427
0.076344
0.0396539
-0.00341944
-0.0501575
-0.0977785
-0.142525
-0.181805
-0.21303
-0.234157
-0.243833
-0.241483
-0.227502
-0.203021
-0.170019
-0.131108
-0.0893304
-0.0478315
-0.0102228
0.0208495
0.0431692
0.0553278
0.0568181
0.0482769
0.0310018
0.00722736
-0.0203036
-0.0486541
-0.0748921
-0.0966546
-0.112162
-0.120475
-0.121886
-0.117522
-0.106676
-0.0956405
-0.084688
-0.0760178
-0.0714464
-0.0720808
-0.0782573
-0.0891437
-0.103309
-0.118741
-0.133178
-0.144421
-0.150415
-0.149921
-0.142401
-0.128162
-0.108405
-0.0849319
-0.0600447
-0.0358769
-0.0160005
-0.00220713
0.00392199
0.00147193
-0.00957868
-0.0285155
-0.0537954
-0.0833067
-0.115175
-0.146403
-0.172203
-0.190872
-0.200818
-3.1565
-3.15694
-3.1578
-3.15901
-3.16045
-3.16195
-3.16331
-3.16425
-3.16447
-3.16363
-3.16138
-3.15738
-3.15123
-3.14249
-3.13072
-3.11545
-3.09626
-3.07272
-3.04447
-3.01117
-2.97255
-2.92841
-2.8786
-2.82308
-2.76188
-2.69511
-2.62299
-2.54581
-2.46393
-2.37782
-2.28798
-2.19499
-2.09947
-2.00206
-1.90339
-1.80414
-1.705
-1.60669
-1.50991
-1.41537
-1.32386
-1.23647
-1.15295
-1.07393
-0.999957
-0.931512
-0.868994
-0.812732
-0.762994
-0.719981
-0.683826
-0.654596
-0.632289
-0.616836
-0.608094
-0.605819
-0.609685
-0.619292
-0.634176
-0.653796
-0.677557
-0.704797
-0.734801
-0.766794
-0.799964
-0.833474
-0.866463
-0.898029
-0.927306
-0.953416
-0.975515
-0.992805
-1.00454
-1.01004
-1.00873
-1.00016
-0.984049
-0.960261
-0.926486
-0.885142
-0.836178
-0.779823
-0.716535
-0.647015
-0.572123
-0.492877
-0.410454
-0.326119
-0.241416
-0.157772
-0.0767356
0.000108074
0.0711977
0.135039
0.190207
0.235428
0.269637
0.292027
0.301888
0.298864
0.283123
0.254979
0.215059
0.16441
0.104436
0.0368718
-0.0362629
-0.112716
-0.190456
-0.266176
-0.337745
-0.402645
-0.458521
-0.503239
-0.535071
-0.552673
-0.555056
-0.542252
-0.514473
-0.472529
-0.417934
-0.352839
-0.279884
-0.202021
-0.1225
-0.0451541
0.0268251
0.0901381
0.141884
0.179676
0.201747
0.207178
0.196237
0.169617
0.129002
0.0770708
0.0172121
-0.0466892
-0.11244
-0.172259
-0.224282
-0.264971
-0.291652
-0.302595
-0.29726
-0.27654
-0.241951
-0.196412
-0.143641
-0.087954
-0.0322068
0.0163257
0.0556457
0.0827682
0.0959611
0.0947858
0.080394
0.0547585
0.0211124
-0.0166951
-0.0546487
-0.0887288
-0.115882
-0.13386
-0.141669
-0.139871
-0.130025
-0.114082
-0.0960772
-0.0791309
-0.0659123
-0.0587024
-0.0587826
-0.0670023
-0.0815807
-0.100539
-0.121197
-0.140565
-0.155964
-0.164468
-0.164745
-0.156182
-0.139257
-0.115531
-0.08732
-0.0574182
-0.0281377
-0.00444756
0.011956
0.0192362
0.0163883
0.00367471
-0.0182016
-0.0473408
-0.081078
-0.118748
-0.1532
-0.182513
-0.203715
-0.215057
-3.26753
-3.27067
-3.27697
-3.28633
-3.29856
-3.31337
-3.33034
-3.34892
-3.36842
-3.38801
-3.40673
-3.42362
-3.4378
-3.44837
-3.45438
-3.45487
-3.44886
-3.43546
-3.41383
-3.38326
-3.34319
-3.29323
-3.23319
-3.16304
-3.08297
-2.99338
-2.89482
-2.78801
-2.67378
-2.55299
-2.42655
-2.29549
-2.16098
-2.02421
-1.8864
-1.74873
-1.61227
-1.47805
-1.34696
-1.21973
-1.09671
-0.984744
-0.880717
-0.784792
-0.697283
-0.618528
-0.548841
-0.488509
-0.437756
-0.39675
-0.36559
-0.344277
-0.33271
-0.330692
-0.337919
-0.35398
-0.37835
-0.410407
-0.449439
-0.494633
-0.545094
-0.599844
-0.657849
-0.717992
-0.77913
-0.839897
-0.899387
-0.956221
-1.00916
-1.05701
-1.0986
-1.13282
-1.15863
-1.17516
-1.18155
-1.17708
-1.16115
-1.13324
-1.09505
-1.0452
-0.984013
-0.912046
-0.83015
-0.739395
-0.641056
-0.536597
-0.427705
-0.316226
-0.204179
-0.0936228
0.0132809
0.114338
0.207392
0.290393
0.361391
0.41862
0.460631
0.486242
0.494816
0.486135
0.460151
0.417275
0.358468
0.285275
0.199682
0.104125
0.001418
-0.105356
-0.212871
-0.317529
-0.415886
-0.504506
-0.58024
-0.640233
-0.682135
-0.704106
-0.705264
-0.685708
-0.645636
-0.58634
-0.510069
-0.41986
-0.319437
-0.212976
-0.105122
-0.000777445
0.0954671
0.179172
0.246443
0.294149
0.320057
0.322873
0.30336
0.26252
0.202993
0.128556
0.0439109
-0.0457059
-0.134923
-0.21707
-0.287407
-0.341417
-0.37565
-0.387936
-0.377697
-0.346449
-0.296648
-0.232523
-0.159257
-0.0826505
-0.00884359
0.0559322
0.106933
0.140537
0.15471
0.149097
0.125571
0.0873754
0.0391799
-0.0136367
-0.0653016
-0.110459
-0.145043
-0.166216
-0.172729
-0.165841
-0.148164
-0.123096
-0.0954074
-0.0700065
-0.0504775
-0.039761
-0.0388151
-0.050684
-0.0706837
-0.0965527
-0.124651
-0.150837
-0.172395
-0.184183
-0.185413
-0.175291
-0.154564
-0.125275
-0.0905536
-0.0542353
-0.017091
0.0112863
0.0311033
0.0399044
0.036596
0.021449
-0.00446895
-0.0389224
-0.0790589
-0.122352
-0.162243
-0.19613
-0.220868
-0.234051
-3.2853
-3.29348
-3.31006
-3.3351
-3.36847
-3.40979
-3.45836
-3.51294
-3.57212
-3.63422
-3.69738
-3.75947
-3.81799
-3.87064
-3.91517
-3.94951
-3.97186
-3.98059
-3.9743
-3.95184
-3.9123
-3.85508
-3.7799
-3.68689
-3.57657
-3.44985
-3.30805
-3.15274
-2.98568
-2.80874
-2.62406
-2.43386
-2.24034
-2.04567
-1.85184
-1.6607
-1.47397
-1.29321
-1.11988
-0.955522
-0.802043
-0.657492
-0.524485
-0.403879
-0.296323
-0.202328
-0.122272
-0.0564096
-0.00488754
0.0322689
0.0551687
0.0640259
0.0591874
0.0411525
0.0105587
-0.0318535
-0.0852228
-0.148582
-0.220866
-0.300904
-0.387427
-0.479052
-0.574325
-0.671713
-0.769511
-0.866278
-0.960275
-1.04983
-1.13327
-1.20895
-1.27535
-1.33101
-1.37456
-1.40478
-1.42067
-1.42143
-1.40629
-1.37432
-1.32668
-1.26312
-1.18403
-1.09021
-0.982831
-0.863351
-0.733541
-0.595423
-0.45134
-0.303856
-0.155697
-0.00971217
0.131131
0.263853
0.385526
0.493385
0.584845
0.65756
0.709526
0.739206
0.74558
0.728857
0.688784
0.626029
0.542041
0.438986
0.319611
0.187279
0.0458418
-0.100478
-0.246993
-0.389048
-0.521938
-0.641035
-0.742073
-0.821344
-0.875658
-0.902907
-0.901628
-0.872285
-0.815268
-0.73255
-0.627357
-0.50395
-0.367422
-0.223467
-0.078609
0.0606982
0.188211
0.297968
0.384778
0.444583
0.474599
0.473295
0.441708
0.381558
0.296719
0.192441
0.075256
-0.0476183
-0.168229
-0.278817
-0.372393
-0.442972
-0.486151
-0.499518
-0.481942
-0.436106
-0.365826
-0.277009
-0.176856
-0.0732991
0.0248006
0.109894
0.175406
0.216607
0.2311
0.218867
0.182724
0.127562
0.0599718
-0.0125855
-0.0818659
-0.14113
-0.184854
-0.209708
-0.213557
-0.199334
-0.170953
-0.133359
-0.0929641
-0.0566543
-0.0292585
-0.0148951
-0.015994
-0.0299083
-0.0566064
-0.0914436
-0.129232
-0.164632
-0.192654
-0.208974
-0.211353
-0.199146
-0.173502
-0.137165
-0.0941872
-0.0492968
-0.00437105
0.0303111
0.0543321
0.0649228
0.0609393
0.0427577
0.0119421
-0.0288661
-0.0768195
-0.126676
-0.173121
-0.212399
-0.241344
-0.256692
-2.94967
-2.96696
-3.00446
-3.06224
-3.13984
-3.23619
-3.34952
-3.47729
-3.61627
-3.76276
-3.91287
-4.06256
-4.20786
-4.34474
-4.46924
-4.57709
-4.66459
-4.7281
-4.76421
-4.76989
-4.74295
-4.68213
-4.58731
-4.45932
-4.29983
-4.1112
-3.89656
-3.65964
-3.40477
-3.13657
-2.85968
-2.57843
-2.29667
-2.0177
-1.74438
-1.47917
-1.22419
-0.98125
-0.751735
-0.536457
-0.335503
-0.158801
-0.000906644
0.13848
0.2592
0.361042
0.443793
0.507308
0.551578
0.576766
0.583158
0.571225
0.54158
0.494978
0.432323
0.354663
0.263207
0.159289
0.0443757
-0.0799389
-0.21194
-0.349757
-0.491452
-0.634946
-0.77817
-0.91896
-1.05513
-1.18447
-1.3048
-1.41398
-1.51003
-1.59103
-1.65525
-1.70125
-1.72779
-1.73402
-1.71973
-1.67981
-1.61933
-1.53778
-1.4356
-1.31386
-1.17412
-1.01837
-0.849011
-0.668769
-0.480784
-0.288504
-0.0955782
0.0942012
0.276903
0.448563
0.605264
0.743378
0.859557
0.950765
1.01447
1.04868
1.0519
1.02462
0.966566
0.878755
0.763257
0.623023
0.461755
0.283962
0.094822
-0.10005
-0.294395
-0.482103
-0.656904
-0.812794
-0.944253
-1.04631
-1.11512
-1.14786
-1.14267
-1.10026
-1.02148
-0.909196
-0.767807
-0.60307
-0.421854
-0.231777
-0.0415438
0.140417
0.305824
0.446885
0.556875
0.630533
0.664402
0.657145
0.609717
0.525022
0.408386
0.266973
0.10956
-0.0542479
-0.213494
-0.35843
-0.479737
-0.569679
-0.622766
-0.636434
-0.608703
-0.544135
-0.44808
-0.3285
-0.195079
-0.0583682
0.0694599
0.178849
0.261242
0.310753
0.324734
0.303225
0.250744
0.174108
0.0822786
-0.0147541
-0.105535
-0.181446
-0.235499
-0.264653
-0.263666
-0.239741
-0.197642
-0.144252
-0.0881584
-0.0385299
-0.00166951
0.0172415
0.015787
-0.0036614
-0.0392891
-0.0852881
-0.134847
-0.181063
-0.217224
-0.238541
-0.242051
-0.227167
-0.195561
-0.150835
-0.0980836
-0.0429142
0.00995502
0.0521366
0.0809205
0.0934039
0.0884896
0.0667703
0.0303865
-0.0173919
-0.0745191
-0.131808
-0.185501
-0.231016
-0.264358
-0.28206
-2.2746
-2.32624
-2.42545
-2.56717
-2.74284
-2.94851
-3.19612
-3.47757
-3.78405
-4.10586
-4.43343
-4.75614
-5.06414
-5.34822
-5.6002
-5.81309
-5.98111
-6.09969
-6.16544
-6.17609
-6.13042
-6.02775
-5.86844
-5.65371
-5.38652
-5.07159
-4.71629
-4.33023
-3.92532
-3.51185
-3.09637
-2.68521
-2.28346
-1.89518
-1.52353
-1.17088
-0.839183
-0.530075
-0.245225
0.0137841
0.244311
0.456343
0.643446
0.80447
0.939126
1.04742
1.12957
1.18597
1.2171
1.22353
1.206
1.16535
1.1026
1.01888
0.91544
0.793714
0.655287
0.501894
0.335449
0.158011
-0.0282092
-0.220819
-0.417335
-0.615107
-0.81145
-1.0036
-1.18878
-1.36417
-1.527
-1.67456
-1.80431
-1.91383
-2.0009
-2.06353
-2.10004
-2.10875
-2.08843
-2.04345
-1.96905
-1.86619
-1.73616
-1.58066
-1.4019
-1.20255
-0.985785
-0.755226
-0.514969
-0.269477
-0.023516
0.217983
0.449961
0.667332
0.865093
1.03852
1.1833
1.29564
1.37237
1.41102
1.41027
1.36983
1.28981
1.17182
1.01865
0.834145
0.623199
0.391711
0.146365
-0.105571
-0.35598
-0.597024
-0.820647
-1.01909
-1.18539
-1.31338
-1.39813
-1.43602
-1.42547
-1.36665
-1.26131
-1.11341
-0.928779
-0.714959
-0.480895
-0.23645
0.00698762
0.238725
0.448048
0.625063
0.761367
0.850364
0.887784
0.872213
0.805033
0.690533
0.535787
0.350197
0.145162
-0.0667215
-0.271305
-0.456051
-0.609092
-0.720724
-0.784005
-0.795151
-0.75592
-0.668765
-0.541747
-0.385502
-0.21277
-0.0368914
0.125541
0.262743
0.364034
0.422136
0.433682
0.400778
0.328286
0.225759
0.105086
-0.0212308
-0.136936
-0.231629
-0.296282
-0.325015
-0.321808
-0.286327
-0.227513
-0.155121
-0.0805503
-0.0153691
0.0322694
0.0561367
0.053817
0.0273962
-0.0190956
-0.0783151
-0.141538
-0.200116
-0.245613
-0.272363
-0.276898
-0.258736
-0.220205
-0.16592
-0.102189
-0.0358707
0.0262539
0.0763641
0.110196
0.12457
0.11844
0.0927193
0.0501904
-0.00453818
-0.0726864
-0.137512
-0.19896
-0.251094
-0.289151
-0.309347
-0.48021
-0.553445
-0.703639
-0.937436
-1.26378
-1.6841
-2.19007
-2.73338
-3.30751
-3.88887
-4.46241
-5.01415
-5.53262
-6.00788
-6.43242
-6.79873
-7.10016
-7.3307
-7.48367
-7.55466
-7.53982
-7.4363
-7.24257
-6.95845
-6.58725
-6.13285
-5.60678
-5.02716
-4.4247
-3.81926
-3.22752
-2.65636
-2.11094
-1.59477
-1.11106
-0.662154
-0.249441
0.12671
0.466789
0.771375
1.03981
1.27116
1.4686
1.63323
1.7656
1.86611
1.9352
1.97337
1.98131
1.95978
1.90969
1.83207
1.72816
1.59933
1.44716
1.2734
1.08003
0.869225
0.643337
0.404934
0.156756
-0.0982161
-0.356904
-0.616035
-0.872253
-1.12214
-1.36223
-1.58907
-1.7992
-1.98928
-2.15618
-2.29695
-2.40888
-2.48962
-2.53712
-2.54993
-2.52689
-2.46884
-2.37477
-2.24534
-2.08197
-1.88676
-1.66249
-1.4126
-1.14113
-0.85268
-0.552464
-0.24612
0.0603572
0.360744
0.648654
0.917765
1.16184
1.37501
1.55187
1.68771
1.77869
1.8219
1.81533
1.75896
1.65323
1.50029
1.30371
1.06843
0.800658
0.507889
0.198573
-0.118201
-0.432044
-0.73316
-1.01156
-1.25766
-1.46266
-1.61908
-1.72079
-1.76382
-1.74571
-1.66712
-1.53069
-1.34154
-1.1071
-0.837017
-0.542684
-0.236432
0.0672257
0.354985
0.61348
0.830452
0.995535
1.1008
1.14149
1.11501
1.02431
0.875078
0.676322
0.440119
0.180786
-0.085996
-0.341767
-0.571033
-0.759206
-0.89447
-0.968438
-0.976889
-0.922033
-0.807899
-0.644827
-0.446559
-0.229361
-0.00795022
0.19289
0.360826
0.482636
0.549486
0.557856
0.510122
0.413766
0.281196
0.127783
-0.0330032
-0.176296
-0.291678
-0.368122
-0.399673
-0.388585
-0.338405
-0.259806
-0.165409
-0.0698657
0.0127781
0.0722308
0.101158
0.0971026
0.0625112
0.00344751
-0.0708018
-0.149331
-0.221603
-0.277305
-0.309797
-0.315174
-0.293157
-0.246847
-0.182025
-0.106376
-0.0281485
0.0441316
0.10248
0.141486
0.15767
0.150052
0.119914
0.0706293
0.00720634
-0.0693664
-0.143438
-0.213129
-0.272119
-0.315065
-0.337828
1.69896
1.56114
1.28237
0.861008
0.297365
-0.402703
-1.23034
-2.2105
-3.24816
-4.29994
-5.37205
-6.42258
-7.39095
-8.25737
-9.00776
-9.63309
-10.127
-10.4839
-10.6988
-10.7677
-10.6878
-10.4564
-10.0753
-9.54237
-8.86186
-8.04211
-7.09249
-6.06417
-5.05122
-4.09306
-3.20867
-2.40054
-1.66736
-1.00822
-0.418895
0.107571
0.577147
0.994753
1.36356
1.68522
1.9633
2.20602
2.40845
2.57093
2.69448
2.78011
2.82878
2.8414
2.81889
2.76226
2.67261
2.5512
2.39942
2.21889
2.01147
1.77921
1.52447
1.24983
0.958141
0.652467
0.336115
0.0126757
-0.314125
-0.640315
-0.961838
-1.27456
-1.57428
-1.85683
-2.11802
-2.35383
-2.5605
-2.73448
-2.87249
-2.97179
-3.03005
-3.0455
-3.01707
-2.94447
-2.82769
-2.66773
-2.46636
-2.22619
-1.95071
-1.64417
-1.3116
-0.958661
-0.591805
-0.217987
0.15543
0.520836
0.870355
1.19627
1.491
1.74744
1.95905
2.12012
2.226
2.27324
2.25973
2.18509
2.05029
1.85811
1.61304
1.32123
0.990425
0.629866
0.249951
-0.138278
-0.521815
-0.888796
-1.227
-1.52476
-1.77157
-1.95826
-2.07768
-2.12488
-2.09756
-1.99625
-1.82462
-1.58915
-1.29918
-0.966617
-0.605507
-0.231127
0.138694
0.487774
0.799795
1.05993
1.25567
1.37751
1.41975
1.38081
1.26342
1.07502
0.827144
0.534801
0.215432
-0.112574
-0.424275
-0.701831
-0.927819
-1.08808
-1.17279
-1.17742
-1.10383
-0.958778
-0.755055
-0.509947
-0.244403
0.0286909
0.270562
0.471644
0.615172
0.690605
0.694141
0.629048
0.50534
0.338911
0.149912
-0.0506729
-0.223137
-0.360727
-0.44943
-0.482726
-0.46226
-0.394834
-0.293694
-0.174669
-0.0560239
0.0456133
0.117596
0.151481
0.144812
0.100902
0.0277665
-0.0630187
-0.158151
-0.245299
-0.31173
-0.350111
-0.356094
-0.329696
-0.27488
-0.19875
-0.110515
-0.0197787
0.0631914
0.129945
0.174133
0.191984
0.182641
0.147763
0.0913612
0.0188458
-0.0659438
-0.149581
-0.227714
-0.293642
-0.341523
-0.366867
5.91296
5.72177
5.33059
4.72235
3.88097
2.75835
1.2526
-0.619398
-3.12832
-5.20371
-6.9261
-8.34654
-9.54444
-10.5539
-11.4187
-12.1598
-12.768
-13.2209
-13.5053
-13.6123
-13.5355
-13.2697
-12.8236
-12.1847
-11.325
-10.2056
-8.67233
-6.54309
-4.9568
-3.63024
-2.54609
-1.62493
-0.801035
-0.0737657
0.563092
1.12626
1.62334
2.05924
2.43864
2.76641
3.04663
3.27548
3.46066
3.60347
3.7047
3.76493
3.78473
3.76472
3.70564
3.60836
3.47395
3.30371
3.09917
2.86211
2.59461
2.29903
1.9781
1.63482
1.27252
0.894805
0.505571
0.109058
-0.290338
-0.687898
-1.07881
-1.45818
-1.82104
-2.16243
-2.4774
-2.7612
-3.0094
-3.21781
-3.3826
-3.50056
-3.569
-3.58583
-3.54994
-3.46072
-3.31853
-3.12469
-2.88143
-2.59196
-2.26051
-1.89227
-1.49331
-1.07051
-0.631615
-0.184966
0.260551
0.695823
1.11147
1.49818
1.84697
2.1494
2.39771
2.58515
2.70627
2.75699
2.73528
2.64029
2.47354
2.23851
1.94071
1.58767
1.18875
0.755099
0.299217
-0.165825
-0.624011
-1.06126
-1.46311
-1.8157
-2.10654
-2.32484
-2.46221
-2.51304
-2.47454
-2.34784
-2.1375
-1.85148
-1.50115
-1.10102
-0.668075
-0.220258
0.220405
0.634887
1.00376
1.30943
1.53711
1.6757
1.7183
1.66492
1.51783
1.28644
0.985156
0.632245
0.248769
-0.146789
-0.517533
-0.846098
-1.11186
-1.29799
-1.39307
-1.39222
-1.29763
-1.11838
-0.870082
-0.573763
-0.254078
0.0692566
0.356837
0.593227
0.759252
0.842876
0.840032
0.755229
0.601105
0.397223
0.167549
-0.0708111
-0.276321
-0.437488
-0.538541
-0.572437
-0.541199
-0.454384
-0.32837
-0.182584
-0.0391432
0.0826042
0.167531
0.206129
0.196035
0.141732
0.0532607
-0.0552502
-0.167892
-0.270851
-0.34824
-0.392526
-0.398846
-0.36759
-0.303714
-0.215734
-0.114408
-0.0109049
0.0830491
0.158234
0.207515
0.226856
0.21559
0.175757
0.11205
0.0305402
-0.0628669
-0.155909
-0.242456
-0.315266
-0.368027
-0.395922
11.6434
11.4132
10.935
10.1665
9.03641
7.46348
5.37253
2.74137
-1.02508
-4.148
-6.89187
-9.333
-11.48
-13.3281
-14.8588
-16.0634
-16.9632
-17.5888
-17.9548
-18.0641
-17.9087
-17.4686
-16.7219
-15.6036
-14.1183
-12.3199
-10.0712
-6.45416
-4.40776
-2.9525
-1.57727
-0.402424
0.540699
1.30555
1.8932
2.41451
2.8749
3.27845
3.62869
3.93055
4.18542
4.39482
4.55881
4.67838
4.75359
4.78463
4.77182
4.71558
4.61649
4.47531
4.29305
4.07097
3.81067
3.51408
3.18348
2.82152
2.4313
2.01626
1.58021
1.12731
0.66208
0.189417
-0.285557
-0.757339
-1.22034
-1.66885
-2.09711
-2.49934
-2.86979
-3.20294
-3.49366
-3.73709
-3.92884
-4.0652
-4.1431
-4.16024
-4.11515
-4.00737
-3.83744
-3.607
-3.31876
-2.97657
-2.58551
-2.15172
-1.6824
-1.18568
-0.670698
-0.147265
0.374138
0.882802
1.36775
1.81812
2.22333
2.57359
2.8599
3.07443
3.2109
3.2647
3.23334
3.11618
2.91511
2.6344
2.28059
1.86272
1.39192
0.881383
0.34583
-0.200673
-0.736751
-1.24734
-1.71549
-2.12499
-2.46128
-2.71189
-2.86713
-2.92089
-2.86955
-2.71526
-2.46338
-2.12352
-1.70924
-1.23777
-0.728979
-0.204075
0.310815
0.793565
1.22152
1.57422
1.83457
1.98991
2.03278
1.96228
1.78274
1.50532
1.14715
0.730395
0.280702
-0.188431
-0.619625
-1.00102
-1.30778
-1.52018
-1.62514
-1.61732
-1.49975
-1.28368
-0.98774
-0.637075
-0.260195
0.114985
0.450387
0.72333
0.912181
1.00342
0.992825
0.886302
0.699302
0.455241
0.181991
-0.0946504
-0.335042
-0.520505
-0.633711
-0.667168
-0.623804
-0.51584
-0.363128
-0.188943
-0.0195047
0.123046
0.221058
0.26401
0.249767
0.18415
0.0793811
-0.0477873
-0.178987
-0.297245
-0.386136
-0.436258
-0.442636
-0.40614
-0.332809
-0.232649
-0.118015
-0.00161028
0.103351
0.186853
0.241063
0.261707
0.248358
0.203446
0.132408
0.0420387
-0.0601343
-0.162339
-0.257123
-0.336647
-0.394162
-0.424534
18.3232
18.2084
17.9852
17.6631
17.284
16.8865
16.7007
16.1913
-0.28941
0.301854
0.748413
1.25756
1.71443
2.23674
2.73781
3.27909
3.75206
4.16952
4.53653
4.85548
5.12631
5.35065
5.53728
5.67531
5.76739
5.81327
5.81265
5.76534
5.67133
5.53088
5.34451
5.11309
4.83785
4.52043
4.16287
3.7677
3.33782
2.87673
2.38829
1.87682
1.34709
0.804202
0.253739
-0.298392
-0.84589
-1.38237
-1.9013
-2.39607
-2.86008
-3.28675
-3.66977
-4.00327
-4.28176
-4.50021
-4.65445
-4.741
-4.75725
-4.70171
-4.57385
-4.37439
-4.10533
-3.7699
-3.37261
-2.91941
-2.41745
-1.87512
-1.30184
-0.70815
-0.105391
0.494278
1.07851
1.63469
2.15034
2.61333
3.01243
3.33735
3.57919
3.7308
3.78701
3.74502
3.60431
3.36721
3.03876
2.62673
2.14159
1.59636
1.00649
0.389184
-0.241928
-0.857674
-1.4434
-1.97936
-2.44687
-2.82927
-3.11234
-3.28501
-3.33979
-3.27538
-3.09193
-2.79651
-2.40053
-1.91983
-1.37444
-0.787452
-0.18302
0.408118
0.960754
1.44897
1.84938
2.14257
2.31423
2.35616
2.26732
2.05343
1.72773
1.3102
0.82717
0.311494
-0.237199
-0.728068
-1.16349
-1.5119
-1.75053
-1.86472
-1.84872
-1.70658
-1.4517
-1.10609
-0.699058
-0.263612
0.165709
0.549588
0.859536
1.07113
1.16931
1.14978
1.01997
0.798287
0.512248
0.194162
-0.122671
-0.398299
-0.608188
-0.73312
-0.765206
-0.708534
-0.578049
-0.397328
-0.193706
0.00247632
0.166136
0.277131
0.324004
0.304982
0.227337
0.105615
-0.040733
-0.190777
-0.324526
-0.4248
-0.480566
-0.486724
-0.444704
-0.36169
-0.249204
-0.12125
0.00792213
0.123769
0.215359
0.274277
0.296223
0.280492
0.230458
0.152164
0.0531578
-0.0577192
-0.168777
-0.271516
-0.357506
-0.41959
-0.452339
25.2952
25.2595
25.1912
25.0972
24.9952
24.8913
24.808
24.6891
2.23353
2.58373
2.86896
3.21116
3.58734
3.98209
4.38019
4.77662
5.14914
5.49278
5.80318
6.07851
6.31515
6.51089
6.66451
6.77636
6.84127
6.85825
6.82639
6.74496
6.61354
6.43202
6.20068
5.92026
5.59192
5.21737
4.79876
4.33885
3.84084
3.3086
2.74647
2.15928
1.55237
0.931505
0.302845
-0.326724
-0.950186
-1.56035
-2.14984
-2.71119
-3.23695
-3.71972
-4.15236
-4.5283
-4.84136
-5.08593
-5.25732
-5.35169
-5.36614
-5.29909
-5.15
-4.9198
-4.61084
-4.22686
-3.77309
-3.25635
-2.68484
-2.06814
-1.41697
-0.743349
-0.0600572
0.618896
1.27956
1.9077
2.48918
3.01032
3.45844
3.82196
4.0909
4.25726
4.31527
4.26186
4.09665
3.82245
3.4451
2.97358
2.41994
1.799
1.12844
0.428225
-0.287864
-0.984146
-1.64573
-2.24995
-2.77566
-3.20411
-3.51933
-3.70906
-3.76533
-3.68565
-3.47172
-3.13145
-2.67799
-2.12958
-1.50914
-0.843013
-0.1576
0.510364
1.13332
1.68202
2.13008
2.45575
2.64309
2.68314
2.57492
2.3255
1.95011
1.47185
0.92035
0.329979
-0.281266
-0.839881
-1.33047
-1.72058
-1.98506
-2.10772
-2.08259
-1.9147
-1.61982
-1.22341
-0.758988
-0.264284
0.220194
0.652583
0.999398
1.23332
1.33771
1.30832
1.1541
0.896567
0.567491
0.204026
-0.154056
-0.464855
-0.698896
-0.834967
-0.864849
-0.793949
-0.640012
-0.430485
-0.19687
0.0263163
0.211031
0.334707
0.385036
0.360708
0.270557
0.131522
-0.0342045
-0.203032
-0.352265
-0.463636
-0.52477
-0.530455
-0.482724
-0.389954
-0.265202
-0.124106
0.0175861
0.14401
0.243371
0.306723
0.329624
0.311607
0.256493
0.171104
0.063773
-0.055597
-0.175135
-0.28547
-0.377618
-0.444044
-0.479051
31.4281
31.4003
31.3435
31.2529
31.1303
30.9815
30.8542
30.632
4.25948
4.43641
4.61486
4.85685
5.14064
5.4587
5.78489
6.11444
6.43242
6.73104
7.00402
7.24697
7.4556
7.62619
7.75558
7.84192
7.8811
7.87093
7.80959
7.69574
7.52845
7.30727
7.03226
6.70401
6.32366
5.89298
5.41427
4.89052
4.32524
3.7227
3.08769
2.4256
1.74234
1.04442
0.33811
-0.367961
-1.06655
-1.74956
-2.40877
-3.03585
-3.62249
-4.16046
-4.64184
-5.05934
-5.40608
-5.67588
-5.86358
-5.96494
-5.97682
-5.89747
-5.72645
-5.46485
-5.11541
-4.68239
-4.17171
-3.5911
-2.94977
-2.25853
-1.52942
-0.775912
-0.0120887
0.745918
1.48271
2.18241
2.82929
3.40809
3.90468
4.30624
4.6017
4.78225
4.8415
4.77613
4.58589
4.27413
3.84755
3.31627
2.69391
1.99716
1.24575
0.461502
-0.335949
-1.11365
-1.85083
-2.52276
-3.10603
-3.57982
-3.92649
-4.13253
-4.18939
-4.09397
-3.84894
-3.46332
-2.95201
-2.33568
-1.64021
-0.894937
-0.128856
0.615552
1.30826
1.91677
2.41177
2.76916
2.97141
3.0088
2.88055
2.59494
2.16947
1.62999
1.00981
0.346498
-0.32955
-0.95397
-1.49925
-1.93044
-2.22001
-2.35039
-2.31536
-2.12109
-1.78569
-1.33811
-0.816227
-0.262431
0.277171
0.757516
1.14057
1.39612
1.50601
1.46604
1.28677
0.992835
0.62039
0.211641
-0.187924
-0.533425
-0.791031
-0.93755
-0.964516
-0.87875
-0.700854
-0.46216
-0.198584
0.0514973
0.256907
0.392798
0.44611
0.416072
0.313165
0.156737
-0.0282669
-0.215561
-0.38003
-0.502095
-0.568271
-0.573262
-0.51973
-0.417275
-0.280471
-0.126566
0.0272213
0.163822
0.270572
0.338059
0.361751
0.341419
0.281332
0.189088
0.073778
-0.0537443
-0.181335
-0.298855
-0.396813
-0.46733
-0.50446
36.9583
36.9407
36.9065
36.8554
36.795
36.7301
36.688
36.6382
5.87984
5.97411
6.1252
6.30472
6.52893
6.78479
7.05514
7.33495
7.61171
7.87666
8.12197
8.34127
8.52889
8.67996
8.79019
8.85606
8.87309
8.83891
8.75088
8.6071
8.40621
8.14747
7.83075
7.45654
7.026
6.54094
6.00387
5.41799
4.78716
4.11605
3.40991
2.67464
1.91674
1.14328
0.361788
-0.419288
-1.19132
-1.94549
-2.67274
-3.36391
-4.00987
-4.60153
-5.13022
-5.58792
-5.96714
-6.26107
-6.46412
-6.57167
-6.58034
-6.48822
-6.29497
-6.00188
-5.61203
-5.13021
-4.56305
-3.91914
-3.20875
-2.44387
-1.63787
-0.805689
0.037665
0.873362
1.68493
2.45488
3.16586
3.80108
4.34501
4.78358
5.10469
5.29876
5.35889
5.28109
5.06569
4.71652
4.24104
3.65062
2.96032
2.18874
1.35765
0.491076
-0.386936
-1.24425
-2.05552
-2.79373
-3.4332
-3.95108
-4.32815
-4.54963
-4.60637
-4.49492
-4.21872
-3.78794
-3.21928
-2.53574
-1.76621
-0.943363
-0.0973446
0.721827
1.48279
2.14975
2.69043
3.07842
3.2947
3.32882
3.1802
2.85845
2.38313
1.78308
1.09517
0.360859
-0.380764
-1.06871
-1.66733
-2.13843
-2.45211
-2.58941
-2.54398
-2.3231
-1.94729
-1.44896
-0.870265
-0.258461
0.335474
0.862661
1.28092
1.5572
1.67191
1.62088
1.41633
1.08607
0.670564
0.217079
-0.22344
-0.602786
-0.88312
-1.03934
-1.0628
-0.961807
-0.759852
-0.49214
-0.198954
0.0775038
0.302995
0.450517
0.506351
0.470332
0.354624
0.180973
-0.0229479
-0.228183
-0.407436
-0.539704
-0.610567
-0.614681
-0.555348
-0.443398
-0.2949
-0.128664
0.0367238
0.182996
0.296707
0.368022
0.392359
0.369718
0.304819
0.205995
0.0831432
-0.0521371
-0.187315
-0.311575
-0.414973
-0.489311
-0.528423
41.9086
41.8977
41.8779
41.8483
41.8163
41.7818
41.7601
41.7303
7.15326
7.21793
7.34752
7.50371
7.69982
7.92673
8.16948
8.42288
8.67616
8.92099
9.14913
9.35335
9.52702
9.66434
9.76008
9.80948
9.80918
9.7546
9.64299
9.47206
9.24015
8.94629
8.59022
8.17237
7.69391
7.15678
6.56364
5.91798
5.22399
4.48673
3.71193
2.90599
2.07601
1.22965
0.375273
-0.478172
-1.32115
-2.14404
-2.93697
-3.68998
-4.3931
-5.03644
-5.61057
-6.10681
-6.51701
-6.83382
-7.0512
-7.16421
-7.1692
-7.06407
-6.84865
-6.52444
-6.09484
-5.56512
-4.94263
-4.23683
-3.45898
-2.62223
-1.74133
-0.832739
0.0884598
0.999423
1.88357
2.72166
3.49476
4.18457
4.77419
5.24836
5.59402
5.80085
5.86147
5.77107
5.53078
5.14485
4.62146
3.97324
3.21664
2.37211
1.46348
0.517129
-0.439712
-1.37401
-2.25705
-3.05938
-3.75307
-4.31339
-4.71949
-4.95548
-5.01163
-4.88403
-4.57702
-4.1019
-3.47703
-2.72782
-1.88618
-0.988809
-0.063288
0.827486
1.6545
2.37795
2.96258
3.37983
3.60922
3.63959
3.47062
3.11321
2.58903
1.9297
1.17582
0.372929
-0.433334
-1.18244
-1.83248
-2.34196
-2.67854
-2.82201
-2.76588
-2.51859
-2.10303
-1.555
-0.920924
-0.2526
0.394065
0.966498
1.4186
1.71456
1.83344
1.77111
1.54148
1.17542
0.717658
0.220642
-0.259825
-0.671839
-0.973873
-1.13903
-1.15853
-1.04222
-0.816453
-0.520205
-0.198197
0.103849
0.348611
0.507101
0.565025
0.522875
0.394505
0.204031
-0.018237
-0.240741
-0.434158
-0.576071
-0.651254
-0.654347
-0.589295
-0.468145
-0.308424
-0.130386
0.0459558
0.20137
0.321587
0.39642
0.421272
0.396363
0.326853
0.221783
0.0918293
-0.050751
-0.193025
-0.323566
-0.432019
-0.509904
-0.550854
46.318
46.3111
46.299
46.2803
46.2615
46.2399
46.2278
46.208
8.2183
8.26758
8.38553
8.52762
8.7082
8.91966
9.14839
9.38879
9.63071
9.86584
10.0856
10.282
10.4479
10.5767
10.6626
10.7004
10.6858
10.6139
10.4817
10.2864
10.0261
9.69964
9.30676
8.84783
8.32405
7.73748
7.091
6.38834
5.63405
4.83361
3.99318
3.11967
2.22073
1.30465
0.380475
-0.542196
-1.45304
-2.34165
-3.1974
-4.00949
-4.76719
-5.45981
-6.07718
-6.61002
-7.04954
-7.38786
-7.61854
-7.73632
-7.73735
-7.61914
-7.38194
-7.02738
-6.55914
-5.98294
-5.30689
-4.54127
-3.69825
-2.79214
-1.83899
-0.857184
0.13954
1.1225
2.07641
2.97991
3.81258
4.55468
5.18797
5.69607
6.06499
6.28374
6.34469
6.24154
5.97698
5.55536
4.9856
4.28147
3.4609
2.54606
1.56283
0.539709
-0.493131
-1.50122
-2.45306
-3.31678
-4.0623
-4.66305
-5.09668
-5.34612
-5.40137
-5.2577
-4.92064
-4.40248
-3.72321
-2.9105