/*--------------------------------*- C++ -*----------------------------------*\
  =========                 |
  \\      /  F ield         | OpenFOAM: The Open Source CFD Toolbox
   \\    /   O peration     | Website:  https://openfoam.org
    \\  /    A nd           | Version:  12
     \\/     M anipulation  |
\*---------------------------------------------------------------------------*/
FoamFile
{
    format      ascii;
    class       volVectorField;
    location    "9.42";
    object      zeta;
}
// * * * * * * * * * * * * * * * * * * * * * * * * * * * * * * * * * * * * * //

dimensions      [0 1 0 0 0 0 0];

internalField   uniform (0 0 0);

boundaryField
{
    freeSurface
    {
        type            calculated;
        value           nonuniform List<vector> 
181
(
(0 -0.00530742 0)
(0 -0.00530753 0)
(0 -0.00530696 0)
(0 -0.00530627 0)
(0 -0.00530528 0)
(0 -0.00530458 0)
(0 -0.00530361 0)
(0 -0.00530332 0)
(0 -0.00125577 0)
(0 -0.00125466 0)
(0 -0.00126381 0)
(0 -0.00127253 0)
(0 -0.00128355 0)
(0 -0.0012942 0)
(0 -0.00130652 0)
(0 -0.00131763 0)
(0 -0.00132807 0)
(0 -0.00133599 0)
(0 -0.00134083 0)
(0 -0.00134164 0)
(0 -0.00133787 0)
(0 -0.00132886 0)
(0 -0.00131423 0)
(0 -0.00129372 0)
(0 -0.00126679 0)
(0 -0.0012331 0)
(0 -0.0011924 0)
(0 -0.00114457 0)
(0 -0.00108964 0)
(0 -0.00102769 0)
(0 -0.000958928 0)
(0 -0.000883572 0)
(0 -0.000801945 0)
(0 -0.000714514 0)
(0 -0.000621699 0)
(0 -0.000524268 0)
(0 -0.000422915 0)
(0 -0.000318509 0)
(0 -0.000211886 0)
(0 -0.000103995 0)
(0 4.12751e-06 0)
(0 0.000111324 0)
(0 0.000216397 0)
(0 0.000318235 0)
(0 0.000415714 0)
(0 0.000507646 0)
(0 0.000592802 0)
(0 0.000670096 0)
(0 0.000738455 0)
(0 0.000796861 0)
(0 0.00084431 0)
(0 0.000879945 0)
(0 0.000903185 0)
(0 0.000913437 0)
(0 0.000910203 0)
(0 0.000893291 0)
(0 0.000862767 0)
(0 0.000818845 0)
(0 0.000761991 0)
(0 0.000692917 0)
(0 0.000612492 0)
(0 0.000521876 0)
(0 0.000422538 0)
(0 0.00031607 0)
(0 0.00020411 0)
(0 8.87862e-05 0)
(0 -2.78453e-05 0)
(0 -0.000143659 0)
(0 -0.000256154 0)
(0 -0.000363178 0)
(0 -0.000462385 0)
(0 -0.000551526 0)
(0 -0.000628536 0)
(0 -0.000691494 0)
(0 -0.000738767 0)
(0 -0.000769044 0)
(0 -0.000781362 0)
(0 -0.000775202 0)
(0 -0.000750384 0)
(0 -0.000707291 0)
(0 -0.000646744 0)
(0 -0.000570202 0)
(0 -0.000479475 0)
(0 -0.000376853 0)
(0 -0.000265105 0)
(0 -0.000147383 0)
(0 -2.70214e-05 0)
(0 9.23872e-05 0)
(0 0.000207149 0)
(0 0.000313618 0)
(0 0.000408339 0)
(0 0.000488057 0)
(0 0.000550004 0)
(0 0.000591888 0)
(0 0.000612131 0)
(0 0.000609843 0)
(0 0.000585137 0)
(0 0.000538631 0)
(0 0.000472224 0)
(0 0.000388452 0)
(0 0.000290643 0)
(0 0.000182813 0)
(0 6.96114e-05 0)
(0 -4.40924e-05 0)
(0 -0.000153364 0)
(0 -0.000253246 0)
(0 -0.00033908 0)
(0 -0.000406939 0)
(0 -0.000453558 0)
(0 -0.000476846 0)
(0 -0.000475771 0)
(0 -0.000450567 0)
(0 -0.000402922 0)
(0 -0.000335709 0)
(0 -0.000252886 0)
(0 -0.000159562 0)
(0 -6.1356e-05 0)
(0 3.55983e-05 0)
(0 0.000125504 0)
(0 0.000202721 0)
(0 0.000262495 0)
(0 0.000301141 0)
(0 0.00031654 0)
(0 0.000308307 0)
(0 0.000277576 0)
(0 0.000227312 0)
(0 0.000161873 0)
(0 8.67803e-05 0)
(0 8.37705e-06 0)
(0 -6.6772e-05 0)
(0 -0.000132598 0)
(0 -0.000183564 0)
(0 -0.000215619 0)
(0 -0.000226436 0)
(0 -0.000215855 0)
(0 -0.000185892 0)
(0 -0.000140516 0)
(0 -8.52182e-05 0)
(0 -2.64351e-05 0)
(0 2.93989e-05 0)
(0 7.66214e-05 0)
(0 0.0001106 0)
(0 0.00012858 0)
(0 0.00012982 0)
(0 0.000115601 0)
(0 8.8934e-05 0)
(0 5.40505e-05 0)
(0 1.59323e-05 0)
(0 -2.05909e-05 0)
(0 -5.15303e-05 0)
(0 -7.37334e-05 0)
(0 -8.54526e-05 0)
(0 -8.64071e-05 0)
(0 -7.76043e-05 0)
(0 -6.1112e-05 0)
(0 -3.96783e-05 0)
(0 -1.63372e-05 0)
(0 5.89878e-06 0)
(0 2.45851e-05 0)
(0 3.78252e-05 0)
(0 4.44946e-05 0)
(0 4.43389e-05 0)
(0 3.78894e-05 0)
(0 2.62903e-05 0)
(0 1.11358e-05 0)
(0 -5.76345e-06 0)
(0 -2.25881e-05 0)
(0 -3.76566e-05 0)
(0 -4.95943e-05 0)
(0 -5.74303e-05 0)
(0 -6.06423e-05 0)
(0 -5.91019e-05 0)
(0 -5.31346e-05 0)
(0 -4.34759e-05 0)
(0 -3.11151e-05 0)
(0 -1.72018e-05 0)
(0 -2.98385e-06 0)
(0 1.03066e-05 0)
(0 2.1517e-05 0)
(0 2.96586e-05 0)
(0 3.39691e-05 0)
)
;
    }
    walls
    {
        type            calculated;
        value           uniform (0 0 0);
    }
    floatingObject
    {
        type            calculated;
        value           uniform (0 0 0);
    }
    frontAndBack
    {
        type            empty;
    }
}


// ************************************************************************* //
