/*--------------------------------*- C++ -*----------------------------------*\
  =========                 |
  \\      /  F ield         | OpenFOAM: The Open Source CFD Toolbox
   \\    /   O peration     | Website:  https://openfoam.org
    \\  /    A nd           | Version:  12
     \\/     M anipulation  |
\*---------------------------------------------------------------------------*/
FoamFile
{
    format      ascii;
    class       volScalarField;
    location    "12.06";
    object      p;
}
// * * * * * * * * * * * * * * * * * * * * * * * * * * * * * * * * * * * * * //

dimensions      [1 -1 -2 0 0 0 0];

internalField   nonuniform List<scalar> 
3829
(
-618.221
-618.22
-618.218
-618.214
-618.209
-618.203
-618.196
-618.187
-618.176
-618.164
-618.15
-618.134
-618.115
-618.095
-618.071
-618.045
-618.016
-617.985
-617.95
-617.911
-617.869
-617.824
-617.775
-617.723
-617.667
-617.607
-617.543
-617.477
-617.406
-617.333
-617.256
-617.177
-617.095
-617.01
-616.924
-616.835
-616.745
-616.654
-616.562
-616.47
-616.378
-616.286
-616.195
-616.104
-616.016
-615.929
-615.844
-615.762
-615.683
-615.608
-615.536
-615.468
-615.405
-615.347
-615.293
-615.245
-615.203
-615.165
-615.133
-615.105
-615.083
-615.065
-615.052
-615.044
-615.039
-615.038
-615.04
-615.045
-615.053
-615.061
-615.07
-615.08
-615.089
-615.097
-615.104
-615.108
-615.109
-615.106
-615.099
-615.087
-615.07
-615.047
-615.018
-614.983
-614.943
-614.897
-614.846
-614.79
-614.731
-614.668
-614.603
-614.536
-614.469
-614.403
-614.339
-614.278
-614.222
-614.172
-614.129
-614.094
-614.068
-614.052
-614.046
-614.05
-614.065
-614.091
-614.125
-614.168
-614.218
-614.274
-614.333
-614.395
-614.456
-614.515
-614.57
-614.618
-614.658
-614.688
-614.706
-614.712
-614.705
-614.685
-614.653
-614.61
-614.559
-614.502
-614.44
-614.377
-614.313
-614.256
-614.207
-614.167
-614.14
-614.125
-614.125
-614.139
-614.166
-614.203
-614.249
-614.3
-614.353
-614.404
-614.449
-614.485
-614.51
-614.522
-614.518
-614.5
-614.468
-614.427
-614.377
-614.318
-614.266
-614.22
-614.183
-614.158
-614.147
-614.151
-614.169
-614.199
-614.237
-614.278
-614.319
-614.354
-614.38
-614.394
-614.394
-614.381
-614.357
-614.324
-614.287
-614.25
-614.219
-614.196
-614.185
-614.186
-614.198
-614.22
-614.248
-614.277
-614.306
-614.33
-614.345
-614.353
-614.354
-614.349
-614.342
-614.333
-614.326
-614.32
-614.316
-614.315
-614.314
-614.314
-614.313
-614.311
-614.307
-614.303
-614.3
-614.298
-1776.69
-1776.69
-1776.69
-1776.69
-1776.68
-1776.68
-1776.67
-1776.66
-1776.65
-1776.64
-1776.63
-1776.61
-1776.59
-1776.57
-1776.55
-1776.52
-1776.49
-1776.46
-1776.43
-1776.39
-1776.35
-1776.31
-1776.26
-1776.21
-1776.15
-1776.09
-1776.02
-1775.95
-1775.87
-1775.79
-1775.7
-1775.61
-1775.52
-1775.42
-1775.32
-1775.22
-1775.12
-1775.01
-1774.91
-1774.8
-1774.7
-1774.59
-1774.49
-1774.39
-1774.29
-1774.2
-1774.1
-1774.01
-1773.93
-1773.85
-1773.77
-1773.7
-1773.63
-1773.57
-1773.52
-1773.47
-1773.44
-1773.4
-1773.37
-1773.35
-1773.34
-1773.33
-1773.33
-1773.33
-1773.33
-1773.34
-1773.36
-1773.37
-1773.39
-1773.41
-1773.43
-1773.46
-1773.48
-1773.49
-1773.51
-1773.52
-1773.53
-1773.54
-1773.53
-1773.52
-1773.51
-1773.49
-1773.46
-1773.42
-1773.38
-1773.32
-1773.27
-1773.2
-1773.13
-1773.06
-1772.98
-1772.9
-1772.82
-1772.74
-1772.67
-1772.6
-1772.53
-1772.47
-1772.42
-1772.38
-1772.35
-1772.33
-1772.33
-1772.34
-1772.36
-1772.39
-1772.43
-1772.49
-1772.55
-1772.62
-1772.69
-1772.77
-1772.84
-1772.92
-1772.98
-1773.04
-1773.09
-1773.13
-1773.15
-1773.16
-1773.14
-1773.12
-1773.08
-1773.02
-1772.96
-1772.89
-1772.81
-1772.74
-1772.66
-1772.59
-1772.53
-1772.49
-1772.45
-1772.44
-1772.44
-1772.46
-1772.49
-1772.54
-1772.6
-1772.66
-1772.73
-1772.79
-1772.85
-1772.89
-1772.92
-1772.94
-1772.93
-1772.91
-1772.87
-1772.82
-1772.76
-1772.68
-1772.62
-1772.57
-1772.52
-1772.49
-1772.48
-1772.49
-1772.51
-1772.55
-1772.6
-1772.65
-1772.7
-1772.74
-1772.77
-1772.79
-1772.79
-1772.77
-1772.74
-1772.7
-1772.66
-1772.61
-1772.57
-1772.55
-1772.54
-1772.54
-1772.55
-1772.58
-1772.61
-1772.65
-1772.68
-1772.71
-1772.72
-1772.73
-1772.73
-1772.72
-1772.71
-1772.7
-1772.69
-1772.69
-1772.68
-1772.68
-1772.68
-1772.68
-1772.68
-1772.68
-1772.68
-1772.67
-1772.67
-1772.67
-2803.06
-2803.06
-2803.07
-2803.07
-2803.08
-2803.08
-2803.09
-2803.1
-2803.11
-2803.12
-2803.12
-2803.12
-2803.12
-2803.11
-2803.09
-2803.07
-2803.04
-2803.01
-2802.98
-2802.94
-2802.9
-2802.85
-2802.8
-2802.73
-2802.65
-2802.57
-2802.47
-2802.37
-2802.26
-2802.15
-2802.04
-2801.92
-2801.8
-2801.68
-2801.55
-2801.42
-2801.29
-2801.16
-2801.03
-2800.9
-2800.77
-2800.65
-2800.52
-2800.4
-2800.28
-2800.17
-2800.06
-2799.96
-2799.86
-2799.77
-2799.68
-2799.61
-2799.54
-2799.48
-2799.43
-2799.39
-2799.35
-2799.32
-2799.31
-2799.3
-2799.29
-2799.3
-2799.31
-2799.33
-2799.36
-2799.39
-2799.43
-2799.46
-2799.51
-2799.55
-2799.59
-2799.64
-2799.68
-2799.71
-2799.75
-2799.78
-2799.8
-2799.81
-2799.82
-2799.82
-2799.81
-2799.79
-2799.75
-2799.71
-2799.66
-2799.59
-2799.52
-2799.44
-2799.35
-2799.26
-2799.16
-2799.06
-2798.95
-2798.85
-2798.75
-2798.66
-2798.58
-2798.5
-2798.44
-2798.39
-2798.35
-2798.33
-2798.33
-2798.34
-2798.37
-2798.42
-2798.48
-2798.55
-2798.64
-2798.74
-2798.84
-2798.94
-2799.04
-2799.14
-2799.23
-2799.3
-2799.37
-2799.41
-2799.44
-2799.44
-2799.43
-2799.39
-2799.34
-2799.26
-2799.18
-2799.08
-2798.98
-2798.88
-2798.78
-2798.69
-2798.61
-2798.55
-2798.51
-2798.49
-2798.5
-2798.53
-2798.58
-2798.65
-2798.73
-2798.82
-2798.91
-2798.99
-2799.07
-2799.12
-2799.16
-2799.18
-2799.17
-2799.14
-2799.08
-2799.01
-2798.93
-2798.84
-2798.75
-2798.68
-2798.63
-2798.59
-2798.58
-2798.59
-2798.63
-2798.68
-2798.74
-2798.81
-2798.88
-2798.94
-2798.98
-2799
-2799
-2798.97
-2798.93
-2798.87
-2798.81
-2798.75
-2798.71
-2798.67
-2798.66
-2798.67
-2798.69
-2798.72
-2798.77
-2798.81
-2798.85
-2798.88
-2798.9
-2798.91
-2798.9
-2798.89
-2798.88
-2798.86
-2798.85
-2798.84
-2798.84
-2798.84
-2798.84
-2798.85
-2798.85
-2798.84
-2798.84
-2798.83
-2798.83
-2798.82
-3712.14
-3712.14
-3712.14
-3712.15
-3712.15
-3712.16
-3712.16
-3712.17
-3712.18
-3712.18
-3712.19
-3712.2
-3712.21
-3712.23
-3712.25
-3712.27
-3712.28
-3712.27
-3712.25
-3712.22
-3712.17
-3712.11
-3712.04
-3711.96
-3711.87
-3711.78
-3711.69
-3711.59
-3711.49
-3711.37
-3711.24
-3711.11
-3710.96
-3710.81
-3710.65
-3710.48
-3710.32
-3710.15
-3709.99
-3709.82
-3709.66
-3709.5
-3709.34
-3709.19
-3709.05
-3708.91
-3708.78
-3708.66
-3708.55
-3708.44
-3708.35
-3708.27
-3708.2
-3708.14
-3708.09
-3708.05
-3708.03
-3708.02
-3708.02
-3708.02
-3708.04
-3708.07
-3708.11
-3708.16
-3708.21
-3708.28
-3708.34
-3708.42
-3708.49
-3708.57
-3708.64
-3708.71
-3708.79
-3708.85
-3708.91
-3708.96
-3709
-3709.04
-3709.05
-3709.06
-3709.05
-3709.03
-3708.99
-3708.94
-3708.88
-3708.8
-3708.7
-3708.6
-3708.48
-3708.36
-3708.22
-3708.09
-3707.95
-3707.82
-3707.69
-3707.56
-3707.45
-3707.35
-3707.27
-3707.2
-3707.16
-3707.13
-3707.13
-3707.16
-3707.2
-3707.27
-3707.36
-3707.46
-3707.58
-3707.71
-3707.85
-3708
-3708.13
-3708.27
-3708.39
-3708.49
-3708.57
-3708.63
-3708.66
-3708.67
-3708.65
-3708.59
-3708.52
-3708.42
-3708.3
-3708.16
-3708.02
-3707.88
-3707.75
-3707.63
-3707.53
-3707.45
-3707.4
-3707.39
-3707.4
-3707.44
-3707.51
-3707.61
-3707.72
-3707.85
-3707.97
-3708.09
-3708.19
-3708.27
-3708.32
-3708.34
-3708.32
-3708.28
-3708.2
-3708.1
-3707.99
-3707.86
-3707.75
-3707.66
-3707.58
-3707.54
-3707.53
-3707.55
-3707.6
-3707.67
-3707.76
-3707.86
-3707.95
-3708.03
-3708.08
-3708.11
-3708.1
-3708.06
-3708
-3707.93
-3707.85
-3707.77
-3707.7
-3707.66
-3707.65
-3707.66
-3707.69
-3707.74
-3707.8
-3707.86
-3707.91
-3707.95
-3707.97
-3707.97
-3707.96
-3707.94
-3707.92
-3707.9
-3707.88
-3707.87
-3707.87
-3707.88
-3707.88
-3707.89
-3707.89
-3707.89
-3707.88
-3707.87
-3707.86
-3707.86
-4517.64
-4517.65
-4517.67
-4517.7
-4517.74
-4517.79
-4517.85
-4517.91
-4517.97
-4518.04
-4518.1
-4518.16
-4518.22
-4518.27
-4518.31
-4518.33
-4518.35
-4518.36
-4518.35
-4518.33
-4518.29
-4518.24
-4518.17
-4518.09
-4518
-4517.88
-4517.75
-4517.58
-4517.38
-4517.17
-4516.95
-4516.73
-4516.51
-4516.28
-4516.05
-4515.83
-4515.6
-4515.38
-4515.16
-4514.94
-4514.73
-4514.53
-4514.33
-4514.15
-4513.97
-4513.8
-4513.65
-4513.51
-4513.38
-4513.26
-4513.16
-4513.08
-4513
-4512.95
-4512.9
-4512.88
-4512.86
-4512.87
-4512.89
-4512.92
-4512.97
-4513.03
-4513.1
-4513.19
-4513.28
-4513.38
-4513.49
-4513.61
-4513.72
-4513.84
-4513.96
-4514.07
-4514.18
-4514.28
-4514.38
-4514.46
-4514.52
-4514.58
-4514.61
-4514.63
-4514.62
-4514.6
-4514.56
-4514.49
-4514.41
-4514.31
-4514.18
-4514.04
-4513.89
-4513.73
-4513.55
-4513.37
-4513.19
-4513.01
-4512.84
-4512.67
-4512.52
-4512.39
-4512.28
-4512.2
-4512.14
-4512.12
-4512.12
-4512.15
-4512.22
-4512.32
-4512.44
-4512.58
-4512.75
-4512.93
-4513.12
-4513.31
-4513.5
-4513.68
-4513.84
-4513.98
-4514.09
-4514.16
-4514.2
-4514.21
-4514.17
-4514.1
-4513.99
-4513.85
-4513.69
-4513.51
-4513.32
-4513.13
-4512.95
-4512.79
-4512.65
-4512.55
-4512.49
-4512.47
-4512.5
-4512.56
-4512.66
-4512.8
-4512.96
-4513.13
-4513.29
-4513.45
-4513.59
-4513.7
-4513.76
-4513.78
-4513.76
-4513.69
-4513.59
-4513.45
-4513.3
-4513.14
-4512.99
-4512.86
-4512.76
-4512.7
-4512.69
-4512.73
-4512.8
-4512.9
-4513.03
-4513.16
-4513.29
-4513.39
-4513.46
-4513.49
-4513.47
-4513.42
-4513.34
-4513.24
-4513.13
-4513.02
-4512.94
-4512.89
-4512.87
-4512.89
-4512.94
-4513
-4513.09
-4513.16
-4513.23
-4513.27
-4513.29
-4513.29
-4513.27
-4513.24
-4513.21
-4513.18
-4513.16
-4513.15
-4513.15
-4513.16
-4513.17
-4513.18
-4513.18
-4513.18
-4513.17
-4513.16
-4513.15
-4513.14
-5230.6
-5230.62
-5230.66
-5230.72
-5230.79
-5230.89
-5231
-5231.13
-5231.27
-5231.43
-5231.59
-5231.75
-5231.91
-5232.05
-5232.18
-5232.29
-5232.37
-5232.44
-5232.48
-5232.48
-5232.46
-5232.4
-5232.31
-5232.19
-5232.03
-5231.83
-5231.6
-5231.36
-5231.12
-5230.88
-5230.62
-5230.35
-5230.07
-5229.78
-5229.49
-5229.19
-5228.9
-5228.61
-5228.33
-5228.05
-5227.79
-5227.54
-5227.3
-5227.07
-5226.86
-5226.66
-5226.48
-5226.31
-5226.17
-5226.04
-5225.93
-5225.84
-5225.77
-5225.72
-5225.69
-5225.68
-5225.69
-5225.72
-5225.77
-5225.83
-5225.92
-5226.02
-5226.14
-5226.27
-5226.41
-5226.56
-5226.72
-5226.89
-5227.06
-5227.23
-5227.39
-5227.56
-5227.71
-5227.86
-5227.99
-5228.11
-5228.2
-5228.28
-5228.33
-5228.36
-5228.36
-5228.34
-5228.28
-5228.2
-5228.1
-5227.96
-5227.8
-5227.62
-5227.42
-5227.21
-5226.98
-5226.74
-5226.51
-5226.27
-5226.05
-5225.83
-5225.64
-5225.47
-5225.33
-5225.22
-5225.15
-5225.12
-5225.13
-5225.18
-5225.27
-5225.4
-5225.57
-5225.76
-5225.98
-5226.22
-5226.48
-5226.73
-5226.98
-5227.21
-5227.42
-5227.6
-5227.75
-5227.84
-5227.89
-5227.89
-5227.84
-5227.74
-5227.59
-5227.4
-5227.18
-5226.94
-5226.69
-5226.44
-5226.21
-5226
-5225.83
-5225.7
-5225.62
-5225.61
-5225.64
-5225.74
-5225.88
-5226.06
-5226.27
-5226.5
-5226.72
-5226.93
-5227.11
-5227.25
-5227.33
-5227.35
-5227.32
-5227.23
-5227.08
-5226.9
-5226.7
-5226.49
-5226.29
-5226.12
-5226
-5225.93
-5225.92
-5225.97
-5226.07
-5226.22
-5226.38
-5226.56
-5226.72
-5226.86
-5226.94
-5226.98
-5226.96
-5226.89
-5226.77
-5226.64
-5226.49
-5226.36
-5226.25
-5226.19
-5226.17
-5226.2
-5226.27
-5226.35
-5226.47
-5226.56
-5226.64
-5226.69
-5226.71
-5226.7
-5226.67
-5226.63
-5226.58
-5226.55
-5226.52
-5226.51
-5226.52
-5226.53
-5226.55
-5226.56
-5226.57
-5226.56
-5226.55
-5226.53
-5226.52
-5226.51
-5861.98
-5862.02
-5862.11
-5862.24
-5862.41
-5862.62
-5862.86
-5863.14
-5863.43
-5863.75
-5864.06
-5864.38
-5864.68
-5864.96
-5865.22
-5865.44
-5865.63
-5865.77
-5865.87
-5865.91
-5865.9
-5865.84
-5865.71
-5865.54
-5865.31
-5865.04
-5864.74
-5864.41
-5864.03
-5863.62
-5863.19
-5862.76
-5862.33
-5861.91
-5861.5
-5861.1
-5860.72
-5860.35
-5859.99
-5859.65
-5859.33
-5859.02
-5858.73
-5858.46
-5858.22
-5857.99
-5857.78
-5857.6
-5857.44
-5857.3
-5857.19
-5857.1
-5857.04
-5856.99
-5856.98
-5856.99
-5857.02
-5857.08
-5857.16
-5857.27
-5857.39
-5857.54
-5857.71
-5857.89
-5858.09
-5858.3
-5858.52
-5858.75
-5858.98
-5859.21
-5859.44
-5859.66
-5859.87
-5860.07
-5860.24
-5860.4
-5860.53
-5860.64
-5860.71
-5860.75
-5860.76
-5860.73
-5860.66
-5860.56
-5860.43
-5860.25
-5860.05
-5859.82
-5859.56
-5859.29
-5859
-5858.7
-5858.39
-5858.09
-5857.81
-5857.54
-5857.29
-5857.08
-5856.9
-5856.77
-5856.68
-5856.64
-5856.66
-5856.73
-5856.85
-5857.02
-5857.24
-5857.5
-5857.78
-5858.09
-5858.42
-5858.74
-5859.06
-5859.36
-5859.63
-5859.86
-5860.04
-5860.16
-5860.22
-5860.21
-5860.14
-5860
-5859.81
-5859.56
-5859.28
-5858.97
-5858.65
-5858.33
-5858.03
-5857.76
-5857.54
-5857.38
-5857.29
-5857.28
-5857.33
-5857.46
-5857.65
-5857.89
-5858.16
-5858.46
-5858.75
-5859.01
-5859.24
-5859.41
-5859.52
-5859.54
-5859.49
-5859.37
-5859.18
-5858.95
-5858.69
-5858.41
-5858.16
-5857.95
-5857.8
-5857.71
-5857.71
-5857.78
-5857.91
-5858.1
-5858.32
-5858.55
-5858.75
-5858.92
-5859.03
-5859.07
-5859.04
-5858.94
-5858.8
-5858.62
-5858.43
-5858.26
-5858.13
-5858.06
-5858.04
-5858.08
-5858.17
-5858.29
-5858.43
-5858.55
-5858.64
-5858.7
-5858.72
-5858.7
-5858.66
-5858.6
-5858.54
-5858.5
-5858.47
-5858.46
-5858.47
-5858.49
-5858.51
-5858.53
-5858.53
-5858.53
-5858.51
-5858.49
-5858.47
-5858.46
-6420.17
-6420.25
-6420.41
-6420.65
-6420.98
-6421.38
-6421.85
-6422.4
-6423
-6423.62
-6424.22
-6424.81
-6425.36
-6425.86
-6426.31
-6426.7
-6427.03
-6427.28
-6427.46
-6427.54
-6427.54
-6427.45
-6427.27
-6426.99
-6426.63
-6426.19
-6425.67
-6425.09
-6424.51
-6423.93
-6423.37
-6422.8
-6422.26
-6421.72
-6421.21
-6420.72
-6420.24
-6419.8
-6419.37
-6418.97
-6418.59
-6418.24
-6417.91
-6417.61
-6417.33
-6417.07
-6416.85
-6416.65
-6416.48
-6416.33
-6416.22
-6416.13
-6416.07
-6416.05
-6416.05
-6416.09
-6416.15
-6416.25
-6416.37
-6416.52
-6416.7
-6416.9
-6417.12
-6417.37
-6417.63
-6417.91
-6418.2
-6418.49
-6418.79
-6419.09
-6419.39
-6419.67
-6419.94
-6420.2
-6420.43
-6420.63
-6420.8
-6420.93
-6421.03
-6421.08
-6421.09
-6421.06
-6420.98
-6420.85
-6420.68
-6420.47
-6420.22
-6419.93
-6419.61
-6419.26
-6418.9
-6418.52
-6418.14
-6417.77
-6417.41
-6417.08
-6416.77
-6416.51
-6416.29
-6416.13
-6416.02
-6415.98
-6416.01
-6416.1
-6416.26
-6416.48
-6416.75
-6417.07
-6417.44
-6417.83
-6418.23
-6418.64
-6419.04
-6419.41
-6419.75
-6420.03
-6420.25
-6420.4
-6420.46
-6420.45
-6420.35
-6420.18
-6419.93
-6419.62
-6419.26
-6418.87
-6418.46
-6418.06
-6417.69
-6417.36
-6417.09
-6416.9
-6416.79
-6416.78
-6416.86
-6417.02
-6417.26
-6417.57
-6417.92
-6418.29
-6418.65
-6418.99
-6419.27
-6419.49
-6419.61
-6419.64
-6419.57
-6419.41
-6419.17
-6418.87
-6418.54
-6418.2
-6417.89
-6417.63
-6417.44
-6417.34
-6417.34
-6417.43
-6417.61
-6417.85
-6418.13
-6418.41
-6418.67
-6418.88
-6419.01
-6419.05
-6419.01
-6418.88
-6418.7
-6418.47
-6418.24
-6418.03
-6417.87
-6417.78
-6417.77
-6417.83
-6417.94
-6418.09
-6418.26
-6418.41
-6418.52
-6418.59
-6418.6
-6418.57
-6418.52
-6418.44
-6418.37
-6418.31
-6418.28
-6418.27
-6418.29
-6418.31
-6418.35
-6418.37
-6418.38
-6418.37
-6418.35
-6418.32
-6418.3
-6418.29
-6913.53
-6913.66
-6913.93
-6914.34
-6914.88
-6915.56
-6916.39
-6917.33
-6918.38
-6919.44
-6920.5
-6921.54
-6922.51
-6923.4
-6924.18
-6924.86
-6925.4
-6925.81
-6926.08
-6926.21
-6926.19
-6926.04
-6925.73
-6925.29
-6924.7
-6923.98
-6923.14
-6922.25
-6921.37
-6920.51
-6919.68
-6918.9
-6918.17
-6917.49
-6916.86
-6916.26
-6915.71
-6915.2
-6914.71
-6914.26
-6913.84
-6913.45
-6913.09
-6912.76
-6912.45
-6912.18
-6911.94
-6911.73
-6911.55
-6911.4
-6911.28
-6911.21
-6911.16
-6911.15
-6911.18
-6911.24
-6911.34
-6911.47
-6911.64
-6911.84
-6912.07
-6912.33
-6912.62
-6912.93
-6913.27
-6913.62
-6913.98
-6914.35
-6914.73
-6915.1
-6915.47
-6915.82
-6916.16
-6916.48
-6916.76
-6917.01
-6917.22
-6917.39
-6917.51
-6917.58
-6917.59
-6917.55
-6917.46
-6917.3
-6917.09
-6916.83
-6916.52
-6916.17
-6915.77
-6915.35
-6914.91
-6914.45
-6913.99
-6913.53
-6913.09
-6912.69
-6912.32
-6912
-6911.74
-6911.54
-6911.43
-6911.39
-6911.42
-6911.53
-6911.73
-6912
-6912.34
-6912.74
-6913.18
-6913.66
-6914.16
-6914.66
-6915.14
-6915.6
-6916
-6916.34
-6916.6
-6916.78
-6916.85
-6916.83
-6916.71
-6916.48
-6916.18
-6915.79
-6915.35
-6914.87
-6914.38
-6913.89
-6913.44
-6913.04
-6912.71
-6912.48
-6912.36
-6912.35
-6912.45
-6912.66
-6912.97
-6913.35
-6913.78
-6914.23
-6914.68
-6915.09
-6915.43
-6915.68
-6915.83
-6915.86
-6915.77
-6915.57
-6915.27
-6914.9
-6914.5
-6914.08
-6913.71
-6913.39
-6913.17
-6913.05
-6913.06
-6913.18
-6913.4
-6913.7
-6914.04
-6914.39
-6914.7
-6914.95
-6915.11
-6915.16
-6915.1
-6914.94
-6914.7
-6914.43
-6914.14
-6913.89
-6913.71
-6913.6
-6913.59
-6913.67
-6913.82
-6914
-6914.2
-6914.38
-6914.51
-6914.58
-6914.6
-6914.55
-6914.48
-6914.38
-6914.29
-6914.23
-6914.19
-6914.19
-6914.21
-6914.24
-6914.28
-6914.31
-6914.32
-6914.32
-6914.29
-6914.26
-6914.23
-6914.21
-7348.76
-7348.95
-7349.35
-7349.96
-7350.82
-7351.93
-7353.61
-7355.37
-7358.1
-7360.09
-7361.9
-7363.45
-7364.79
-7365.93
-7366.9
-7367.69
-7368.32
-7368.79
-7369.11
-7369.26
-7369.23
-7369.03
-7368.62
-7368
-7367.14
-7366.02
-7364.69
-7362.6
-7361.21
-7359.95
-7358.88
-7357.93
-7357.09
-7356.32
-7355.62
-7354.98
-7354.38
-7353.83
-7353.32
-7352.84
-7352.39
-7351.98
-7351.59
-7351.24
-7350.92
-7350.63
-7350.37
-7350.15
-7349.96
-7349.82
-7349.7
-7349.63
-7349.6
-7349.61
-7349.66
-7349.75
-7349.89
-7350.06
-7350.28
-7350.53
-7350.82
-7351.15
-7351.5
-7351.89
-7352.3
-7352.72
-7353.17
-7353.62
-7354.08
-7354.53
-7354.98
-7355.41
-7355.82
-7356.2
-7356.54
-7356.84
-7357.1
-7357.3
-7357.45
-7357.53
-7357.55
-7357.5
-7357.38
-7357.19
-7356.94
-7356.63
-7356.25
-7355.83
-7355.36
-7354.85
-7354.32
-7353.77
-7353.22
-7352.68
-7352.16
-7351.67
-7351.23
-7350.86
-7350.55
-7350.32
-7350.18
-7350.14
-7350.18
-7350.33
-7350.56
-7350.89
-7351.3
-7351.78
-7352.32
-7352.89
-7353.49
-7354.09
-7354.66
-7355.2
-7355.68
-7356.09
-7356.39
-7356.6
-7356.68
-7356.65
-7356.49
-7356.22
-7355.85
-7355.38
-7354.85
-7354.28
-7353.68
-7353.1
-7352.56
-7352.09
-7351.71
-7351.44
-7351.3
-7351.3
-7351.43
-7351.69
-7352.06
-7352.52
-7353.03
-7353.58
-7354.11
-7354.6
-7355.01
-7355.31
-7355.48
-7355.5
-7355.39
-7355.14
-7354.78
-7354.34
-7353.85
-7353.36
-7352.91
-7352.54
-7352.28
-7352.15
-7352.16
-7352.31
-7352.58
-7352.94
-7353.35
-7353.77
-7354.15
-7354.44
-7354.62
-7354.67
-7354.59
-7354.4
-7354.12
-7353.78
-7353.44
-7353.15
-7352.93
-7352.82
-7352.81
-7352.91
-7353.09
-7353.31
-7353.55
-7353.76
-7353.91
-7353.99
-7353.99
-7353.94
-7353.84
-7353.72
-7353.62
-7353.54
-7353.5
-7353.5
-7353.53
-7353.57
-7353.62
-7353.66
-7353.67
-7353.66
-7353.63
-7353.59
-7353.56
-7353.53
-7732.3
-7732.54
-7732.98
-7733.76
-7734.91
-7736.42
-7738.57
-7741.2
-7745.36
-7748.27
-7750.96
-7753.28
-7755.3
-7757.02
-7758.46
-7759.63
-7760.56
-7761.24
-7761.67
-7761.86
-7761.8
-7761.49
-7760.9
-7760.02
-7758.82
-7757.26
-7755.38
-7752.37
-7750.38
-7748.77
-7747.48
-7746.41
-7745.49
-7744.7
-7743.99
-7743.35
-7742.75
-7742.2
-7741.68
-7741.19
-7740.73
-7740.3
-7739.9
-7739.54
-7739.2
-7738.9
-7738.63
-7738.4
-7738.21
-7738.06
-7737.95
-7737.89
-7737.87
-7737.9
-7737.98
-7738.1
-7738.27
-7738.49
-7738.75
-7739.06
-7739.41
-7739.8
-7740.23
-7740.69
-7741.18
-7741.69
-7742.21
-7742.75
-7743.29
-7743.83
-7744.36
-7744.87
-7745.35
-7745.8
-7746.2
-7746.56
-7746.86
-7747.1
-7747.27
-7747.37
-7747.39
-7747.33
-7747.19
-7746.97
-7746.67
-7746.3
-7745.86
-7745.36
-7744.81
-7744.21
-7743.59
-7742.95
-7742.3
-7741.66
-7741.06
-7740.49
-7739.98
-7739.54
-7739.18
-7738.92
-7738.76
-7738.71
-7738.77
-7738.95
-7739.23
-7739.62
-7740.11
-7740.67
-7741.3
-7741.98
-7742.67
-7743.37
-7744.05
-7744.68
-7745.24
-7745.7
-7746.06
-7746.29
-7746.38
-7746.33
-7746.15
-7745.82
-7745.38
-7744.83
-7744.21
-7743.53
-7742.84
-7742.16
-7741.53
-7740.98
-7740.54
-7740.23
-7740.08
-7740.08
-7740.24
-7740.55
-7740.99
-7741.53
-7742.14
-7742.79
-7743.41
-7743.98
-7744.45
-7744.8
-7744.99
-7745.02
-7744.87
-7744.58
-7744.15
-7743.63
-7743.06
-7742.48
-7741.96
-7741.53
-7741.22
-7741.08
-7741.1
-7741.29
-7741.61
-7742.03
-7742.51
-7743.02
-7743.45
-7743.78
-7743.99
-7744.04
-7743.95
-7743.71
-7743.38
-7742.99
-7742.58
-7742.25
-7742
-7741.87
-7741.87
-7742
-7742.21
-7742.48
-7742.75
-7742.99
-7743.16
-7743.24
-7743.24
-7743.17
-7743.05
-7742.91
-7742.79
-7742.7
-7742.66
-7742.66
-7742.7
-7742.76
-7742.82
-7742.86
-7742.87
-7742.86
-7742.83
-7742.78
-7742.73
-7742.71
-8070.16
-8070.25
-8070.44
-8070.72
-8071.06
-8071.45
-8071.73
-8072.16
-8091.43
-8090.92
-8090.59
-8090.07
-8089.52
-8088.93
-8088.34
-8087.75
-8087.19
-8086.64
-8086.11
-8085.59
-8085.11
-8084.64
-8084.2
-8083.79
-8083.41
-8083.06
-8082.74
-8082.46
-8082.22
-8082.03
-8081.88
-8081.77
-8081.72
-8081.71
-8081.76
-8081.86
-8082.02
-8082.23
-8082.49
-8082.81
-8083.17
-8083.58
-8084.04
-8084.54
-8085.08
-8085.65
-8086.24
-8086.85
-8087.47
-8088.1
-8088.73
-8089.34
-8089.93
-8090.48
-8091
-8091.47
-8091.89
-8092.23
-8092.51
-8092.7
-8092.81
-8092.83
-8092.76
-8092.6
-8092.35
-8092
-8091.57
-8091.06
-8090.49
-8089.85
-8089.16
-8088.44
-8087.7
-8086.95
-8086.22
-8085.52
-8084.87
-8084.29
-8083.78
-8083.38
-8083.08
-8082.9
-8082.85
-8082.92
-8083.13
-8083.46
-8083.92
-8084.48
-8085.13
-8085.86
-8086.64
-8087.45
-8088.25
-8089.03
-8089.75
-8090.39
-8090.92
-8091.32
-8091.58
-8091.68
-8091.62
-8091.39
-8091.02
-8090.5
-8089.87
-8089.14
-8088.36
-8087.56
-8086.78
-8086.06
-8085.43
-8084.93
-8084.59
-8084.42
-8084.43
-8084.62
-8084.99
-8085.5
-8086.13
-8086.84
-8087.58
-8088.3
-8088.95
-8089.49
-8089.88
-8090.09
-8090.12
-8089.95
-8089.6
-8089.1
-8088.5
-8087.84
-8087.18
-8086.58
-8086.08
-8085.74
-8085.59
-8085.62
-8085.84
-8086.22
-8086.71
-8087.26
-8087.85
-8088.34
-8088.72
-8088.95
-8089
-8088.88
-8088.61
-8088.22
-8087.78
-8087.3
-8086.92
-8086.64
-8086.5
-8086.52
-8086.66
-8086.91
-8087.22
-8087.54
-8087.81
-8088
-8088.09
-8088.08
-8087.99
-8087.85
-8087.68
-8087.54
-8087.44
-8087.4
-8087.4
-8087.45
-8087.52
-8087.59
-8087.64
-8087.66
-8087.64
-8087.6
-8087.54
-8087.49
-8087.46
-8368.83
-8368.88
-8368.98
-8369.12
-8369.28
-8369.46
-8369.6
-8369.87
-8395.33
-8394.93
-8394.63
-8394.22
-8393.76
-8393.26
-8392.76
-8392.23
-8391.73
-8391.2
-8390.69
-8390.19
-8389.7
-8389.23
-8388.78
-8388.35
-8387.95
-8387.59
-8387.26
-8386.97
-8386.72
-8386.51
-8386.36
-8386.26
-8386.21
-8386.22
-8386.29
-8386.41
-8386.6
-8386.85
-8387.15
-8387.52
-8387.94
-8388.42
-8388.94
-8389.52
-8390.13
-8390.78
-8391.45
-8392.15
-8392.86
-8393.58
-8394.29
-8394.99
-8395.66
-8396.29
-8396.88
-8397.41
-8397.88
-8398.27
-8398.59
-8398.81
-8398.93
-8398.95
-8398.87
-8398.68
-8398.39
-8398
-8397.51
-8396.93
-8396.27
-8395.54
-8394.76
-8393.94
-8393.1
-8392.26
-8391.43
-8390.64
-8389.91
-8389.25
-8388.68
-8388.22
-8387.89
-8387.69
-8387.63
-8387.73
-8387.97
-8388.35
-8388.87
-8389.51
-8390.26
-8391.08
-8391.97
-8392.88
-8393.79
-8394.67
-8395.48
-8396.2
-8396.8
-8397.25
-8397.54
-8397.64
-8397.57
-8397.3
-8396.87
-8396.28
-8395.56
-8394.73
-8393.85
-8392.94
-8392.06
-8391.24
-8390.54
-8389.98
-8389.59
-8389.41
-8389.43
-8389.66
-8390.08
-8390.67
-8391.38
-8392.19
-8393.03
-8393.84
-8394.58
-8395.19
-8395.63
-8395.86
-8395.88
-8395.68
-8395.28
-8394.71
-8394.02
-8393.27
-8392.53
-8391.85
-8391.29
-8390.92
-8390.74
-8390.79
-8391.05
-8391.48
-8392.04
-8392.66
-8393.34
-8393.88
-8394.31
-8394.57
-8394.62
-8394.48
-8394.16
-8393.72
-8393.22
-8392.68
-8392.25
-8391.94
-8391.79
-8391.81
-8391.99
-8392.28
-8392.63
-8392.98
-8393.28
-8393.49
-8393.58
-8393.57
-8393.46
-8393.29
-8393.11
-8392.95
-8392.84
-8392.79
-8392.8
-8392.86
-8392.94
-8393.02
-8393.08
-8393.1
-8393.08
-8393.03
-8392.97
-8392.91
-8392.87
-8633.26
-8633.28
-8633.33
-8633.4
-8633.48
-8633.57
-8633.61
-8633.73
-8664.46
-8664.21
-8664.01
-8663.7
-8663.33
-8662.91
-8662.46
-8661.98
-8661.49
-8660.99
-8660.48
-8659.98
-8659.48
-8659
-8658.53
-8658.09
-8657.67
-8657.29
-8656.94
-8656.64
-8656.38
-8656.17
-8656.01
-8655.91
-8655.87
-8655.89
-8655.97
-8656.12
-8656.34
-8656.62
-8656.97
-8657.39
-8657.86
-8658.4
-8659
-8659.64
-8660.33
-8661.06
-8661.82
-8662.6
-8663.4
-8664.21
-8665
-8665.78
-8666.53
-8667.24
-8667.9
-8668.5
-8669.02
-8669.46
-8669.81
-8670.05
-8670.19
-8670.21
-8670.12
-8669.91
-8669.58
-8669.13
-8668.58
-8667.93
-8667.19
-8666.38
-8665.51
-8664.59
-8663.65
-8662.71
-8661.78
-8660.9
-8660.08
-8659.34
-8658.71
-8658.21
-8657.84
-8657.62
-8657.56
-8657.67
-8657.95
-8658.38
-8658.97
-8659.69
-8660.52
-8661.45
-8662.44
-8663.46
-8664.48
-8665.45
-8666.36
-8667.16
-8667.82
-8668.32
-8668.63
-8668.74
-8668.65
-8668.35
-8667.86
-8667.19
-8666.38
-8665.46
-8664.47
-8663.46
-8662.47
-8661.57
-8660.78
-8660.16
-8659.74
-8659.54
-8659.57
-8659.83
-8660.31
-8660.97
-8661.78
-8662.68
-8663.63
-8664.53
-8665.35
-8666.03
-8666.51
-8666.77
-8666.78
-8666.55
-8666.09
-8665.46
-8664.68
-8663.85
-8663.01
-8662.26
-8661.65
-8661.23
-8661.04
-8661.1
-8661.4
-8661.89
-8662.52
-8663.22
-8663.96
-8664.57
-8665.05
-8665.33
-8665.38
-8665.22
-8664.86
-8664.36
-8663.79
-8663.2
-8662.72
-8662.38
-8662.22
-8662.25
-8662.45
-8662.78
-8663.17
-8663.57
-8663.9
-8664.13
-8664.22
-8664.2
-8664.07
-8663.88
-8663.67
-8663.5
-8663.38
-8663.32
-8663.34
-8663.41
-8663.5
-8663.59
-8663.66
-8663.68
-8663.66
-8663.6
-8663.53
-8663.46
-8663.42
-8867.36
-8867.37
-8867.4
-8867.43
-8867.47
-8867.52
-8867.54
-8867.59
-8903.14
-8902.97
-8902.79
-8902.53
-8902.21
-8901.81
-8901.42
-8900.95
-8900.47
-8899.97
-8899.46
-8898.95
-8898.44
-8897.94
-8897.46
-8896.99
-8896.56
-8896.15
-8895.79
-8895.47
-8895.19
-8894.97
-8894.81
-8894.7
-8894.67
-8894.7
-8894.8
-8894.97
-8895.22
-8895.54
-8895.93
-8896.39
-8896.93
-8897.53
-8898.18
-8898.9
-8899.67
-8900.47
-8901.32
-8902.18
-8903.07
-8903.96
-8904.84
-8905.7
-8906.53
-8907.31
-8908.04
-8908.7
-8909.28
-8909.76
-8910.14
-8910.41
-8910.56
-8910.58
-8910.47
-8910.24
-8909.87
-8909.38
-8908.77
-8908.05
-8907.23
-8906.33
-8905.36
-8904.35
-8903.31
-8902.27
-8901.25
-8900.28
-8899.37
-8898.57
-8897.87
-8897.32
-8896.92
-8896.68
-8896.62
-8896.75
-8897.06
-8897.54
-8898.19
-8898.99
-8899.91
-8900.94
-8902.03
-8903.16
-8904.28
-8905.36
-8906.35
-8907.23
-8907.96
-8908.5
-8908.84
-8908.95
-8908.84
-8908.51
-8907.96
-8907.22
-8906.32
-8905.3
-8904.21
-8903.09
-8902
-8901.01
-8900.15
-8899.47
-8899.01
-8898.8
-8898.84
-8899.14
-8899.67
-8900.41
-8901.3
-8902.3
-8903.34
-8904.34
-8905.24
-8905.98
-8906.51
-8906.79
-8906.79
-8906.53
-8906.02
-8905.31
-8904.46
-8903.53
-8902.62
-8901.79
-8901.12
-8900.66
-8900.46
-8900.54
-8900.87
-8901.42
-8902.12
-8902.89
-8903.7
-8904.38
-8904.9
-8905.2
-8905.26
-8905.07
-8904.66
-8904.11
-8903.48
-8902.84
-8902.31
-8901.94
-8901.77
-8901.81
-8902.04
-8902.41
-8902.84
-8903.27
-8903.64
-8903.88
-8903.98
-8903.94
-8903.8
-8903.58
-8903.36
-8903.16
-8903.03
-8902.98
-8903
-8903.08
-8903.18
-8903.28
-8903.35
-8903.38
-8903.35
-8903.29
-8903.21
-8903.14
-8903.09
-9074.72
-9074.73
-9074.74
-9074.76
-9074.79
-9074.81
-9074.82
-9074.85
-9114.75
-9114.61
-9114.45
-9114.22
-9113.93
-9113.51
-9113.12
-9112.67
-9112.19
-9111.69
-9111.17
-9110.64
-9110.11
-9109.59
-9109.08
-9108.6
-9108.14
-9107.71
-9107.32
-9106.98
-9106.69
-9106.46
-9106.29
-9106.19
-9106.15
-9106.19
-9106.31
-9106.5
-9106.78
-9107.13
-9107.56
-9108.07
-9108.66
-9109.32
-9110.04
-9110.82
-9111.66
-9112.55
-9113.47
-9114.42
-9115.38
-9116.35
-9117.32
-9118.26
-9119.16
-9120.02
-9120.82
-9121.54
-9122.16
-9122.69
-9123.11
-9123.4
-9123.56
-9123.58
-9123.46
-9123.2
-9122.8
-9122.26
-9121.59
-9120.8
-9119.9
-9118.92
-9117.86
-9116.75
-9115.62
-9114.48
-9113.37
-9112.31
-9111.32
-9110.44
-9109.69
-9109.09
-9108.65
-9108.4
-9108.35
-9108.49
-9108.83
-9109.36
-9110.07
-9110.95
-9111.96
-9113.08
-9114.27
-9115.5
-9116.73
-9117.9
-9118.98
-9119.94
-9120.72
-9121.31
-9121.67
-9121.8
-9121.67
-9121.29
-9120.69
-9119.88
-9118.89
-9117.78
-9116.59
-9115.36
-9114.18
-9113.1
-9112.17
-9111.43
-9110.94
-9110.71
-9110.76
-9111.1
-9111.69
-9112.5
-9113.48
-9114.56
-9115.71
-9116.79
-9117.77
-9118.58
-9119.15
-9119.44
-9119.44
-9119.15
-9118.59
-9117.81
-9116.88
-9115.87
-9114.87
-9113.96
-9113.24
-9112.75
-9112.54
-9112.63
-9112.99
-9113.6
-9114.37
-9115.22
-9116.09
-9116.83
-9117.39
-9117.72
-9117.77
-9117.56
-9117.11
-9116.5
-9115.81
-9115.12
-9114.55
-9114.15
-9113.97
-9114.02
-9114.27
-9114.68
-9115.16
-9115.63
-9116.02
-9116.28
-9116.38
-9116.33
-9116.16
-9115.93
-9115.68
-9115.47
-9115.33
-9115.27
-9115.3
-9115.39
-9115.51
-9115.62
-9115.69
-9115.72
-9115.69
-9115.62
-9115.54
-9115.45
-9115.41
-9258.39
-9258.4
-9258.41
-9258.42
-9258.43
-9258.45
-9258.45
-9258.47
-9302.3
-9302.18
-9302.02
-9301.8
-9301.5
-9301.12
-9300.72
-9300.26
-9299.77
-9299.25
-9298.71
-9298.16
-9297.61
-9297.06
-9296.53
-9296.02
-9295.53
-9295.08
-9294.67
-9294.31
-9294
-9293.76
-9293.58
-9293.47
-9293.44
-9293.49
-9293.62
-9293.84
-9294.14
-9294.52
-9295
-9295.55
-9296.19
-9296.9
-9297.68
-9298.53
-9299.44
-9300.4
-9301.39
-9302.42
-9303.47
-9304.52
-9305.56
-9306.58
-9307.56
-9308.49
-9309.34
-9310.12
-9310.8
-9311.37
-9311.81
-9312.12
-9312.3
-9312.32
-9312.19
-9311.9
-9311.46
-9310.88
-9310.15
-9309.29
-9308.32
-9307.26
-9306.11
-9304.91
-9303.69
-9302.46
-9301.26
-9300.11
-9299.05
-9298.1
-9297.29
-9296.65
-9296.18
-9295.91
-9295.86
-9296.01
-9296.39
-9296.97
-9297.74
-9298.69
-9299.79
-9301
-9302.29
-9303.62
-9304.94
-9306.2
-9307.37
-9308.4
-9309.24
-9309.87
-9310.25
-9310.38
-9310.23
-9309.83
-9309.17
-9308.28
-9307.22
-9306.01
-9304.73
-9303.39
-9302.13
-9300.96
-9299.96
-9299.17
-9298.64
-9298.41
-9298.47
-9298.83
-9299.48
-9300.36
-9301.42
-9302.6
-9303.84
-9305.01
-9306.06
-9306.93
-9307.54
-9307.85
-9307.85
-9307.52
-9306.91
-9306.06
-9305.05
-9303.96
-9302.88
-9301.91
-9301.13
-9300.6
-9300.39
-9300.49
-9300.89
-9301.55
-9302.38
-9303.31
-9304.24
-9305.04
-9305.64
-9305.99
-9306.04
-9305.8
-9305.32
-9304.65
-9303.91
-9303.16
-9302.55
-9302.12
-9301.93
-9301.99
-9302.28
-9302.72
-9303.24
-9303.74
-9304.16
-9304.43
-9304.54
-9304.48
-9304.3
-9304.04
-9303.77
-9303.54
-9303.39
-9303.34
-9303.37
-9303.47
-9303.6
-9303.72
-9303.8
-9303.83
-9303.8
-9303.72
-9303.63
-9303.54
-9303.49
-9421.1
-9421.1
-9421.1
-9421.11
-9421.12
-9421.13
-9421.13
-9421.15
-9468.54
-9468.41
-9468.26
-9468.03
-9467.73
-9467.35
-9466.93
-9466.46
-9465.96
-9465.42
-9464.85