/*--------------------------------*- C++ -*----------------------------------*\
  =========                 |
  \\      /  F ield         | OpenFOAM: The Open Source CFD Toolbox
   \\    /   O peration     | Website:  https://openfoam.org
    \\  /    A nd           | Version:  12
     \\/     M anipulation  |
\*---------------------------------------------------------------------------*/
FoamFile
{
    format      ascii;
    class       volVectorField;
    location    "2.94";
    object      U;
}
// * * * * * * * * * * * * * * * * * * * * * * * * * * * * * * * * * * * * * //

dimensions      [0 1 -1 0 0 0 0];

internalField   nonuniform List<vector> 
3829
(
(4.41871e-06 -4.44568e-05 0)
(1.33088e-05 -4.4446e-05 0)
(2.23001e-05 -4.44059e-05 0)
(3.13913e-05 -4.43433e-05 0)
(4.05846e-05 -4.42565e-05 0)
(4.98872e-05 -4.41413e-05 0)
(5.92993e-05 -4.39955e-05 0)
(6.88077e-05 -4.38187e-05 0)
(7.84053e-05 -4.35937e-05 0)
(8.8104e-05 -4.33308e-05 0)
(9.78874e-05 -4.30113e-05 0)
(0.000107734 -4.26351e-05 0)
(0.000117648 -4.21959e-05 0)
(0.000127614 -4.16848e-05 0)
(0.000137595 -4.10922e-05 0)
(0.000147585 -4.04157e-05 0)
(0.000157567 -3.96484e-05 0)
(0.000167489 -3.87819e-05 0)
(0.000177332 -3.78119e-05 0)
(0.000187058 -3.67353e-05 0)
(0.000196625 -3.55489e-05 0)
(0.000205993 -3.42498e-05 0)
(0.000215118 -3.28381e-05 0)
(0.000223955 -3.13139e-05 0)
(0.000232459 -2.96791e-05 0)
(0.000240584 -2.79365e-05 0)
(0.000248282 -2.60908e-05 0)
(0.000255513 -2.41517e-05 0)
(0.000262233 -2.21186e-05 0)
(0.000268396 -2.00036e-05 0)
(0.000273967 -1.78159e-05 0)
(0.000278908 -1.55654e-05 0)
(0.000283192 -1.32624e-05 0)
(0.000286778 -1.09189e-05 0)
(0.000289646 -8.54807e-06 0)
(0.000291764 -6.16321e-06 0)
(0.000293132 -3.77187e-06 0)
(0.000293728 -1.38365e-06 0)
(0.000293531 9.98111e-07 0)
(0.000292553 3.3487e-06 0)
(0.000290758 5.66232e-06 0)
(0.000288185 7.92677e-06 0)
(0.000284806 1.01276e-05 0)
(0.00028063 1.22617e-05 0)
(0.000275712 1.43134e-05 0)
(0.000270032 1.6273e-05 0)
(0.000263625 1.81315e-05 0)
(0.000256515 1.98793e-05 0)
(0.000248731 2.1507e-05 0)
(0.000240309 2.3006e-05 0)
(0.000231284 2.43672e-05 0)
(0.000221699 2.55834e-05 0)
(0.0002116 2.66426e-05 0)
(0.000201038 2.75459e-05 0)
(0.000190074 2.82773e-05 0)
(0.00017875 2.88369e-05 0)
(0.000167133 2.92204e-05 0)
(0.00015531 2.94208e-05 0)
(0.000143288 2.94363e-05 0)
(0.000131227 2.92747e-05 0)
(0.000119203 2.89235e-05 0)
(0.000107212 2.83829e-05 0)
(9.53778e-05 2.76635e-05 0)
(8.37873e-05 2.67717e-05 0)
(7.2481e-05 2.57028e-05 0)
(6.16315e-05 2.44939e-05 0)
(5.118e-05 2.3104e-05 0)
(4.13287e-05 2.16037e-05 0)
(3.20993e-05 1.99506e-05 0)
(2.35106e-05 1.82164e-05 0)
(1.57447e-05 1.63665e-05 0)
(8.75043e-06 1.44735e-05 0)
(2.57052e-06 1.2513e-05 0)
(-2.70112e-06 1.05391e-05 0)
(-7.02199e-06 8.53329e-06 0)
(-1.04519e-05 6.54589e-06 0)
(-1.2883e-05 4.59081e-06 0)
(-1.44167e-05 2.67818e-06 0)
(-1.50206e-05 8.56267e-07 0)
(-1.4705e-05 -8.69276e-07 0)
(-1.35767e-05 -2.47827e-06 0)
(-1.1598e-05 -3.94829e-06 0)
(-8.88047e-06 -5.27007e-06 0)
(-5.48698e-06 -6.41528e-06 0)
(-1.4457e-06 -7.40463e-06 0)
(3.07617e-06 -8.19925e-06 0)
(7.98303e-06 -8.80321e-06 0)
(1.31904e-05 -9.20596e-06 0)
(1.8615e-05 -9.41972e-06 0)
(2.41453e-05 -9.44263e-06 0)
(2.96659e-05 -9.28205e-06 0)
(3.50791e-05 -8.94651e-06 0)
(4.02898e-05 -8.44936e-06 0)
(4.51911e-05 -7.80623e-06 0)
(4.96977e-05 -7.03295e-06 0)
(5.37288e-05 -6.14767e-06 0)
(5.72102e-05 -5.17177e-06 0)
(6.00882e-05 -4.12502e-06 0)
(6.23058e-05 -3.03266e-06 0)
(6.38354e-05 -1.91471e-06 0)
(6.46535e-05 -7.95178e-07 0)
(6.47232e-05 3.06136e-07 0)
(6.40345e-05 1.37502e-06 0)
(6.26527e-05 2.40248e-06 0)
(6.06019e-05 3.35298e-06 0)
(5.78807e-05 4.23112e-06 0)
(5.45769e-05 5.01956e-06 0)
(5.07233e-05 5.70229e-06 0)
(4.63921e-05 6.28206e-06 0)
(4.16669e-05 6.73974e-06 0)
(3.65789e-05 7.08761e-06 0)
(3.1246e-05 7.31875e-06 0)
(2.57414e-05 7.43889e-06 0)
(2.01333e-05 7.45284e-06 0)
(1.4497e-05 7.35771e-06 0)
(8.90675e-06 7.17231e-06 0)
(3.43482e-06 6.89706e-06 0)
(-1.82296e-06 6.55312e-06 0)
(-6.81633e-06 6.13083e-06 0)
(-1.15277e-05 5.65983e-06 0)
(-1.58794e-05 5.13389e-06 0)
(-1.98285e-05 4.58208e-06 0)
(-2.3348e-05 3.99524e-06 0)
(-2.64108e-05 3.39803e-06 0)
(-2.89938e-05 2.79303e-06 0)
(-3.10888e-05 2.19478e-06 0)
(-3.26898e-05 1.60456e-06 0)
(-3.38018e-05 1.03488e-06 0)
(-3.44217e-05 4.9001e-07 0)
(-3.45879e-05 -2.68458e-08 0)
(-3.43145e-05 -5.02742e-07 0)
(-3.3606e-05 -9.40263e-07 0)
(-3.2511e-05 -1.33819e-06 0)
(-3.10529e-05 -1.68524e-06 0)
(-2.927e-05 -1.99357e-06 0)
(-2.72069e-05 -2.24926e-06 0)
(-2.48854e-05 -2.46035e-06 0)
(-2.23559e-05 -2.62654e-06 0)
(-1.96619e-05 -2.74651e-06 0)
(-1.6833e-05 -2.8238e-06 0)
(-1.39104e-05 -2.86221e-06 0)
(-1.09405e-05 -2.86382e-06 0)
(-7.96009e-06 -2.82892e-06 0)
(-5.00322e-06 -2.76259e-06 0)
(-2.10286e-06 -2.66689e-06 0)
(7.12744e-07 -2.54749e-06 0)
(3.41757e-06 -2.40552e-06 0)
(5.99007e-06 -2.24506e-06 0)
(8.40449e-06 -2.07041e-06 0)
(1.06364e-05 -1.88505e-06 0)
(1.26784e-05 -1.68932e-06 0)
(1.45166e-05 -1.48941e-06 0)
(1.61353e-05 -1.28751e-06 0)
(1.75338e-05 -1.08437e-06 0)
(1.8704e-05 -8.84442e-07 0)
(1.96486e-05 -6.87824e-07 0)
(2.03692e-05 -4.99672e-07 0)
(2.08667e-05 -3.19365e-07 0)
(2.1151e-05 -1.4905e-07 0)
(2.1228e-05 1.00105e-08 0)
(2.11116e-05 1.5729e-07 0)
(2.08143e-05 2.90584e-07 0)
(2.03456e-05 4.1067e-07 0)
(1.9721e-05 5.16423e-07 0)
(1.89571e-05 6.0774e-07 0)
(1.80705e-05 6.84549e-07 0)
(1.7078e-05 7.46973e-07 0)
(1.59966e-05 7.95623e-07 0)
(1.4843e-05 8.30952e-07 0)
(1.36338e-05 8.53162e-07 0)
(1.23909e-05 8.63479e-07 0)
(1.11279e-05 8.6211e-07 0)
(9.85367e-06 8.50878e-07 0)
(8.5923e-06 8.30451e-07 0)
(7.35719e-06 8.01985e-07 0)
(6.1537e-06 7.66124e-07 0)
(4.99427e-06 7.24926e-07 0)
(3.89488e-06 6.78897e-07 0)
(2.85591e-06 6.29136e-07 0)
(1.88792e-06 5.7672e-07 0)
(1.0004e-06 5.21508e-07 0)
(1.92211e-07 4.65518e-07 0)
(-5.29742e-07 4.08888e-07 0)
(-1.16669e-06 3.51896e-07 0)
(-1.71464e-06 2.95132e-07 0)
(-2.17175e-06 2.38759e-07 0)
(-2.5371e-06 1.83402e-07 0)
(-2.81068e-06 1.2945e-07 0)
(-2.99333e-06 7.76765e-08 0)
(-3.08672e-06 2.85156e-08 0)
(-3.09441e-06 -1.77848e-08 0)
(-3.02071e-06 -6.0455e-08 0)
(-2.87028e-06 -9.9203e-08 0)
(-2.64892e-06 -1.33781e-07 0)
(-2.36307e-06 -1.63951e-07 0)
(-2.02004e-06 -1.89463e-07 0)
(-1.62791e-06 -2.10137e-07 0)
(-1.19539e-06 -2.25835e-07 0)
(-7.31627e-07 -2.36378e-07 0)
(-2.46549e-07 -2.41653e-07 0)
(4.60102e-06 -0.000128983 0)
(1.38525e-05 -0.000128963 0)
(2.32235e-05 -0.000128908 0)
(3.2722e-05 -0.000128823 0)
(4.23639e-05 -0.000128695 0)
(5.2161e-05 -0.00012852 0)
(6.20794e-05 -0.000128278 0)
(7.22298e-05 -0.000127964 0)
(8.2515e-05 -0.00012755 0)
(9.29531e-05 -0.00012702 0)
(0.000103614 -0.000126352 0)
(0.000114369 -0.000125517 0)
(0.000125292 -0.000124488 0)
(0.000136392 -0.000123236 0)
(0.000147572 -0.000121736 0)
(0.000158805 -0.000119963 0)
(0.000170118 -0.000117883 0)
(0.000181436 -0.000115478 0)
(0.000192697 -0.000112728 0)
(0.000203852 -0.000109619 0)
(0.000214859 -0.000106137 0)
(0.000225652 -0.000102279 0)
(0.000236165 -9.80401e-05 0)
(0.00024634 -9.34248e-05 0)
(0.000256117 -8.84459e-05 0)
(0.000265431 -8.31076e-05 0)
(0.00027419 -7.74344e-05 0)
(0.000282391 -7.14522e-05 0)
(0.000289979 -6.51882e-05 0)
(0.000296846 -5.86751e-05 0)
(0.000302976 -5.19259e-05 0)
(0.000308329 -4.50198e-05 0)
(0.000312868 -3.79652e-05 0)
(0.000316543 -3.08058e-05 0)
(0.000319327 -2.3574e-05 0)
(0.00032123 -1.63095e-05 0)
(0.000322281 -9.02206e-06 0)
(0.000322484 -1.7727e-06 0)
(0.000321732 5.40892e-06 0)
(0.000320029 1.24902e-05 0)
(0.000317417 1.94366e-05 0)
(0.000313888 2.62188e-05 0)
(0.000309472 3.28012e-05 0)
(0.000304174 3.91617e-05 0)
(0.000298015 4.52657e-05 0)
(0.000291017 5.10864e-05 0)
(0.000283218 5.6596e-05 0)
(0.000274644 6.17663e-05 0)
(0.000265331 6.65711e-05 0)
(0.000255319 7.09821e-05 0)
(0.000244655 7.49768e-05 0)
(0.000233368 7.85259e-05 0)
(0.000221549 8.1613e-05 0)
(0.000209231 8.42132e-05 0)
(0.000196471 8.6283e-05 0)
(0.00018337 8.78447e-05 0)
(0.000169962 8.88482e-05 0)
(0.000156346 8.93332e-05 0)
(0.000142601 8.92486e-05 0)
(0.000128834 8.86043e-05 0)
(0.000115087 8.73784e-05 0)
(0.000101462 8.55982e-05 0)
(8.81082e-05 8.32831e-05 0)
(7.50412e-05 8.04343e-05 0)
(6.24357e-05 7.70722e-05 0)
(5.03035e-05 7.32297e-05 0)
(3.87253e-05 6.89213e-05 0)
(2.78979e-05 6.42208e-05 0)
(1.78354e-05 5.91414e-05 0)
(8.59124e-06 5.37664e-05 0)
(3.43205e-07 4.81025e-05 0)
(-6.92365e-06 4.22384e-05 0)
(-1.32511e-05 3.6207e-05 0)
(-1.85187e-05 3.01169e-05 0)
(-2.27109e-05 2.39846e-05 0)
(-2.57645e-05 1.79143e-05 0)
(-2.77319e-05 1.19619e-05 0)
(-2.85893e-05 6.19359e-06 0)
(-2.83292e-05 6.78036e-07 0)
(-2.70719e-05 -4.51765e-06 0)
(-2.48643e-05 -9.35431e-06 0)
(-2.17152e-05 -1.37324e-05 0)
(-1.77189e-05 -1.76516e-05 0)
(-1.30466e-05 -2.10371e-05 0)
(-7.69179e-06 -2.38812e-05 0)
(-1.7643e-06 -2.61545e-05 0)
(4.53782e-06 -2.78354e-05 0)
(1.11039e-05 -2.89186e-05 0)
(1.78216e-05 -2.94072e-05 0)
(2.45977e-05 -2.93184e-05 0)
(3.12834e-05 -2.86727e-05 0)
(3.77644e-05 -2.75042e-05 0)
(4.39258e-05 -2.58534e-05 0)
(4.96561e-05 -2.3768e-05 0)
(5.48664e-05 -2.13038e-05 0)
(5.94627e-05 -1.85188e-05 0)
(6.33705e-05 -1.54757e-05 0)
(6.65287e-05 -1.22404e-05 0)
(6.88838e-05 -8.8844e-06 0)
(7.04178e-05 -5.4629e-06 0)
(7.11122e-05 -2.0518e-06 0)
(7.09621e-05 1.29067e-06 0)
(6.99918e-05 4.51711e-06 0)
(6.82091e-05 7.58358e-06 0)
(6.56794e-05 1.04289e-05 0)
(6.24555e-05 1.30208e-05 0)
(5.8569e-05 1.53264e-05 0)
(5.41095e-05 1.73154e-05 0)
(4.91429e-05 1.89777e-05 0)
(4.3778e-05 2.0284e-05 0)
(3.80788e-05 2.1253e-05 0)
(3.21454e-05 2.18803e-05 0)
(2.60806e-05 2.21676e-05 0)
(1.99299e-05 2.21376e-05 0)
(1.38026e-05 2.18014e-05 0)
(7.78003e-06 2.1193e-05 0)
(1.93768e-06 2.0327e-05 0)
(-3.65412e-06 1.92496e-05 0)
(-8.92696e-06 1.79676e-05 0)
(-1.38558e-05 1.65253e-05 0)
(-1.83674e-05 1.4951e-05 0)
(-2.24268e-05 1.32828e-05 0)
(-2.6019e-05 1.15419e-05 0)
(-2.90914e-05 9.7694e-06 0)
(-3.16459e-05 7.98151e-06 0)
(-3.36783e-05 6.21185e-06 0)
(-3.51879e-05 4.48293e-06 0)
(-3.61747e-05 2.8158e-06 0)
(-3.6656e-05 1.22702e-06 0)
(-3.66531e-05 -2.67862e-07 0)
(-3.61929e-05 -1.65321e-06 0)
(-3.53043e-05 -2.92208e-06 0)
(-3.40081e-05 -4.06351e-06 0)
(-3.23547e-05 -5.07164e-06 0)
(-3.03776e-05 -5.94655e-06 0)
(-2.81129e-05 -6.67898e-06 0)
(-2.56093e-05 -7.27694e-06 0)
(-2.28987e-05 -7.74269e-06 0)
(-2.00318e-05 -8.07739e-06 0)
(-1.70475e-05 -8.28908e-06 0)
(-1.39838e-05 -8.3847e-06 0)
(-1.08803e-05 -8.37137e-06 0)
(-7.77904e-06 -8.25585e-06 0)
(-4.71668e-06 -8.0508e-06 0)
(-1.7268e-06 -7.76044e-06 0)
(1.16441e-06 -7.40454e-06 0)
(3.9342e-06 -6.98266e-06 0)
(6.55596e-06 -6.50982e-06 0)
(9.00543e-06 -5.99555e-06 0)
(1.12651e-05 -5.44817e-06 0)
(1.33237e-05 -4.87733e-06 0)
(1.51643e-05 -4.2923e-06 0)
(1.67807e-05 -3.70069e-06 0)
(1.81686e-05 -3.11047e-06 0)
(1.93213e-05 -2.52783e-06 0)
(2.02406e-05 -1.96132e-06 0)
(2.09295e-05 -1.41291e-06 0)
(2.13937e-05 -8.92428e-07 0)
(2.16403e-05 -3.98405e-07 0)
(2.16777e-05 6.12249e-08 0)
(2.15186e-05 4.85519e-07 0)
(2.11776e-05 8.71694e-07 0)
(2.06655e-05 1.21731e-06 0)
(1.99968e-05 1.52166e-06 0)
(1.91895e-05 1.7831e-06 0)
(1.82606e-05 2.00328e-06 0)
(1.72276e-05 2.1818e-06 0)
(1.61081e-05 2.31971e-06 0)
(1.49182e-05 2.41967e-06 0)
(1.36753e-05 2.48235e-06 0)
(1.24013e-05 2.51048e-06 0)
(1.11106e-05 2.5031e-06 0)
(9.81246e-06 2.46848e-06 0)
(8.52998e-06 2.40912e-06 0)
(7.27648e-06 2.32312e-06 0)
(6.05834e-06 2.21791e-06 0)
(4.88771e-06 2.09587e-06 0)
(3.77932e-06 1.96395e-06 0)
(2.73413e-06 1.81741e-06 0)
(1.7612e-06 1.66659e-06 0)
(8.7101e-07 1.50523e-06 0)
(6.27153e-08 1.34331e-06 0)
(-6.58858e-07 1.17931e-06 0)
(-1.29445e-06 1.01424e-06 0)
(-1.84021e-06 8.49412e-07 0)
(-2.29432e-06 6.86176e-07 0)
(-2.65561e-06 5.25931e-07 0)
(-2.92398e-06 3.70133e-07 0)
(-3.10026e-06 2.20124e-07 0)
(-3.18669e-06 7.77036e-08 0)
(-3.18652e-06 -5.58219e-08 0)
(-3.10404e-06 -1.79018e-07 0)
(-2.94448e-06 -2.90902e-07 0)
(-2.71371e-06 -3.90741e-07 0)
(-2.41817e-06 -4.77824e-07 0)
(-2.06524e-06 -5.51456e-07 0)
(-1.66313e-06 -6.11086e-07 0)
(-1.22055e-06 -6.56357e-07 0)
(-7.46743e-07 -6.86698e-07 0)
(-2.51594e-07 -7.01857e-07 0)
(4.65485e-06 -0.000208759 0)
(1.40175e-05 -0.000208798 0)
(2.35132e-05 -0.00020894 0)
(3.32174e-05 -0.00020913 0)
(4.31509e-05 -0.000209368 0)
(5.33616e-05 -0.000209628 0)
(6.38513e-05 -0.000209877 0)
(7.4686e-05 -0.000210065 0)
(8.59136e-05 -0.000210165 0)
(9.74909e-05 -0.000210109 0)
(0.000109503 -0.000209828 0)
(0.000121928 -0.000209275 0)
(0.000134769 -0.000208348 0)
(0.000148 -0.000206993 0)
(0.000161525 -0.000205174 0)
(0.000175389 -0.000202801 0)
(0.00018952 -0.000199833 0)
(0.000203757 -0.000196252 0)
(0.000218052 -0.000192001 0)
(0.000232301 -0.000187055 0)
(0.000246404 -0.000181391 0)
(0.000260253 -0.000174995 0)
(0.000273744 -0.000167861 0)
(0.000286736 -0.000159996 0)
(0.000299179 -0.000151411 0)
(0.000310965 -0.000142116 0)
(0.000321915 -0.000132188 0)
(0.000331987 -0.000121656 0)
(0.000341107 -0.000110619 0)
(0.000349322 -9.90501e-05 0)
(0.000356342 -8.71339e-05 0)
(0.00036217 -7.49059e-05 0)
(0.000366999 -6.23945e-05 0)
(0.000370663 -4.97437e-05 0)
(0.000373176 -3.70316e-05 0)
(0.000374653 -2.43107e-05 0)
(0.000374993 -1.16296e-05 0)
(0.000374077 9.65057e-07 0)
(0.000372043 1.33913e-05 0)
(0.000368891 2.55783e-05 0)
(0.000364618 3.74864e-05 0)
(0.000359267 4.90681e-05 0)
(0.000352861 6.02723e-05 0)
(0.000345424 7.10539e-05 0)
(0.000336991 8.13664e-05 0)
(0.000327592 9.11662e-05 0)
(0.000317263 0.000100407 0)
(0.000306042 0.000109047 0)
(0.000293968 0.00011704 0)
(0.0002811 0.000124348 0)
(0.000267479 0.000130918 0)
(0.00025318 0.000136725 0)
(0.000238278 0.000141737 0)
(0.000222708 0.000145882 0)
(0.000206744 0.000149163 0)
(0.000190411 0.000151515 0)
(0.000173846 0.000152923 0)
(0.000157135 0.000153396 0)
(0.000140167 0.000152904 0)
(0.000123222 0.000151431 0)
(0.000106441 0.000148998 0)
(8.99986e-05 0.000145594 0)
(7.39079e-05 0.000141253 0)
(5.82457e-05 0.000135999 0)
(4.31894e-05 0.000129883 0)
(2.88626e-05 0.000122917 0)
(1.537e-05 0.000115233 0)
(2.89476e-06 0.000106828 0)
(-8.5264e-06 9.78121e-05 0)
(-1.88985e-05 8.82631e-05 0)
(-2.80325e-05 7.82757e-05 0)
(-3.59017e-05 6.79328e-05 0)
(-4.24166e-05 5.73715e-05 0)
(-4.75415e-05 4.67036e-05 0)
(-5.12833e-05 3.60439e-05 0)
(-5.35666e-05 2.55241e-05 0)
(-5.44416e-05 1.52456e-05 0)
(-5.39699e-05 5.35091e-06 0)
(-5.21394e-05 -4.05413e-06 0)
(-4.9079e-05 -1.28728e-05 0)
(-4.47934e-05 -2.09833e-05 0)
(-3.9392e-05 -2.8309e-05 0)
(-3.30752e-05 -3.47652e-05 0)
(-2.58979e-05 -4.02881e-05 0)
(-1.80335e-05 -4.48105e-05 0)
(-9.60358e-06 -4.8322e-05 0)
(-7.93487e-07 -5.07958e-05 0)
(8.23554e-06 -5.22285e-05 0)
(1.73315e-05 -5.26265e-05 0)
(2.63372e-05 -5.20314e-05 0)
(3.50891e-05 -5.0492e-05 0)
(4.34381e-05 -4.80686e-05 0)
(5.12568e-05 -4.48474e-05 0)
(5.84037e-05 -4.09117e-05 0)
(6.47777e-05 -3.63641e-05 0)
(7.02881e-05 -3.13065e-05 0)
(7.48516e-05 -2.58635e-05 0)
(7.84027e-05 -2.0141e-05 0)
(8.09239e-05 -1.42592e-05 0)
(8.23928e-05 -8.32224e-06 0)
(8.27899e-05 -2.45011e-06 0)
(8.21647e-05 3.26964e-06 0)
(8.05574e-05 8.73623e-06 0)
(7.79995e-05 1.38667e-05 0)
(7.45574e-05 1.85934e-05 0)
(7.03138e-05 2.28467e-05 0)
(6.53581e-05 2.65824e-05 0)
(5.9788e-05 2.97686e-05 0)
(5.36811e-05 3.23616e-05 0)
(4.71927e-05 3.43956e-05 0)
(4.0416e-05 3.58079e-05 0)
(3.3426e-05 3.66742e-05 0)
(2.63594e-05 3.69667e-05 0)
(1.93004e-05 3.67306e-05 0)
(1.23499e-05 3.60016e-05 0)
(5.5866e-06 3.48258e-05 0)
(-8.95341e-07 3.32583e-05 0)
(-7.02404e-06 3.13355e-05 0)
(-1.2756e-05 2.91156e-05 0)
(-1.8031e-05 2.66438e-05 0)
(-2.27913e-05 2.39816e-05 0)
(-2.7014e-05 2.11764e-05 0)
(-3.06712e-05 1.82834e-05 0)
(-3.37468e-05 1.5346e-05 0)
(-3.62406e-05 1.24102e-05 0)
(-3.81353e-05 9.51852e-06 0)
(-3.94526e-05 6.70475e-06 0)
(-4.02118e-05 4.00363e-06 0)
(-4.04242e-05 1.44399e-06 0)
(-4.01302e-05 -9.48093e-07 0)
(-3.93633e-05 -3.16233e-06 0)
(-3.81397e-05 -5.17619e-06 0)
(-3.65078e-05 -6.9794e-06 0)
(-3.45146e-05 -8.56386e-06 0)
(-3.21921e-05 -9.92307e-06 0)
(-2.95978e-05 -1.10664e-05 0)
(-2.67762e-05 -1.19771e-05 0)
(-2.37631e-05 -1.26827e-05 0)
(-2.06121e-05 -1.31753e-05 0)
(-1.73627e-05 -1.34699e-05 0)
(-1.40531e-05 -1.35797e-05 0)
(-1.07278e-05 -1.35165e-05 0)
(-7.43208e-06 -1.32979e-05 0)
(-4.19506e-06 -1.29332e-05 0)
(-1.05963e-06 -1.24414e-05 0)
(1.95433e-06 -1.18403e-05 0)
(4.82995e-06 -1.11431e-05 0)
(7.53079e-06 -1.03658e-05 0)
(1.00424e-05 -9.52736e-06 0)
(1.23422e-05 -8.63758e-06 0)
(1.44217e-05 -7.71165e-06 0)
(1.62706e-05 -6.76688e-06 0)
(1.7877e-05 -5.8157e-06 0)
(1.92427e-05 -4.86799e-06 0)
(2.03593e-05 -3.93761e-06 0)
(2.12361e-05 -3.03187e-06 0)
(2.18736e-05 -2.15858e-06 0)
(2.22782e-05 -1.3273e-06 0)
(2.24625e-05 -5.45494e-07 0)
(2.24297e-05 1.84265e-07 0)
(2.22006e-05 8.53664e-07 0)
(2.17863e-05 1.46341e-06 0)
(2.11989e-05 2.00723e-06 0)
(2.04553e-05 2.48524e-06 0)
(1.95749e-05 2.89568e-06 0)
(1.85758e-05 3.23929e-06 0)
(1.74742e-05 3.51726e-06 0)
(1.62909e-05 3.73077e-06 0)
(1.50417e-05 3.88246e-06 0)
(1.37431e-05 3.97527e-06 0)
(1.2415e-05 4.01242e-06 0)
(1.10774e-05 3.99671e-06 0)
(9.74276e-06 3.93508e-06 0)
(8.42329e-06 3.83374e-06 0)
(7.1377e-06 3.69259e-06 0)
(5.89594e-06 3.52305e-06 0)
(4.70944e-06 3.32579e-06 0)
(3.58631e-06 3.11134e-06 0)
(2.53022e-06 2.87717e-06 0)
(1.54998e-06 2.63385e-06 0)
(6.54498e-07 2.37819e-06 0)
(-1.5253e-07 2.12145e-06 0)
(-8.73782e-07 1.85995e-06 0)
(-1.50758e-06 1.59743e-06 0)
(-2.04971e-06 1.33592e-06 0)
(-2.49835e-06 1.07726e-06 0)
(-2.85253e-06 8.23114e-07 0)
(-3.11237e-06 5.75551e-07 0)
(-3.2785e-06 3.37247e-07 0)
(-3.35276e-06 1.11204e-07 0)
(-3.33911e-06 -1.00116e-07 0)
(-3.24221e-06 -2.9499e-07 0)
(-3.06751e-06 -4.71871e-07 0)
(-2.82108e-06 -6.29647e-07 0)
(-2.50943e-06 -7.67268e-07 0)
(-2.14005e-06 -8.83592e-07 0)
(-1.72135e-06 -9.77664e-07 0)
(-1.26204e-06 -1.04902e-06 0)
(-7.71605e-07 -1.09665e-06 0)
(-2.59925e-07 -1.1205e-06 0)
(4.13558e-06 -0.000282102 0)
(1.23675e-05 -0.0002823 0)
(2.08926e-05 -0.000283069 0)
(2.97601e-05 -0.000284209 0)
(3.89871e-05 -0.000285701 0)
(4.88004e-05 -0.000287499 0)
(5.93103e-05 -0.000289536 0)
(7.05779e-05 -0.000291746 0)
(8.26036e-05 -0.000293996 0)
(9.5661e-05 -0.000296196 0)
(0.000109661 -0.000298128 0)
(0.000124671 -0.000299702 0)
(0.000140769 -0.000300729 0)
(0.000157511 -0.000301105 0)
(0.000175013 -0.000300672 0)
(0.000193258 -0.000299249 0)
(0.00021181 -0.000296707 0)
(0.000230651 -0.000292934 0)
(0.000249762 -0.000287853 0)
(0.000268885 -0.000281346 0)
(0.000287883 -0.000273378 0)
(0.000306594 -0.00026393 0)
(0.000324835 -0.000253 0)
(0.00034243 -0.000240619 0)
(0.000359318 -0.000226859 0)
(0.000375086 -0.000211801 0)
(0.000389539 -0.00019565 0)
(0.000402586 -0.000178474 0)
(0.00041447 -0.000160566 0)
(0.00042469 -0.000142033 0)
(0.000432904 -0.000123086 0)
(0.000439905 -0.000103899 0)
(0.00044516 -8.45992e-05 0)
(0.000448381 -6.52291e-05 0)
(0.000450032 -4.59731e-05 0)
(0.000450306 -2.68187e-05 0)
(0.000449261 -7.88652e-06 0)
(0.000446742 1.07142e-05 0)
(0.000442578 2.88853e-05 0)
(0.00043699 4.65845e-05 0)
(0.000430143 6.37544e-05 0)
(0.000421994 8.03489e-05 0)
(0.000412595 9.63194e-05 0)
(0.000401988 0.000111622 0)
(0.000390215 0.000126204 0)
(0.000377313 0.000140013 0)
(0.000363337 0.000152998 0)
(0.000348328 0.000165097 0)
(0.000332346 0.000176256 0)
(0.000315418 0.000186396 0)
(0.00029765 0.000195491 0)
(0.000279169 0.000203439 0)
(0.000259891 0.000210222 0)
(0.000239976 0.000215746 0)
(0.000219548 0.000219991 0)
(0.000198634 0.000222923 0)
(0.000177566 0.000224483 0)
(0.000156382 0.000224634 0)
(0.000135049 0.000223369 0)
(0.000113884 0.000220666 0)
(9.29546e-05 0.000216527 0)
(7.24154e-05 0.000210998 0)
(5.25138e-05 0.000204055 0)
(3.33215e-05 0.000195769 0)
(1.49647e-05 0.000186248 0)
(-2.2632e-06 0.000175506 0)
(-1.83425e-05 0.000163645 0)
(-3.31842e-05 0.000150778 0)
(-4.65196e-05 0.000137013 0)
(-5.83665e-05 0.000122479 0)
(-6.8541e-05 0.000107363 0)
(-7.69588e-05 9.17838e-05 0)
(-8.3574e-05 7.59503e-05 0)
(-8.83566e-05 6.00011e-05 0)
(-9.12736e-05 4.41623e-05 0)
(-9.23329e-05 2.85819e-05 0)
(-9.15634e-05 1.34621e-05 0)
(-8.89666e-05 -1.03127e-06 0)
(-8.47038e-05 -1.47072e-05 0)
(-7.88609e-05 -2.74251e-05 0)
(-7.15531e-05 -3.90097e-05 0)
(-6.29337e-05 -4.93784e-05 0)
(-5.31576e-05 -5.83683e-05 0)
(-4.24411e-05 -6.59162e-05 0)
(-3.09538e-05 -7.1944e-05 0)
(-1.89241e-05 -7.64188e-05 0)
(-6.57082e-06 -7.93212e-05 0)
(5.903e-06 -8.06642e-05 0)
(1.8266e-05 -8.04853e-05 0)
(3.03132e-05 -7.88535e-05 0)
(4.18562e-05 -7.58435e-05 0)
(5.26948e-05 -7.15879e-05 0)
(6.26686e-05 -6.61893e-05 0)
(7.16377e-05 -5.98182e-05 0)
(7.94856e-05 -5.26126e-05 0)
(8.60834e-05 -4.4759e-05 0)
(9.13658e-05 -3.64101e-05 0)
(9.5301e-05 -2.7757e-05 0)
(9.78594e-05 -1.89506e-05 0)
(9.90473e-05 -1.01647e-05 0)
(9.89011e-05 -1.55966e-06 0)
(9.7479e-05 6.72938e-06 0)
(9.4833e-05 1.45615e-05 0)
(9.10592e-05 2.18293e-05 0)
(8.62644e-05 2.84475e-05 0)
(8.0566e-05 3.43273e-05 0)
(7.40883e-05 3.9416e-05 0)
(6.69276e-05 4.36621e-05 0)
(5.92934e-05 4.70632e-05 0)
(5.12618e-05 4.96156e-05 0)
(4.29832e-05 5.1311e-05 0)
(3.46263e-05 5.21825e-05 0)
(2.62302e-05 5.22775e-05 0)
(1.79683e-05 5.16376e-05 0)
(9.94427e-06 5.03287e-05 0)
(2.27072e-06 4.84139e-05 0)
(-5.00056e-06 4.59789e-05 0)
(-1.18019e-05 4.30755e-05 0)
(-1.80561e-05 3.97847e-05 0)
(-2.37346e-05 3.61856e-05 0)
(-2.87706e-05 3.23581e-05 0)
(-3.31489e-05 2.83598e-05 0)
(-3.68655e-05 2.42792e-05 0)
(-3.98943e-05 2.01648e-05 0)
(-4.22455e-05 1.60833e-05 0)
(-4.39383e-05 1.20898e-05 0)
(-4.4992e-05 8.22966e-06 0)
(-4.54217e-05 4.55013e-06 0)
(-4.52611e-05 1.08285e-06 0)
(-4.45672e-05 -2.15621e-06 0)
(-4.33762e-05 -5.12174e-06 0)
(-4.17158e-05 -7.80737e-06 0)
(-3.96344e-05 -1.01944e-05 0)
(-3.71891e-05 -1.2279e-05 0)
(-3.44402e-05 -1.40446e-05 0)
(-3.14111e-05 -1.55176e-05 0)
(-2.81765e-05 -1.668e-05 0)
(-2.47814e-05 -1.75545e-05 0)
(-2.12572e-05 -1.81478e-05 0)
(-1.76729e-05 -1.84776e-05 0)
(-1.40602e-05 -1.85531e-05 0)
(-1.04642e-05 -1.84077e-05 0)
(-6.92194e-06 -1.80496e-05 0)
(-3.46968e-06 -1.7505e-05 0)
(-1.52581e-07 -1.67968e-05 0)
(3.014e-06 -1.5938e-05 0)
(6.01194e-06 -1.49612e-05 0)
(8.80723e-06 -1.38809e-05 0)
(1.13866e-05 -1.27198e-05 0)
(1.37383e-05 -1.15004e-05 0)
(1.58427e-05 -1.02413e-05 0)
(1.76887e-05 -8.95718e-06 0)
(1.928e-05 -7.66605e-06 0)
(2.06125e-05 -6.38696e-06 0)
(2.16832e-05 -5.13063e-06 0)
(2.2503e-05 -3.90781e-06 0)
(2.30724e-05 -2.73984e-06 0)
(2.33985e-05 -1.62567e-06 0)
(2.34977e-05 -5.83764e-07 0)
(2.33773e-05 3.86932e-07 0)
(2.30548e-05 1.27862e-06 0)
(2.25472e-05 2.08209e-06 0)
(2.18648e-05 2.80045e-06 0)
(2.10277e-05 3.42933e-06 0)
(2.00545e-05 3.96942e-06 0)
(1.89656e-05 4.41968e-06 0)
(1.77787e-05 4.78133e-06 0)
(1.65132e-05 5.05696e-06 0)
(1.51867e-05 5.24816e-06 0)
(1.38168e-05 5.36073e-06 0)
(1.24249e-05 5.39764e-06 0)
(1.10294e-05 5.36912e-06 0)
(9.64301e-06 5.27542e-06 0)
(8.28018e-06 5.12814e-06 0)
(6.95958e-06 4.93499e-06 0)
(5.68842e-06 4.70085e-06 0)
(4.47742e-06 4.43477e-06 0)
(3.33732e-06 4.13937e-06 0)
(2.26895e-06 3.82451e-06 0)
(1.2806e-06 3.49333e-06 0)
(3.82888e-07 3.15475e-06 0)
(-4.25121e-07 2.8103e-06 0)
(-1.14648e-06 2.46058e-06 0)
(-1.77656e-06 2.11023e-06 0)
(-2.31329e-06 1.7622e-06 0)
(-2.75533e-06 1.41782e-06 0)
(-3.10143e-06 1.07876e-06 0)
(-3.35075e-06 7.48576e-07 0)
(-3.50348e-06 4.30873e-07 0)
(-3.56215e-06 1.29409e-07 0)
(-3.53125e-06 -1.52202e-07 0)
(-3.41594e-06 -4.11159e-07 0)
(-3.22206e-06 -6.45932e-07 0)
(-2.95594e-06 -8.55243e-07 0)
(-2.62405e-06 -1.0378e-06 0)
(-2.2339e-06 -1.19208e-06 0)
(-1.79427e-06 -1.31656e-06 0)
(-1.31386e-06 -1.41079e-06 0)
(-8.0258e-07 -1.47346e-06 0)
(-2.70309e-07 -1.5048e-06 0)
(2.17901e-06 -0.000332578 0)
(6.51011e-06 -0.000333251 0)
(1.12139e-05 -0.000335602 0)
(1.64665e-05 -0.000339114 0)
(2.24706e-05 -0.000343684 0)
(2.95677e-05 -0.000349165 0)
(3.78529e-05 -0.000355357 0)
(4.77653e-05 -0.000362002 0)
(5.94481e-05 -0.000368744 0)
(7.33322e-05 -0.000375266 0)
(8.94316e-05 -0.000381245 0)
(0.000107504 -0.000386438 0)
(0.000127583 -0.00039059 0)
(0.000149376 -0.000393563 0)
(0.000173179 -0.00039512 0)
(0.000198819 -0.000395196 0)
(0.000225764 -0.000393656 0)
(0.000253547 -0.000390282 0)
(0.000282125 -0.00038505 0)
(0.000311137 -0.000377692 0)
(0.000339943 -0.000368124 0)
(0.000368258 -0.00035625 0)
(0.000395734 -0.000342001 0)
(0.000421863 -0.000325378 0)
(0.000446369 -0.000306508 0)
(0.000468515 -0.000285419 0)
(0.000488228 -0.000262414 0)
(0.00050509 -0.000237669 0)
(0.000518937 -0.00021163 0)
(0.000530207 -0.000184727 0)
(0.000538363 -0.000157302 0)
(0.000543921 -0.000129762 0)
(0.000547621 -0.000102285 0)
(0.000549076 -7.51271e-05 0)
(0.000548605 -4.82927e-05 0)
(0.000546645 -2.191e-05 0)
(0.000542604 3.83507e-06 0)
(0.000536487 2.8787e-05 0)
(0.000528702 5.29771e-05 0)
(0.000519461 7.64335e-05 0)
(0.000508782 9.90779e-05 0)
(0.000496739 0.000120859 0)
(0.000483381 0.00014176 0)
(0.000468731 0.000161713 0)
(0.000452803 0.000180683 0)
(0.000435642 0.000198592 0)
(0.000417258 0.0002154 0)
(0.000397702 0.000230959 0)
(0.000376958 0.000245289 0)
(0.00035519 0.000258249 0)
(0.000332388 0.000269845 0)
(0.000308666 0.000279924 0)
(0.000284122 0.000288423 0)
(0.000258717 0.000295213 0)
(0.000232929 0.000300273 0)
(0.000206655 0.000303561 0)
(0.000180046 0.000305011 0)
(0.000153365 0.000304472 0)
(0.000126564 0.000302035 0)
(9.99492e-05 0.000297648 0)
(7.38742e-05 0.000291286 0)
(4.84189e-05 0.000282986 0)
(2.36935e-05 0.000272815 0)
(1.76596e-07 0.000260804 0)
(-2.21526e-05 0.000247023 0)
(-4.31856e-05 0.000231661 0)
(-6.25512e-05 0.000214706 0)
(-8.00822e-05 0.000196459 0)
(-9.57026e-05 0.000176994 0)
(-0.00010921 0.000156568 0)
(-0.000120458 0.000135378 0)
(-0.000129416 0.000113658 0)
(-0.000135966 9.16423e-05 0)
(-0.000140038 6.9596e-05 0)
(-0.000141665 4.77691e-05 0)
(-0.00014089 2.64211e-05 0)
(-0.000137722 5.81461e-06 0)
(-0.000132287 -1.3815e-05 0)
(-0.000124701 -3.22257e-05 0)
(-0.000115146 -4.9183e-05 0)
(-0.000103806 -6.44879e-05 0)
(-9.08598e-05 -7.79614e-05 0)
(-7.65673e-05 -8.94616e-05 0)
(-6.12239e-05 -9.88881e-05 0)
(-4.50839e-05 -0.00010616 0)
(-2.84315e-05 -0.000111237 0)
(-1.15681e-05 -0.000114111 0)
(5.21127e-06 -0.000114834 0)
(2.1623e-05 -0.000113468 0)
(3.7429e-05 -0.000110157 0)
(5.23335e-05 -0.000104985 0)
(6.61382e-05 -9.818e-05 0)
(7.8648e-05 -8.9909e-05 0)
(8.96646e-05 -8.03894e-05 0)
(9.90802e-05 -6.98902e-05 0)
(0.000106791 -5.85967e-05 0)
(0.000112734 -4.67743e-05 0)
(0.000116875 -3.46794e-05 0)
(0.000119254 -2.25369e-05 0)
(0.000119862 -1.05625e-05 0)
(0.000118787 1.04863e-06 0)
(0.000116135 1.20908e-05 0)
(0.000112022 2.24142e-05 0)
(0.000106612 3.18643e-05 0)
(0.000100025 4.03602e-05 0)
(9.24209e-05 4.78077e-05 0)
(8.39702e-05 5.41208e-05 0)
(7.48691e-05 5.92874e-05 0)
(6.53024e-05 6.33041e-05 0)
(5.5404e-05 6.61457e-05 0)
(4.53394e-05 6.78976e-05 0)
(3.52911e-05 6.856e-05 0)
(2.53929e-05 6.82201e-05 0)
(1.57649e-05 6.69356e-05 0)
(6.53795e-06 6.48425e-05 0)
(-2.17973e-06 6.20108e-05 0)
(-1.03275e-05 5.85142e-05 0)
(-1.78526e-05 5.44789e-05 0)
(-2.46692e-05 4.99903e-05 0)
(-3.07312e-05 4.51617e-05 0)
(-3.60248e-05 4.00787e-05 0)
(-4.05238e-05 3.48406e-05 0)
(-4.42228e-05 2.9518e-05 0)
(-4.71465e-05 2.42275e-05 0)
(-4.92938e-05 1.89996e-05 0)
(-5.06886e-05 1.39234e-05 0)
(-5.13693e-05 9.05138e-06 0)
(-5.13804e-05 4.43098e-06 0)
(-5.07844e-05 1.07159e-07 0)
(-4.96068e-05 -3.9046e-06 0)
(-4.78981e-05 -7.55675e-06 0)
(-4.57151e-05 -1.08312e-05 0)
(-4.31102e-05 -1.37272e-05 0)
(-4.0136e-05 -1.62316e-05 0)
(-3.6869e-05 -1.83434e-05 0)
(-3.33609e-05 -2.00616e-05 0)
(-2.96536e-05 -2.14147e-05 0)
(-2.58157e-05 -2.23981e-05 0)
(-2.18901e-05 -2.30356e-05 0)
(-1.79219e-05 -2.33472e-05 0)
(-1.39667e-05 -2.33546e-05 0)
(-1.0066e-05 -2.30835e-05 0)
(-6.25282e-06 -2.25575e-05 0)
(-2.57353e-06 -2.18047e-05 0)
(9.4678e-07 -2.08592e-05 0)
(4.27907e-06 -1.97403e-05 0)
(7.40637e-06 -1.84743e-05 0)
(1.03063e-05 -1.70922e-05 0)
(1.29571e-05 -1.56158e-05 0)
(1.53435e-05 -1.40708e-05 0)
(1.74667e-05 -1.24853e-05 0)
(1.9318e-05 -1.08781e-05 0)
(2.08841e-05 -9.26678e-06 0)
(2.21751e-05 -7.67417e-06 0)
(2.31938e-05 -6.11466e-06 0)
(2.39389e-05 -4.60718e-06 0)
(2.44242e-05 -3.16444e-06 0)
(2.46603e-05 -1.80087e-06 0)
(2.46608e-05 -5.16972e-07 0)
(2.44406e-05 6.67063e-07 0)
(2.40102e-05 1.75555e-06 0)
(2.33925e-05 2.73523e-06 0)
(2.26046e-05 3.60439e-06 0)
(2.16612e-05 4.36484e-06 0)
(2.05849e-05 5.0145e-06 0)
(1.93945e-05 5.55409e-06 0)
(1.81097e-05 5.98467e-06 0)
(1.67514e-05 6.30879e-06 0)
(1.53382e-05 6.52955e-06 0)
(1.38878e-05 6.65173e-06 0)
(1.2424e-05 6.68521e-06 0)
(1.09635e-05 6.63343e-06 0)
(9.5198e-06 6.50561e-06 0)
(8.11138e-06 6.31279e-06 0)
(6.75058e-06 6.06504e-06 0)
(5.44772e-06 5.7656e-06 0)
(4.2119e-06 5.43163e-06 0)
(3.05177e-06 5.0636e-06 0)
(1.97075e-06 4.66971e-06 0)
(9.76405e-07 4.26149e-06 0)
(7.62944e-08 3.84409e-06 0)
(-7.33376e-07 3.41819e-06 0)
(-1.45297e-06 2.98934e-06 0)
(-2.07874e-06 2.56116e-06 0)
(-2.60946e-06 2.13488e-06 0)
(-3.04447e-06 1.71295e-06 0)
(-3.38119e-06 1.29703e-06 0)
(-3.61831e-06 8.92193e-07 0)
(-3.75643e-06 5.02024e-07 0)
(-3.79769e-06 1.32715e-07 0)
(-3.74692e-06 -2.1218e-07 0)
(-3.61044e-06 -5.28305e-07 0)
(-3.39494e-06 -8.14597e-07 0)
(-3.10674e-06 -1.06971e-06 0)
(-2.75219e-06 -1.29229e-06 0)
(-2.3387e-06 -1.48041e-06 0)
(-1.87547e-06 -1.63169e-06 0)
(-1.37142e-06 -1.7458e-06 0)
(-8.36881e-07 -1.82155e-06 0)
(-2.81789e-07 -1.85919e-06 0)
(-2.69742e-06 -0.000337656 0)
(-8.13036e-06 -0.000339081 0)
(-1.28229e-05 -0.000344399 0)
(-1.61978e-05 -0.00035238 0)
(-1.75313e-05 -0.000362855 0)
(-1.61133e-05 -0.000375664 0)
(-1.13111e-05 -0.00039064 0)
(-2.29109e-06 -0.000407468 0)
(1.11556e-05 -0.00042579 0)
(2.90101e-05 -0.000445136 0)
(5.07111e-05 -0.000465009 0)
(7.58589e-05 -0.000484676 0)
(0.000103939 -0.000503438 0)
(0.000134365 -0.00052044 0)
(0.000166868 -0.000534957 0)
(0.00020088 -0.000546269 0)
(0.000236639 -0.000553763 0)
(0.000273515 -0.000556895 0)
(0.000311677 -0.000555193 0)
(0.000351091 -0.000548452 0)
(0.000390731 -0.000536539 0)
(0.000430338 -0.000519407 0)
(0.000469265 -0.000497176 0)
(0.000506439 -0.000470093 0)
(0.00054167 -0.00043851 0)