/*--------------------------------*- C++ -*----------------------------------*\
  =========                 |
  \\      /  F ield         | OpenFOAM: The Open Source CFD Toolbox
   \\    /   O peration     | Website:  https://openfoam.org
    \\  /    A nd           | Version:  12
     \\/     M anipulation  |
\*---------------------------------------------------------------------------*/
FoamFile
{
    format      ascii;
    class       volVectorField;
    location    "0.56";
    object      zeta;
}
// * * * * * * * * * * * * * * * * * * * * * * * * * * * * * * * * * * * * * //

dimensions      [0 1 0 0 0 0 0];

internalField   uniform (0 0 0);

boundaryField
{
    freeSurface
    {
        type            calculated;
        value           nonuniform List<vector> 
181
(
(0 -6.68236e-05 0)
(0 -6.6782e-05 0)
(0 -6.67293e-05 0)
(0 -6.66646e-05 0)
(0 -6.65903e-05 0)
(0 -6.65342e-05 0)
(0 -6.64866e-05 0)
(0 -6.64518e-05 0)
(0 -4.03124e-05 0)
(0 -4.05712e-05 0)
(0 -4.12157e-05 0)
(0 -4.19976e-05 0)
(0 -4.29976e-05 0)
(0 -4.41418e-05 0)
(0 -4.53765e-05 0)
(0 -4.66376e-05 0)
(0 -4.78735e-05 0)
(0 -4.90357e-05 0)
(0 -5.00837e-05 0)
(0 -5.0986e-05 0)
(0 -5.17211e-05 0)
(0 -5.22779e-05 0)
(0 -5.26527e-05 0)
(0 -5.28457e-05 0)
(0 -5.28664e-05 0)
(0 -5.27277e-05 0)
(0 -5.24427e-05 0)
(0 -5.20249e-05 0)
(0 -5.14938e-05 0)
(0 -5.08656e-05 0)
(0 -5.01521e-05 0)
(0 -4.93682e-05 0)
(0 -4.85289e-05 0)
(0 -4.76457e-05 0)
(0 -4.67259e-05 0)
(0 -4.57784e-05 0)
(0 -4.48119e-05 0)
(0 -4.38339e-05 0)
(0 -4.28513e-05 0)
(0 -4.18704e-05 0)
(0 -4.08959e-05 0)
(0 -3.99316e-05 0)
(0 -3.89801e-05 0)
(0 -3.80434e-05 0)
(0 -3.71235e-05 0)
(0 -3.62229e-05 0)
(0 -3.53442e-05 0)
(0 -3.44891e-05 0)
(0 -3.36586e-05 0)
(0 -3.28523e-05 0)
(0 -3.20691e-05 0)
(0 -3.13076e-05 0)
(0 -3.0567e-05 0)
(0 -2.98466e-05 0)
(0 -2.91453e-05 0)
(0 -2.84612e-05 0)
(0 -2.77921e-05 0)
(0 -2.71367e-05 0)
(0 -2.64945e-05 0)
(0 -2.58666e-05 0)
(0 -2.52547e-05 0)
(0 -2.46594e-05 0)
(0 -2.40813e-05 0)
(0 -2.35216e-05 0)
(0 -2.29817e-05 0)
(0 -2.24637e-05 0)
(0 -2.19679e-05 0)
(0 -2.14927e-05 0)
(0 -2.10341e-05 0)
(0 -2.05874e-05 0)
(0 -2.01493e-05 0)
(0 -1.97183e-05 0)
(0 -1.92959e-05 0)
(0 -1.88836e-05 0)
(0 -1.84835e-05 0)
(0 -1.80971e-05 0)
(0 -1.77263e-05 0)
(0 -1.73718e-05 0)
(0 -1.70333e-05 0)
(0 -1.67092e-05 0)
(0 -1.63979e-05 0)
(0 -1.60982e-05 0)
(0 -1.58098e-05 0)
(0 -1.55335e-05 0)
(0 -1.52698e-05 0)
(0 -1.50198e-05 0)
(0 -1.47827e-05 0)
(0 -1.45555e-05 0)
(0 -1.4335e-05 0)
(0 -1.41188e-05 0)
(0 -1.39065e-05 0)
(0 -1.36989e-05 0)
(0 -1.34974e-05 0)
(0 -1.33027e-05 0)
(0 -1.31166e-05 0)
(0 -1.29386e-05 0)
(0 -1.27683e-05 0)
(0 -1.26067e-05 0)
(0 -1.2455e-05 0)
(0 -1.23133e-05 0)
(0 -1.21802e-05 0)
(0 -1.20519e-05 0)
(0 -1.19253e-05 0)
(0 -1.17991e-05 0)
(0 -1.16748e-05 0)
(0 -1.1558e-05 0)
(0 -1.14505e-05 0)
(0 -1.13562e-05 0)
(0 -1.12721e-05 0)
(0 -1.11928e-05 0)
(0 -1.11132e-05 0)
(0 -1.10314e-05 0)
(0 -1.09484e-05 0)
(0 -1.08677e-05 0)
(0 -1.07944e-05 0)
(0 -1.07271e-05 0)
(0 -1.06669e-05 0)
(0 -1.061e-05 0)
(0 -1.05567e-05 0)
(0 -1.05082e-05 0)
(0 -1.04644e-05 0)
(0 -1.04237e-05 0)
(0 -1.03837e-05 0)
(0 -1.03423e-05 0)
(0 -1.02998e-05 0)
(0 -1.02615e-05 0)
(0 -1.02276e-05 0)
(0 -1.02008e-05 0)
(0 -1.01763e-05 0)
(0 -1.01497e-05 0)
(0 -1.0118e-05 0)
(0 -1.00811e-05 0)
(0 -1.00424e-05 0)
(0 -1.00067e-05 0)
(0 -9.9781e-06 0)
(0 -9.95574e-06 0)
(0 -9.93506e-06 0)
(0 -9.91109e-06 0)
(0 -9.88368e-06 0)
(0 -9.85443e-06 0)
(0 -9.82732e-06 0)
(0 -9.80533e-06 0)
(0 -9.78826e-06 0)
(0 -9.77381e-06 0)
(0 -9.75869e-06 0)
(0 -9.74275e-06 0)
(0 -9.72702e-06 0)
(0 -9.71341e-06 0)
(0 -9.70484e-06 0)
(0 -9.69961e-06 0)
(0 -9.69504e-06 0)
(0 -9.68987e-06 0)
(0 -9.68201e-06 0)
(0 -9.66976e-06 0)
(0 -9.65589e-06 0)
(0 -9.6423e-06 0)
(0 -9.62762e-06 0)
(0 -9.61484e-06 0)
(0 -9.59649e-06 0)
(0 -9.57519e-06 0)
(0 -9.55288e-06 0)
(0 -9.53459e-06 0)
(0 -9.52417e-06 0)
(0 -9.51946e-06 0)
(0 -9.51563e-06 0)
(0 -9.51149e-06 0)
(0 -9.50364e-06 0)
(0 -9.48708e-06 0)
(0 -9.46643e-06 0)
(0 -9.43661e-06 0)
(0 -9.40319e-06 0)
(0 -9.37301e-06 0)
(0 -9.35172e-06 0)
(0 -9.33995e-06 0)
(0 -9.34175e-06 0)
(0 -9.36203e-06 0)
(0 -9.39451e-06 0)
(0 -9.45089e-06 0)
(0 -9.5172e-06 0)
(0 -9.56998e-06 0)
(0 -9.59655e-06 0)
)
;
    }
    walls
    {
        type            calculated;
        value           uniform (0 0 0);
    }
    floatingObject
    {
        type            calculated;
        value           uniform (0 0 0);
    }
    frontAndBack
    {
        type            empty;
    }
}


// ************************************************************************* //
