# Probe 0 (0 0 0)
# Time            0                
0                 0                
0.005             156.1558947      
0.01              275.1041408      
0.015             366.5145894      
0.02              436.7806208      
0.025             490.8122179      
0.03              532.3788052      
0.035             564.373424       
0.04              589.0161296      
0.045             608.0104233      
0.05              622.6634596      
0.055             633.9783559      
0.06              642.7250398      
0.065             649.4946         
0.07              654.7409713      
0.075             658.8128949      
0.08              661.9784212      
0.085             664.443692       
0.09              666.3673393      
0.095             667.8715215      
0.1               669.0503862      
0.105             669.9765584      
0.11              670.7061174      
0.115             671.2824141      
0.12              671.7390018      
0.125             672.1018849      
0.13              672.3912478      
0.135             672.6227823      
0.14              672.8087093      
0.145             672.9585638      
0.15              673.0798013      
0.155             673.1782636      
0.16              673.2585391      
0.165             673.3242404      
0.17              673.3782197      
0.175             673.4227351      
0.18              673.4595795      
0.185             673.490181       
0.19              673.5156809      
0.195             673.5369939      
0.2               673.5548563      
0.205             673.5698622      
0.21              673.5824934      
0.215             673.5931413      
0.22              673.602126       
0.225             673.6097095      
0.23              673.6161075      
0.235             673.6214983      
0.24              673.6260296      
0.245             673.6298242      
0.25              673.6329853      
0.255             673.635599       
0.26              673.6377379      
0.265             673.6394636      
0.27              673.6408284      
0.275             673.6418768      
0.28              673.6426469      
0.285             673.6431714      
0.29              673.6434786      
0.295             673.6435931      
0.3               673.6435361      
0.305             673.6433262      
0.31              673.6429797      
0.315             673.6425109      
0.32              673.6419326      
0.325             673.6412559      
0.33              673.6404908      
0.335             673.6396463      
0.34              673.6387303      
0.345             673.6377499      
0.35              673.636712       
0.355             673.635622       
0.36              673.6344855      
0.365             673.6333073      
0.37              673.6320918      
0.375             673.6308431      
0.38              673.6295648      
0.385             673.6282604      
0.39              673.6269332      
0.395             673.6255859      
0.4               673.6242213      
0.405             673.6228419      
0.41              673.62145        
0.415             673.6200477      
0.42              673.618637       
0.425             673.6172197      
0.43              673.6157975      
0.435             673.6143722      
0.44              673.6129452      
0.445             673.6115178      
0.45              673.6100913      
0.455             673.6086669      
0.46              673.6072458      
0.465             673.605829       
0.47              673.6044175      
0.475             673.6030121      
0.48              673.6016137      
0.485             673.6002231      
0.49              673.5988409      
0.495             673.5974679      
0.5               673.5961046      
0.505             673.5947517      
0.51              673.5934097      
0.515             673.592079       
0.52              673.5907601      
0.525             673.5894533      
0.53              673.5881591      
0.535             673.5868777      
0.54              673.5856095      
0.545             673.5843548      
0.55              673.5831137      
0.555             673.5818865      
0.56              673.5806734      
0.565             673.5794746      
0.57              673.5782902      
0.575             673.5771203      
0.58              673.5759651      
0.585             673.5748245      
0.59              673.5736987      
0.595             673.5725877      
0.6               673.5714917      
0.605             673.5704104      
0.61              673.5693442      
0.615             673.5682928      
0.62              673.5672562      
0.625             673.5662345      
0.63              673.5652276      
0.635             673.5642354      
0.64              673.563258       
0.645             673.5622951      
0.65              673.5613468      
0.655             673.5604129      
0.66              673.5594934      
0.665             673.5585882      
0.67              673.5576971      
0.675             673.5568201      
0.68              673.555957       
0.685             673.5551077      
0.69              673.5542721      
0.695             673.5534501      
0.7               673.5526415      
0.705             673.5518462      
0.71              673.551064       
0.715             673.5502948      
0.72              673.5495386      
0.725             673.5487951      
0.73              673.5480642      
0.735             673.5473457      
0.74              673.5466394      
0.745             673.5459454      
0.75              673.5452633      
0.755             673.544593       
0.76              673.5439343      
0.765             673.5432872      
0.77              673.5426514      
0.775             673.5420269      
0.78              673.5414134      
0.785             673.5408108      
0.79              673.540219       
0.795             673.5396377      
0.8               673.5390669      
0.805             673.5385064      
0.81              673.537956       
0.815             673.5374157      
0.82              673.5368851      
0.825             673.5363641      
0.83              673.5358528      
0.835             673.5353508      
0.84              673.534858       
0.845             673.5343743      
0.85              673.5338995      
0.855             673.5334336      
0.86              673.5329763      
0.865             673.5325275      
0.87              673.5320872      
0.875             673.5316551      
0.88              673.531231       
0.885             673.530815       
0.89              673.5304067      
0.895             673.5300062      
0.9               673.5296132      
0.905             673.5292276      
0.91              673.5288493      
0.915             673.5284782      
0.92              673.5281142      
0.925             673.5277572      
0.93              673.527407       
0.935             673.5270636      
0.94              673.5267266      
0.945             673.5263962      
0.95              673.526072       
0.955             673.5257542      
0.96              673.5254425      
0.965             673.5251367      
0.97              673.524837       
0.975             673.524543       
0.98              673.5242548      
0.985             673.5239721      
0.99              673.5236949      
0.995             673.5234231      
1                 673.5231566      
