# Probe 0 (0 0 0)
# Time            0                
0                 0                
0.005             -1.006162756e-05 
0.01              -1.772431181e-05 
0.015             -2.361188423e-05 
0.02              -2.813682494e-05 
0.025             -3.161579964e-05 
0.03              -3.429183393e-05 
0.035             -3.635139631e-05 
0.04              -3.793754211e-05 
0.045             -3.916001665e-05 
0.05              -4.010301481e-05 
0.055             -4.083113716e-05 
0.06              -4.139395942e-05 
0.065             -4.18295369e-05  
0.07              -4.216709131e-05 
0.075             -4.242907033e-05 
0.08              -4.263272622e-05 
0.085             -4.279132568e-05 
0.09              -4.291507706e-05 
0.095             -4.301184111e-05 
0.1               -4.308767578e-05 
0.105             -4.314725392e-05 
0.11              -4.319418364e-05 
0.115             -4.323125403e-05 
0.12              -4.326062372e-05 
0.125             -4.328396567e-05 
0.13              -4.330257836e-05 
0.135             -4.331747125e-05 
0.14              -4.332943049e-05 
0.145             -4.333906944e-05 
0.15              -4.334686769e-05 
0.155             -4.3353201e-05   
0.16              -4.335836452e-05 
0.165             -4.336259063e-05 
0.17              -4.336606279e-05 
0.175             -4.336892623e-05 
0.18              -4.337129629e-05 
0.185             -4.337326482e-05 
0.19              -4.337490523e-05 
0.195             -4.337627635e-05 
0.2               -4.337742553e-05 
0.205             -4.337839099e-05 
0.21              -4.337920372e-05 
0.215             -4.33798889e-05  
0.22              -4.33804671e-05  
0.225             -4.338095518e-05 
0.23              -4.338136702e-05 
0.235             -4.338171408e-05 
0.24              -4.338200586e-05 
0.245             -4.338225026e-05 
0.25              -4.338245391e-05 
0.255             -4.338262235e-05 
0.26              -4.338276026e-05 
0.265             -4.338287159e-05 
0.27              -4.338295972e-05 
0.275             -4.338302749e-05 
0.28              -4.338307736e-05 
0.285             -4.338311143e-05 
0.29              -4.338313153e-05 
0.295             -4.338313923e-05 
0.3               -4.33831359e-05  
0.305             -4.338312273e-05 
0.31              -4.338310078e-05 
0.315             -4.338307096e-05 
0.32              -4.33830341e-05  
0.325             -4.33829909e-05  
0.33              -4.338294202e-05 
0.335             -4.338288803e-05 
0.34              -4.338282943e-05 
0.345             -4.33827667e-05  
0.35              -4.338270026e-05 
0.355             -4.338263047e-05 
0.36              -4.338255769e-05 
0.365             -4.338248222e-05 
0.37              -4.338240435e-05 
0.375             -4.338232434e-05 
0.38              -4.338224243e-05 
0.385             -4.338215884e-05 
0.39              -4.338207377e-05 
0.395             -4.338198741e-05 
0.4               -4.338189993e-05 
0.405             -4.33818115e-05  
0.41              -4.338172226e-05 
0.415             -4.338163235e-05 
0.42              -4.338154189e-05 
0.425             -4.338145101e-05 
0.43              -4.338135981e-05 
0.435             -4.338126841e-05 
0.44              -4.338117689e-05 
0.445             -4.338108534e-05 
0.45              -4.338099385e-05 
0.455             -4.338090249e-05 
0.46              -4.338081134e-05 
0.465             -4.338072047e-05 
0.47              -4.338062992e-05 
0.475             -4.338053977e-05 
0.48              -4.338045007e-05 
0.485             -4.338036086e-05 
0.49              -4.338027219e-05 
0.495             -4.338018411e-05 
0.5               -4.338009665e-05 
0.505             -4.338000986e-05 
0.51              -4.337992376e-05 
0.515             -4.337983839e-05 
0.52              -4.337975377e-05 
0.525             -4.337966993e-05 
0.53              -4.337958689e-05 
0.535             -4.337950468e-05 
0.54              -4.337942331e-05 
0.545             -4.33793428e-05  
0.55              -4.337926317e-05 
0.555             -4.337918443e-05 
0.56              -4.337910659e-05 
0.565             -4.337902967e-05 
0.57              -4.337895367e-05 
0.575             -4.337887861e-05 
0.58              -4.337880448e-05 
0.585             -4.337873129e-05 
0.59              -4.337865905e-05 
0.595             -4.337858776e-05 
0.6               -4.337851742e-05 
0.605             -4.337844804e-05 
0.61              -4.337837962e-05 
0.615             -4.337831215e-05 
0.62              -4.337824563e-05 
0.625             -4.337818007e-05 
0.63              -4.337811545e-05 
0.635             -4.337805178e-05 
0.64              -4.337798905e-05 
0.645             -4.337792726e-05 
0.65              -4.337786641e-05 
0.655             -4.337780647e-05 
0.66              -4.337774746e-05 
0.665             -4.337768937e-05 
0.67              -4.337763219e-05 
0.675             -4.33775759e-05  
0.68              -4.337752051e-05 
0.685             -4.337746601e-05 
0.69              -4.337741239e-05 
0.695             -4.337735963e-05 
0.7               -4.337730773e-05 
0.705             -4.337725669e-05 
0.71              -4.337720649e-05 
0.715             -4.337715713e-05 
0.72              -4.33771086e-05  
0.725             -4.337706088e-05 
0.73              -4.337701397e-05 
0.735             -4.337696786e-05 
0.74              -4.337692253e-05 
0.745             -4.337687799e-05 
0.75              -4.337683421e-05 
0.755             -4.337679119e-05 
0.76              -4.337674892e-05 
0.765             -4.337670738e-05 
0.77              -4.337666658e-05 
0.775             -4.33766265e-05  
0.78              -4.337658712e-05 
0.785             -4.337654845e-05 
0.79              -4.337651047e-05 
0.795             -4.337647316e-05 
0.8               -4.337643652e-05 
0.805             -4.337640055e-05 
0.81              -4.337636522e-05 
0.815             -4.337633054e-05 
0.82              -4.337629649e-05 
0.825             -4.337626305e-05 
0.83              -4.337623023e-05 
0.835             -4.337619801e-05 
0.84              -4.337616638e-05 
0.845             -4.337613534e-05 
0.85              -4.337610487e-05 
0.855             -4.337607496e-05 
0.86              -4.337604561e-05 
0.865             -4.33760168e-05  
0.87              -4.337598854e-05 
0.875             -4.337596081e-05 
0.88              -4.337593359e-05 
0.885             -4.337590689e-05 
0.89              -4.337588068e-05 
0.895             -4.337585498e-05 
0.9               -4.337582975e-05 
0.905             -4.3375805e-05   
0.91              -4.337578072e-05 
0.915             -4.337575691e-05 
0.92              -4.337573354e-05 
0.925             -4.337571063e-05 
0.93              -4.337568815e-05 
0.935             -4.337566611e-05 
0.94              -4.337564448e-05 
0.945             -4.337562327e-05 
0.95              -4.337560246e-05 
0.955             -4.337558206e-05 
0.96              -4.337556206e-05 
0.965             -4.337554243e-05 
0.97              -4.337552319e-05 
0.975             -4.337550433e-05 
0.98              -4.337548582e-05 
0.985             -4.337546768e-05 
0.99              -4.337544989e-05 
0.995             -4.337543244e-05 
1                 -4.337541534e-05 
