# Probe 0 (0 0 0)
# Time            0                
0                 100000           
0.005             103842.8605      
0.01              107183.4794      
0.015             110086.1655      
0.02              112606.9253      
0.025             114794.5666      
0.03              116691.644       
0.035             118335.2739      
0.04              119757.8386      
0.045             120987.5961      
0.05              122049.2102      
0.055             122964.2096      
0.06              123751.389       
0.065             124427.1571      
0.07              125005.8404      
0.075             125499.9475      
0.08              125920.4004      
0.085             126276.7351      
0.09              126577.2777      
0.095             126829.2978      
0.1               127039.1417      
0.105             127212.3498      
0.11              127353.7583      
0.115             127467.5884      
0.12              127557.5241      
0.125             127626.7801      
0.13              127678.1612      
0.135             127714.114       
0.14              127736.7723      
0.145             127747.9969      
0.15              127749.4098      
0.155             127742.4244      
0.16              127728.2723      
0.165             127708.026       
0.17              127682.619       
0.175             127652.8636      
0.18              127619.4664      
0.185             127583.0411      
0.19              127544.1212      
0.195             127503.1693      
0.2               127460.5867      
0.205             127416.7209      
0.21              127371.8727      
0.215             127326.3019      
0.22              127280.2326      
0.225             127233.8581      
0.23              127187.3442      
0.235             127140.8333      
0.24              127094.4473      
0.245             127048.2898      
0.25              127002.4491      
0.255             126956.9998      
0.26              126912.0048      
0.265             126867.5164      
0.27              126823.5783      
0.275             126780.2263      
0.28              126737.4895      
0.285             126695.391       
0.29              126653.9491      
0.295             126613.1776      
0.3               126573.0866      
0.305             126533.6829      
0.31              126494.9704      
0.315             126456.9507      
0.32              126419.6234      
0.325             126382.9863      
0.33              126347.0355      
0.335             126311.7662      
0.34              126277.1721      
0.345             126243.2464      
0.35              126209.9813      
0.355             126177.3683      
0.36              126145.3988      
0.365             126114.0633      
0.37              126083.3522      
0.375             126053.2557      
0.38              126023.7637      
0.385             125994.8659      
0.39              125966.5522      
0.395             125938.8122      
0.4               125911.6354      
0.405             125885.0116      
0.41              125858.9305      
0.415             125833.3817      
0.42              125808.3552      
0.425             125783.841       
0.43              125759.8289      
0.435             125736.3092      
0.44              125713.2723      
0.445             125690.7084      
0.45              125668.6082      
0.455             125646.9624      
0.46              125625.7619      
0.465             125604.9976      
0.47              125584.6608      
0.475             125564.7427      
0.48              125545.2349      
0.485             125526.129       
0.49              125507.4167      
0.495             125489.0901      
0.5               125471.1411      
0.505             125453.5622      
0.51              125436.3456      
0.515             125419.4839      
0.52              125402.9698      
0.525             125386.7962      
0.53              125370.9561      
0.535             125355.4425      
0.54              125340.2487      
0.545             125325.3682      
0.55              125310.7944      
0.555             125296.5211      
0.56              125282.542       
0.565             125268.8511      
0.57              125255.4423      
0.575             125242.31        
0.58              125229.4483      
0.585             125216.8517      
0.59              125204.5147      
0.595             125192.4319      
0.6               125180.5981      
0.605             125169.0081      
0.61              125157.6569      
0.615             125146.5396      
0.62              125135.6513      
0.625             125124.9873      
0.63              125114.543       
0.635             125104.3138      
0.64              125094.2953      
0.645             125084.4831      
0.65              125074.873       
0.655             125065.4608      
0.66              125056.2423      
0.665             125047.2138      
0.67              125038.371       
0.675             125029.7104      
0.68              125021.228       
0.685             125012.9203      
0.69              125004.7836      
0.695             124996.8143      
0.7               124989.0091      
0.705             124981.3645      
0.71              124973.8773      
0.715             124966.5441      
0.72              124959.3619      
0.725             124952.3274      
0.73              124945.4377      
0.735             124938.6897      
0.74              124932.0806      
0.745             124925.6074      
0.75              124919.2675      
0.755             124913.0579      
0.76              124906.9761      
0.765             124901.0194      
0.77              124895.1852      
0.775             124889.471       
0.78              124883.8744      
0.785             124878.3928      
0.79              124873.024       
0.795             124867.7656      
0.8               124862.6154      
0.805             124857.571       
0.81              124852.6304      
0.815             124847.7914      
0.82              124843.0519      
0.825             124838.4098      
0.83              124833.8632      
0.835             124829.41        
0.84              124825.0484      
0.845             124820.7765      
0.85              124816.5924      
0.855             124812.4943      
0.86              124808.4805      
0.865             124804.5492      
0.87              124800.6986      
0.875             124796.9273      
0.88              124793.2334      
0.885             124789.6155      
0.89              124786.072       
0.895             124782.6012      
0.9               124779.2018      
0.905             124775.8723      
0.91              124772.6112      
0.915             124769.4172      
0.92              124766.2887      
0.925             124763.2246      
0.93              124760.2234      
0.935             124757.2839      
0.94              124754.4048      
0.945             124751.5849      
0.95              124748.8229      
0.955             124746.1177      
0.96              124743.4681      
0.965             124740.8729      
0.97              124738.331       
0.975             124735.8413      
0.98              124733.4028      
0.985             124731.0145      
0.99              124728.6751      
0.995             124726.3839      
1                 124724.1397      
