/*--------------------------------*- C++ -*----------------------------------*\
  =========                 |
  \\      /  F ield         | OpenFOAM: The Open Source CFD Toolbox
   \\    /   O peration     | Website:  https://openfoam.org
    \\  /    A nd           | Version:  12
     \\/     M anipulation  |
\*---------------------------------------------------------------------------*/
FoamFile
{
    format      ascii;
    class       volScalarField;
    location    "300";
    object      epsilon;
}
// * * * * * * * * * * * * * * * * * * * * * * * * * * * * * * * * * * * * * //

dimensions      [0 2 -3 0 0 0 0];

internalField   nonuniform List<scalar> 
5000
(
0.124511
0.106963
0.0933303
0.0824611
0.073636
0.0664835
0.0602567
0.055682
0.050874
0.0475781
0.0434414
0.0418777
0.0384699
0.0371374
0.0343299
0.0331508
0.0311782
0.0289626
0.0278873
0.0261031
0.0252594
0.02378
0.0231055
0.0218627
0.0212996
0.124482
0.107003
0.0932914
0.0824869
0.0736221
0.0664379
0.0603931
0.0552561
0.0510549
0.0476504
0.0440744
0.0402755
0.0386501
0.0356811
0.0344423
0.0319762
0.0308126
0.0295479
0.0275526
0.0265772
0.024949
0.024188
0.0228313
0.0222219
0.0210732
0.12451
0.106958
0.0933371
0.082439
0.0736542
0.0664342
0.0604391
0.0558712
0.0505393
0.04719
0.0431132
0.0415425
0.0382001
0.0368366
0.0340831
0.0330242
0.0310655
0.0288675
0.0278402
0.02607
0.0252578
0.0237852
0.0231355
0.0218995
0.021331
0.124515
0.10695
0.0933479
0.0824149
0.0736853
0.0663749
0.060458
0.0552708
0.0515869
0.0481141
0.0437089
0.0422688
0.038744
0.0373061
0.0346654
0.0320553
0.0308263
0.0287087
0.0277436
0.0259984
0.0252272
0.0237685
0.0231559
0.022462
0.0213343
0.124488
0.106993
0.0933006
0.0824804
0.0736094
0.0664671
0.0603386
0.0552895
0.0511295
0.0471043
0.0428918
0.0411849
0.0378953
0.0365357
0.0338625
0.0328222
0.0310814
0.0288916
0.0278541
0.0260854
0.0252696
0.0237975
0.0231418
0.0219053
0.0213368
0.124511
0.106958
0.093334
0.0824356
0.0736711
0.0663944
0.0605219
0.055052
0.0505197
0.0461188
0.0439079
0.0402698
0.0388334
0.0358203
0.0346277
0.032149
0.030995
0.0295975
0.0275738
0.0265803
0.0249385
0.0241694
0.0228044
0.0221898
0.0210376
0.12451
0.106959
0.0933338
0.0824361
0.0736695
0.0663971
0.0605184
0.0550512
0.0505148
0.0461037
0.0439138
0.0402732
0.0388662
0.0358568
0.0346739
0.0321887
0.0310809
0.0296185
0.0275863
0.026595
0.024949
0.024181
0.0228134
0.0222034
0.0210517
0.12449
0.106989
0.0933038
0.0824651
0.0736353
0.0664417
0.0603407
0.0554684
0.0511681
0.0465763
0.0443643
0.040655
0.0391755
0.0361326
0.0350453
0.0328389
0.0304412
0.0293582
0.0274321
0.0265521
0.0249457
0.0242282
0.0228755
0.0222911
0.0215421
0.124511
0.10696
0.0933292
0.0824391
0.0736774
0.0663663
0.0604913
0.0551928
0.0508021
0.0469853
0.0428165
0.0410945
0.0378042
0.0364503
0.0337505
0.0326677
0.0303548
0.0293364
0.0282193
0.0263748
0.0254716
0.0239474
0.0232219
0.021948
0.0212332
0.124509
0.106959
0.0933367
0.0824257
0.0736896
0.0663533
0.0604422
0.0552805
0.0509485
0.0475732
0.0446947
0.0412681
0.0378144
0.0362751
0.0335543
0.0324188
0.0301684
0.0292371
0.0273493
0.0265349
0.0256397
0.0240882
0.0233376
0.0220296
0.0213056
0.124513
0.106954
0.0933447
0.0824161
0.0736897
0.0663832
0.0603956
0.0552972
0.0510714
0.0476298
0.045179
0.0418204
0.039754
0.0366904
0.0338046
0.0324785
0.0301766
0.0291597
0.0272699
0.0264615
0.0248831
0.0242129
0.0234782
0.0221613
0.0214169
0.124489
0.106992
0.093304
0.0824656
0.0736443
0.0664381
0.0604532
0.0558738
0.0515462
0.0463716
0.0445734
0.0409258
0.0394817
0.0363804
0.035209
0.0328682
0.0304469
0.0293438
0.0274129
0.0265452
0.0249431
0.0242444
0.0229004
0.0223184
0.0215742
0.124509
0.106958
0.0933405
0.0824229
0.0736769
0.0663854
0.060446
0.0552914
0.0515677
0.0481319
0.0438893
0.0423774
0.0388341
0.037329
0.0346842
0.0320512
0.0308272
0.028729
0.027764
0.0260316
0.0252576
0.0238066
0.0231851
0.0224967
0.0213742
0.124478
0.107009
0.093285
0.0825033
0.0735863
0.0664957
0.0603457
0.0553221
0.0511739
0.0478224
0.0441434
0.0403252
0.0387209
0.0357086
0.0344522
0.031956
0.0308208
0.0295807
0.0275843
0.0266129
0.0249804
0.0242186
0.0228653
0.0222701
0.0215239
0.124485
0.106999
0.0933048
0.0824635
0.0736545
0.0664244
0.0604762
0.0558702
0.051577
0.0463993
0.0445713
0.0408947
0.039521
0.0363594
0.0350551
0.0324284
0.031236
0.0290631
0.0280607
0.0262728
0.0254385
0.0239454
0.023265
0.0220087
0.0214295
0.124488
0.106997
0.0932943
0.0824916
0.0735997
0.0664754
0.0603708
0.0552563
0.0511066
0.0477441
0.0445959
0.0406607
0.0389494
0.0358449
0.0345254
0.0320201
0.0309297
0.028837
0.0279082
0.0269061
0.0252082
0.0243897
0.0229823
0.0223154
0.0211433
0.124513
0.106957
0.0933351
0.082439
0.0736619
0.0664061
0.0605123
0.0550519
0.0505251
0.046122
0.0439357
0.0402901
0.0388427
0.0358272
0.0346705
0.0321643
0.030971
0.0296456
0.0276216
0.026626
0.0249749
0.0241925
0.0228192
0.0221922
0.0210349
0.124516
0.106952
0.0933396
0.0824343
0.0736642
0.0664054
0.0605097
0.0550447
0.0505294
0.0460988
0.0439306
0.0403152
0.0388577
0.0358669
0.0346844
0.0321702
0.0309776
0.0296388
0.0276152
0.0266129
0.0249675
0.0241848
0.022819
0.0221955
0.0210394
0.124515
0.106952
0.0933475
0.0824127
0.0736883
0.0663704
0.0604691
0.0552696
0.0516097
0.0480766
0.0437189
0.0421756
0.0386576
0.0372816
0.0346818
0.0320544
0.0308216
0.0287191
0.0277614
0.0260214
0.0252509
0.0237921
0.0231734
0.0224818
0.0213151
0.124512
0.106955
0.0933389
0.0824352
0.073657
0.0664305
0.0604677
0.0558842
0.0505153
0.0471668
0.0430863
0.0415254
0.0381662
0.0368118
0.0340625
0.0329625
0.0310595
0.0288526
0.0278096
0.0260345
0.0252194
0.0237454
0.023094
0.0218571
0.0212969
0.119807
0.0961383
0.0788331
0.0659367
0.0558625
0.0481617
0.041973
0.0369482
0.0330697
0.029009
0.0262962
0.0237632
0.0212522
0.0195578
0.0180558
0.0166863
0.015469
0.0143795
0.0134028
0.0125188
0.0117208
0.010995
0.0103369
0.00973688
0.00919184
0.119804
0.0961361
0.0788407
0.0659099
0.055901
0.0481044
0.0419413
0.0369722
0.0330288
0.0289705
0.0264608
0.0238934
0.0210457
0.0194102
0.0179494
0.0165985
0.0154052
0.014339
0.0133734
0.0125035
0.0117108
0.0109941
0.0103383
0.0097443
0.00919962
0.1198
0.0961478
0.0788413
0.0659104
0.0559109
0.0480909
0.0419777
0.0369673
0.032861
0.0296182
0.0261467
0.0237963
0.0214118
0.0195249
0.0180049
0.0166837
0.0154853
0.0143854
0.0134008
0.0125124
0.0117134
0.010989
0.0103339
0.00973717
0.00919622
0.119803
0.0961397
0.0788418
0.0659151
0.0558972
0.04814
0.0419854
0.03699
0.0328116
0.0297368
0.0259809
0.0235115
0.0214829
0.0195758
0.0180389
0.0166935
0.0154796
0.0143705
0.0133813
0.0124913
0.0116932
0.0109712
0.0103198
0.00973039
0.00919021
0.119792
0.0961581
0.0788266
0.0659284
0.0558873
0.0481208
0.041985
0.0369549
0.0329049
0.0295975
0.0261127
0.0237281
0.0214673
0.0194557
0.0179306
0.0166115
0.0154175
0.0143262
0.0133505
0.0124707
0.0116794
0.0109619
0.0103124
0.00972047
0.00918244
0.11979
0.0961615
0.0788217
0.0659355
0.0558989
0.0481029
0.0420052
0.0369647
0.0328654
0.0296919
0.0258039
0.0235442
0.0214925
0.0195248
0.0179986
0.0166582
0.0154507
0.0143598
0.0133757
0.0124942
0.0116956
0.0109771
0.0103216
0.00972906
0.00918609
0.119791
0.0961604
0.078826
0.0659299
0.0559046
0.0480966
0.041999
0.036966
0.0328544
0.0296835
0.0258764
0.0232729
0.0214701
0.0195459
0.0180094
0.0166636
0.0154663
0.0143805
0.0133984
0.012517
0.0117174
0.0109974
0.0103405
0.0097466
0.00920245
0.119798
0.0961477
0.0788372
0.0659127
0.0559067
0.0480984
0.0419814
0.0369729
0.0328564
0.0296981
0.0256651
0.0235164
0.0215282
0.01956
0.0180552
0.0167297
0.0155016
0.0143944
0.0133997
0.0125121
0.0117104
0.010991
0.0103363
0.00974553
0.00920797
0.119799
0.0961501
0.0788199
0.0659455
0.0558545
0.0481609
0.0420008
0.0369601
0.032903
0.0296157
0.0260373
0.0238011
0.021538
0.0194312
0.0179283
0.0166083
0.0153989
0.0143245
0.013362
0.0124911
0.0117048
0.0109887
0.0103381
0.00974275
0.00920035
0.119799
0.0961474
0.0788268
0.0659413
0.0558622
0.0481674
0.0420147
0.036914
0.0329733
0.0296873
0.0256619
0.0237891
0.0215804
0.0193476
0.0178593
0.0165423
0.0153294
0.0142581
0.0132973
0.0124392
0.011665
0.0109593
0.0103171
0.0097283
0.00919075
0.119804
0.0961385
0.0788437
0.0659104
0.0559036
0.0481331
0.0420013
0.0369298
0.0329403
0.0296212
0.0256746
0.023807
0.0215321
0.0195575
0.0180378
0.0166959
0.0154517
0.0143473
0.0133585
0.012478
0.011683
0.0109701
0.0103241
0.00973408
0.00919567
0.1198
0.0961468
0.0788431
0.065907
0.0559175
0.0480847
0.0419924
0.0369132
0.032982
0.029574
0.0259325
0.0238429
0.0212324
0.0195245
0.0180423
0.0167184
0.015483
0.0143804
0.0133898
0.0125054
0.0117057
0.0109877
0.0103336
0.00974313
0.00920456
0.119796
0.0961528
0.0788335
0.0659178
0.0558992
0.0481149
0.0419671
0.0369968
0.0328594
0.0296335
0.0257766
0.0238691
0.0214695
0.019599
0.0180922
0.0167482
0.0155081
0.0143922
0.0134002
0.0125098
0.0117122
0.010991
0.01034
0.00975066
0.00921008
0.11979
0.0961593
0.0788215
0.0659338
0.0558779
0.0481306
0.0419709
0.0369678
0.0329337
0.0295202
0.0257597
0.023725
0.0215233
0.0195501
0.0180079
0.0166487
0.0154254
0.0143345
0.013353
0.0124752
0.0116807
0.0109661
0.0103146
0.00972606
0.00918906
0.119788
0.0961626
0.0788168
0.0659404
0.055883
0.0481238
0.0419954
0.0369494
0.0329421
0.0296195
0.0256908
0.0238768
0.0213921
0.0195472
0.0180521
0.0167203
0.0155015
0.0144004
0.0134158
0.0125282
0.0117305
0.0110075
0.0103535
0.00975779
0.00921663
0.119798
0.0961506
0.0788225
0.0659453
0.0558576
0.0481632
0.0420004
0.0369311
0.0329732
0.0295701
0.0258076
0.0237801
0.0214828
0.0195087
0.0179991
0.0166475
0.015422
0.0143288
0.0133567
0.012487
0.0116978
0.0109859
0.0103347
0.00974368
0.00920161
0.119804
0.0961437
0.0788267
0.0659437
0.0558546
0.0481662
0.0420055
0.0369243
0.0330119
0.0294625
0.0260176
0.0237972
0.0211378
0.0194212
0.0179625
0.0166249
0.0154197
0.0143445
0.0133736
0.0125011
0.0117072
0.0109898
0.0103332
0.00973783
0.00919249
0.119803
0.0961442
0.0788282
0.065941
0.0558593
0.0481642
0.0419808
0.0369498
0.0330306
0.0292924
0.0261054
0.023868
0.0209827
0.0193407
0.0179117
0.0165865
0.0153947
0.0143283
0.0133621
0.0124913
0.0116976
0.0109798
0.0103229
0.00972738
0.00918223
0.11979
0.0961629
0.0788225
0.0659328
0.0558956
0.0481086
0.0419691
0.0369441
0.0330636
0.0290755
0.0262249
0.0237495
0.021306
0.0196096
0.0181211
0.0167503
0.0155008
0.0143865
0.0133954
0.012505
0.0117064
0.0109835
0.0103307
0.00973911
0.00919728
0.119788
0.0961629
0.0788144
0.0659443
0.0558854
0.0481215
0.042
0.0369265
0.0329971
0.0294195
0.0259017
0.0238253
0.0212948
0.0195043
0.0179983
0.0166667
0.0154401
0.014342
0.0133631
0.0124814
0.0116886
0.0109691
0.0103176
0.00972306
0.00918362
0.119791
0.0960515
0.0786189
0.0656138
0.0554638
0.0476302
0.041447
0.0364622
0.0322682
0.0287913
0.0257964
0.0232922
0.0210569
0.01921
0.0175007
0.0161134
0.0147606
0.013711
0.0126038
0.0118119
0.0108726
0.0102909
0.00945392
0.00908881
0.00812086
0.11979
0.0960514
0.0786195
0.0656117
0.0554664
0.0476263
0.041448
0.0364633
0.0322678
0.0287929
0.0257975
0.0232935
0.0210567
0.0192097
0.0174998
0.0161132
0.0147603
0.0137113
0.0126036
0.0118126
0.0108726
0.0102918
0.00945436
0.00908942
0.00812384
0.119789
0.0960537
0.0786189
0.0656121
0.055467
0.0476254
0.0414498
0.0364608
0.0322691
0.0287986
0.0257916
0.0232899
0.021058
0.0192101
0.0175006
0.0161162
0.0147629
0.0137127
0.0126037
0.0118123
0.0108723
0.0102887
0.00946637
0.00902351
0.0082144
0.11979
0.0960525
0.0786193
0.065612
0.0554665
0.0476282
0.0414505
0.0364615
0.0322677
0.0288013
0.0257901
0.0232876
0.021058
0.0192103
0.0175002
0.0161149
0.0147612
0.013711
0.0126025
0.0118114
0.0108715
0.0102908
0.0094534
0.00908875
0.00812285
0.119788
0.0960548
0.0786174
0.0656139
0.0554649
0.0476278
0.0414501
0.036461
0.0322705
0.0287979
0.0257906
0.023293
0.0210592
0.0192099
0.0174983
0.0161143
0.0147597
0.0137111
0.0126012
0.0118117
0.01087
0.0102913
0.00945249
0.00908779
0.00812685
0.119788
0.0960555
0.0786163
0.0656152
0.0554652
0.0476271
0.0414514
0.0364616
0.0322697
0.0288005
0.0257893
0.0232909
0.0210585
0.0192101
0.0174992
0.0161148
0.0147602
0.0137117
0.012602
0.0118124
0.0108707
0.0102919
0.00945307
0.00908831
0.00812744
0.119788
0.0960555
0.0786166
0.0656149
0.0554656
0.0476267
0.0414513
0.0364612
0.0322695
0.0288002
0.02579
0.0232902
0.0210588
0.0192101
0.0174994
0.0161149
0.0147618
0.0137126
0.0126038
0.0118131
0.0108723
0.0102923
0.00945431
0.00908952
0.00812569
0.119789
0.0960534
0.0786186
0.0656122
0.055467
0.0476251
0.0414501
0.0364614
0.0322687
0.0287997
0.0257894
0.0232891
0.0210585
0.0192104
0.0175009
0.0161161
0.014762
0.013712
0.0126032
0.0118125
0.0108729
0.0102899
0.00946781
0.00902498
0.008216
0.119789
0.0960532
0.0786172
0.0656151
0.0554625
0.0476302
0.0414513
0.0364611
0.0322711
0.0287978
0.0257898
0.0232929
0.0210596
0.019209
0.0174989
0.0161126
0.014759
0.0137101
0.0126029
0.0118123
0.010873
0.0102892
0.00946688
0.00902342
0.00821522
0.119789
0.0960528
0.0786182
0.0656143
0.0554637
0.0476302
0.0414513
0.0364599
0.032273
0.0287963
0.0257848
0.0232939
0.021061
0.0192087
0.0174976
0.0161107
0.0147571
0.013709
0.0126026
0.0118126
0.0108737
0.0102898
0.00946762
0.00902401
0.00821593
0.11979
0.0960527
0.0786193
0.0656119
0.0554667
0.0476281
0.0414502
0.0364609
0.0322704
0.0287975
0.025788
0.0232905
0.0210582
0.0192105
0.0175001
0.0161148
0.0147593
0.0137105
0.0126015
0.0118123
0.0108711
0.0102923
0.00945332
0.00908857
0.00812728
0.119789
0.0960534
0.0786192
0.0656117
0.0554674
0.0476251
0.0414494
0.0364607
0.0322714
0.0287954
0.025789
0.0232908
0.0210581
0.0192101
0.0175015
0.0161159
0.0147616
0.013711
0.0126029
0.0118116
0.0108722
0.0102913
0.00945437
0.00908961
0.0081226
0.119788
0.0960544
0.078618
0.0656129
0.0554665
0.0476259
0.0414495
0.036463
0.032268
0.0287997
0.0257911
0.023289
0.0210584
0.019211
0.0175025
0.0161166
0.0147622
0.0137115
0.0126035
0.0118121
0.0108727
0.0102917
0.00945466
0.00908985
0.00812289
0.119788
0.0960546
0.0786173
0.0656138
0.0554649
0.0476275
0.0414494
0.0364623
0.0322699
0.0287974
0.0257899
0.0232934
0.0210612
0.0192106
0.0174994
0.0161126
0.0147585
0.0137087
0.0126011
0.0118102
0.010871
0.0102902
0.00945344
0.00908877
0.00812194
0.119788
0.0960554
0.0786159
0.0656155
0.0554639
0.0476285
0.0414503
0.0364626
0.0322704
0.0287977
0.0257895
0.0232905
0.0210575
0.0192107
0.017501
0.0161167
0.0147612
0.0137121
0.0126022
0.011813
0.0108716
0.0102932
0.00945462
0.00908995
0.00812916
0.119789
0.0960538
0.0786169
0.0656159
0.0554619
0.0476316
0.0414507
0.0364617
0.0322714
0.028797
0.0257875
0.023293
0.0210589
0.0192102
0.0174989
0.0161134
0.0147584
0.0137106
0.0126019
0.0118126
0.0108718
0.0102897
0.00946552
0.00902615
0.00821367
0.11979
0.0960526
0.0786178
0.0656151
0.0554624
0.0476309
0.0414508
0.0364617
0.0322725
0.0287935
0.0257905
0.0232948
0.0210579
0.019209
0.0174996
0.0161127
0.0147594
0.0137103
0.012603
0.0118117
0.0108727
0.0102882
0.0094669
0.00902187
0.00821583
0.11979
0.0960527
0.078618
0.0656145
0.0554633
0.0476302
0.0414498
0.0364631
0.0322716
0.028792
0.0257938
0.0232959
0.021057
0.0192086
0.0174991
0.0161124
0.014759
0.0137101
0.0126025
0.0118112
0.0108719
0.0102875
0.00946605
0.00902122
0.00821503
0.119787
0.0960558
0.0786162
0.0656151
0.0554651
0.047627
0.041449
0.0364637
0.0322695
0.0287941
0.0257962
0.0232917
0.0210576
0.0192124
0.0175031
0.016117
0.0147607
0.0137111
0.0126014
0.0118117
0.0108708
0.0102894
0.00946457
0.00902632
0.00821266
0.119788
0.0960548
0.0786163
0.065615
0.0554651
0.0476272
0.0414435
0.0364564
0.0322674
0.0287923
0.0257891
0.0232911
0.0210566
0.0192085
0.0174998
0.016114
0.0147601
0.0137102
0.0126022
0.011811
0.0108721
0.0102883
0.00946692
0.00902297
0.00821557
0.119788
0.0960536
0.0786105
0.0656082
0.0554494
0.0476156
0.0414292
0.0364431
0.032243
0.0287728
0.0257652
0.0232671
0.0210329
0.019189
0.0174738
0.0160895
0.0147305
0.0136832
0.0125706
0.0117815
0.0108379
0.0102579
0.00941806
0.00905367
0.00808065
0.119787
0.096054
0.0786101
0.0656087
0.0554488
0.0476163
0.0414313
0.036445
0.0322441
0.028774
0.0257657
0.023268
0.0210331
0.0191896
0.0174737
0.01609
0.0147302
0.0136837
0.0125702
0.0117821
0.0108374
0.0102584
0.00941771
0.00905332
0.0080828
0.119787
0.0960542
0.0786101
0.0656087
0.0554489
0.0476162
0.0414313
0.036445
0.0322441
0.0287741
0.0257657
0.023268
0.0210331
0.0191897
0.0174737
0.0160902
0.0147302
0.0136839
0.01257
0.0117822
0.0108375
0.0102562
0.00943017
0.00898745
0.00817515
0.119787
0.0960541
0.0786101
0.0656086
0.0554489
0.0476162
0.0414314
0.036445
0.0322441
0.0287741
0.0257657
0.023268
0.0210331
0.0191897
0.0174737
0.0160902
0.0147301
0.0136838
0.01257
0.0117823
0.0108371
0.0102587
0.0094173
0.00905302
0.008085
0.119787
0.0960547
0.0786095
0.0656093
0.0554481
0.0476171
0.0414313
0.0364454
0.032244
0.0287745
0.0257654
0.0232684
0.0210328
0.0191901
0.0174732
0.0160907
0.0147296
0.0136844
0.0125693
0.0117829
0.0108367
0.0102571
0.00942882
0.00899014
0.00817332
0.119787
0.0960545
0.0786097
0.0656091
0.0554485
0.0476166
0.0414314
0.0364452
0.0322442
0.0287742
0.0257656
0.0232681
0.0210331
0.0191896
0.0174737
0.0160901
0.0147302
0.0136837
0.0125703
0.0117819
0.010838
0.0102556
0.00943117
0.00898554
0.00817733
0.119787
0.0960544
0.0786098
0.0656089
0.0554487
0.0476164
0.0414314
0.0364451
0.0322442
0.0287742
0.0257656
0.0232681
0.0210331
0.0191897
0.0174737
0.0160902
0.0147302
0.0136838
0.0125702
0.0117821
0.0108378
0.010256
0.00943065
0.00898662
0.00817623
0.119787
0.096054
0.0786102
0.0656085
0.0554491
0.0476159
0.0414314
0.0364449
0.0322442
0.028774
0.0257658
0.0232679
0.0210332
0.0191895
0.0174739
0.01609
0.0147304
0.0136836
0.0125703
0.011782
0.0108375
0.0102584
0.00941756
0.00905334
0.00808344
0.119787
0.0960539
0.0786101
0.0656086
0.0554489
0.0476161
0.0414314
0.0364449
0.0322443
0.028774
0.0257657
0.0232679
0.0210332
0.0191895
0.0174738
0.01609
0.0147302
0.0136836
0.0125702
0.0117821
0.0108373
0.0102585
0.00941753
0.00905322
0.00808382
0.119787
0.096054
0.0786101
0.0656086
0.0554489
0.0476162
0.0414314
0.036445
0.0322442
0.028774
0.0257656
0.023268
0.0210332
0.0191897
0.0174737
0.0160901
0.01473
0.0136838
0.0125701
0.0117823
0.0108377
0.0102563
0.0094303
0.00898745
0.0081753
0.119787
0.0960545
0.0786097
0.0656092
0.0554483
0.047617
0.0414313
0.0364454
0.032244
0.0287744
0.0257654
0.0232684
0.0210328
0.0191901
0.0174733
0.0160906
0.0147296
0.0136843
0.0125694
0.0117829
0.0108364
0.0102594
0.0094169
0.00905257
0.0080876
0.119787
0.0960542
0.07861
0.0656087
0.0554488
0.0476163
0.0414313
0.0364451
0.0322442
0.0287741
0.0257657
0.023268
0.0210332
0.0191896
0.0174739
0.01609
0.0147303
0.0136836
0.0125703
0.0117818
0.0108376
0.0102581
0.00941787
0.00905347
0.00808149
0.119787
0.0960541
0.0786101
0.0656085
0.0554491
0.0476159
0.0414313
0.0364449
0.0322442
0.028774
0.0257658
0.0232679
0.0210332
0.0191895
0.0174739
0.01609
0.0147304
0.0136836
0.0125703
0.011782
0.0108375
0.0102583
0.00941774
0.00905331
0.0080827
0.119787
0.0960541
0.0786101
0.0656086
0.055449
0.0476161
0.0414313
0.036445
0.0322442
0.028774
0.0257657
0.0232679
0.0210333
0.0191896
0.0174738
0.01609
0.0147303
0.0136835
0.0125702
0.0117819
0.0108374
0.0102583
0.00941771
0.00905329
0.00808266
0.119787
0.0960545
0.0786097
0.0656091
0.0554485
0.0476166
0.0414314
0.0364452
0.0322441
0.0287742
0.0257657
0.0232681
0.0210331
0.0191897
0.0174737
0.0160902
0.0147302
0.0136837
0.0125701
0.0117821
0.0108373
0.0102584
0.00941771
0.00905336
0.00808302
0.119787
0.0960544
0.0786098
0.0656091
0.0554484
0.0476168
0.0414314
0.0364452
0.0322442
0.0287742
0.0257656
0.0232681
0.0210331
0.0191897
0.0174738
0.01609
0.0147302
0.0136836
0.0125703
0.0117818
0.010838
0.0102555
0.00943116
0.00898546
0.00817724
0.119787
0.0960542
0.0786098
0.065609
0.0554485
0.0476167
0.0414314
0.0364452
0.0322442
0.0287741
0.0257657
0.0232681
0.0210332
0.0191896
0.0174738
0.01609
0.0147302
0.0136836
0.0125704
0.0117818
0.0108381
0.0102555
0.00943126
0.00898506
0.00817794
0.119787
0.0960543
0.0786098
0.065609
0.0554485
0.0476167
0.0414313
0.0364453
0.0322441
0.0287742
0.0257656
0.0232683
0.0210329
0.0191899
0.0174734
0.0160905
0.0147297
0.0136843
0.0125695
0.0117828
0.0108367
0.0102572
0.00942854
0.00899031
0.00817348
0.119787
0.0960544
0.0786098
0.0656089
0.0554487
0.0476163
0.0414313
0.0364451
0.032244
0.028774
0.0257657
0.023268
0.021033
0.0191897
0.0174737
0.0160902
0.0147301
0.0136838
0.01257
0.0117822
0.0108371
0.0102586
0.0094173
0.00905313
0.00808465
0.119787
0.0960542
0.0786099
0.0656088
0.0554488
0.0476162
0.041424
0.0364398
0.0322398
0.0287711
0.0257631
0.0232664
0.0210315
0.0191888
0.0174727
0.0160899
0.0147294
0.0136839
0.0125695
0.0117826
0.0108367
0.0102592
0.00941727
0.00905299
0.0080864
0.119787
0.0960537
0.0786079
0.0656059
0.0554445
0.0476117
0.041424
0.0364381
0.0322373
0.0287676
0.0257593
0.0232618
0.0210272
0.0191839
0.0174683
0.0160847
0.0147251
0.0136785
0.0125655
0.0117771
0.0108329
0.0102536
0.00941327
0.00904897
0.00807781
0.119787
0.0960544
0.0786073
0.0656067
0.0554436
0.0476128
0.0414261
0.0364402
0.0322383
0.0287689
0.0257597
0.0232629
0.0210272
0.0191847
0.017468
0.0160855
0.0147245
0.0136794
0.0125646
0.0117781
0.0108318
0.0102546
0.00941255
0.00904819
0.00808211
0.119787
0.096054
0.0786077
0.0656062
0.0554442
0.0476121
0.0414262
0.0364399
0.0322385
0.0287687
0.02576
0.0232625
0.0210275
0.0191844
0.0174684
0.016085
0.014725
0.0136788
0.0125652
0.0117774
0.0108326
0.0102539
0.00941293
0.0090487
0.0080795
0.119787
0.0960538
0.0786079
0.065606
0.0554444
0.0476118
0.0414262
0.0364397
0.0322385
0.0287686
0.02576
0.0232625
0.0210276
0.0191843
0.0174684
0.016085
0.0147251
0.0136788
0.0125653
0.0117773
0.0108331
0.0102513
0.00942609
0.00898238
0.00817117
0.119787
0.0960542
0.0786074
0.0656065
0.0554438
0.0476125
0.0414261
0.0364401
0.0322384
0.0287689
0.0257598
0.0232629
0.0210272
0.0191848
0.0174679
0.0160856
0.0147244
0.0136796
0.0125644
0.0117784
0.0108314
0.0102552
0.00941197
0.0090478
0.00808555
0.119787
0.0960544
0.0786072
0.0656068
0.0554436
0.0476129
0.0414262
0.0364402
0.0322383
0.028769
0.0257597
0.0232629
0.0210272
0.0191848
0.017468
0.0160856
0.0147245
0.0136795
0.0125645
0.0117781
0.0108321
0.0102525
0.0094244
0.00898525
0.00816958
0.119787
0.0960542
0.0786074
0.0656066
0.0554438
0.0476125
0.0414262
0.0364401
0.0322384
0.0287689
0.0257598
0.0232628
0.0210273
0.0191847
0.0174681
0.0160854
0.0147246
0.0136793
0.0125647
0.011778
0.0108323
0.0102524
0.00942448
0.00898494
0.00817008
0.119787
0.0960538
0.0786079
0.065606
0.0554445
0.0476118
0.0414262
0.0364397
0.0322385
0.0287685
0.02576
0.0232624
0.0210276
0.0191843
0.0174685
0.0160849
0.0147251
0.0136787
0.0125653
0.0117773
0.0108326
0.0102538
0.00941299
0.00904872
0.00807921
0.119787
0.0960537
0.078608
0.0656058
0.0554446
0.0476116
0.0414262
0.0364396
0.0322386
0.0287684
0.0257601
0.0232623
0.0210277
0.0191841
0.0174686
0.0160848
0.0147253
0.0136785
0.0125656
0.011777
0.010833
0.0102534
0.00941338
0.00904899
0.0080769
0.119787
0.0960539
0.0786078
0.0656061
0.0554444
0.0476119
0.0414262
0.0364398
0.0322385
0.0287686
0.02576
0.0232625
0.0210276
0.0191844
0.0174684
0.0160851
0.014725
0.0136789
0.0125651
0.0117775
0.0108324
0.0102541
0.00941277
0.00904854
0.00808073
0.119787
0.0960544
0.0786073
0.0656067
0.0554436
0.0476128
0.0414262
0.0364402
0.0322383
0.028769
0.0257597
0.0232629
0.0210272
0.0191848
0.0174679
0.0160856
0.0147244
0.0136795
0.0125645
0.0117782
0.0108321
0.0102525
0.00942433
0.00898566
0.00816889
0.119787
0.0960541
0.0786076
0.0656064
0.055444
0.0476123
0.0414262
0.03644
0.0322384
0.0287688
0.0257598
0.0232628
0.0210273
0.0191847
0.017468
0.0160855
0.0147245
0.0136795
0.0125645
0.0117783
0.0108315
0.010255
0.00941218
0.0090479
0.00808457
0.119787
0.0960538
0.0786079
0.065606
0.0554444
0.0476118
0.0414262
0.0364398
0.0322385
0.0287686
0.02576
0.0232625
0.0210276
0.0191843
0.0174684
0.016085
0.014725
0.0136788
0.0125652
0.0117773
0.010833
0.0102514
0.00942603
0.00898246
0.00817109
0.119787
0.0960538
0.0786078
0.065606
0.0554444
0.0476119
0.0414262
0.0364398
0.0322385
0.0287686
0.02576
0.0232625
0.0210276
0.0191844
0.0174684
0.0160851
0.014725
0.0136789
0.0125651
0.0117774
0.0108329
0.0102516
0.00942565
0.00898301
0.00817072
0.119787
0.0960543
0.0786073
0.0656067
0.0554437
0.0476128
0.0414262
0.0364402
0.0322384
0.028769
0.0257597
0.0232629
0.0210272
0.0191848
0.017468
0.0160855
0.0147245
0.0136794
0.0125646
0.0117782
0.0108317
0.0102548
0.00941236
0.00904808
0.0080831
0.119787
0.0960543
0.0786074
0.0656066
0.0554438
0.0476126
0.0414262
0.0364401
0.0322384
0.0287689
0.0257598
0.0232628
0.0210273
0.0191847
0.017468
0.0160855
0.0147246
0.0136794
0.0125646
0.011778
0.0108322
0.0102524
0.0094244
0.00898531
0.00816947
0.119787
0.0960543
0.0786074
0.0656066
0.0554438
0.0476126
0.0414262
0.0364401
0.0322384
0.0287689
0.0257598
0.0232628
0.0210273
0.0191847
0.0174681
0.0160854
0.0147246
0.0136793
0.0125647
0.011778
0.0108323
0.0102523
0.00942453
0.00898484
0.00817018
0.119787
0.0960539
0.0786078
0.0656061
0.0554443
0.047612
0.0414262
0.0364398
0.0322385
0.0287686
0.02576
0.0232625
0.0210275
0.0191844
0.0174683
0.0160851
0.0147249
0.013679
0.012565
0.0117777
0.0108322
0.0102543
0.00941258
0.00904846
0.00808155
0.119787
0.0960541
0.0786076
0.0656063
0.0554441
0.0476123
0.0414261
0.0364399
0.0322383
0.0287687
0.0257597
0.0232627
0.0210272
0.0191847
0.0174679
0.0160855
0.0147244
0.0136795
0.0125644
0.0117783
0.0108319
0.0102529
0.00942381
0.00898683
0.00816771
0.119787
0.0960535
0.0786081
0.0656056
0.0554448
0.0476114
0.0414188
0.0364342
0.0322343
0.0287653
0.0257575
0.0232606
0.0210262
0.0191832
0.0174677
0.0160844
0.0147247
0.0136785
0.0125652
0.0117773
0.0108327
0.0102539
0.00941315
0.00904895
0.00807921
0.119787
0.0960538
0.0786067
0.0656048
0.055442
0.0476099
0.0414213
0.0364355
0.0322342
0.0287648
0.0257561
0.0232591
0.021024
0.0191814
0.0174651
0.0160824
0.0147219
0.0136765
0.0125623
0.0117753
0.0108302
0.0102497
0.00942309
0.00898178
0.00816877
0.119787
0.0960539
0.0786066
0.0656049
0.0554419
0.04761
0.0414234
0.0364371
0.0322354
0.0287658
0.0257567
0.0232597
0.0210243
0.0191818
0.0174651
0.0160827
0.0147218
0.0136769
0.012562
0.0117758
0.0108296
0.0102505
0.00942171
0.00898429
0.00816633
0.119787
0.0960537
0.0786068
0.0656046
0.0554422
0.0476096
0.0414235
0.036437
0.0322355
0.0287656
0.0257569
0.0232595
0.0210246
0.0191815
0.0174655
0.0160823
0.0147223
0.0136763
0.0125626
0.0117751
0.01083
0.0102519
0.0094106
0.00904642
0.00807872
0.119787
0.0960536
0.0786068
0.0656046
0.0554422
0.0476096
0.0414236
0.036437
0.0322356
0.0287656
0.025757
0.0232594
0.0210247
0.0191814
0.0174657
0.0160821
0.0147225
0.013676
0.0125629
0.0117746
0.010831
0.0102486
0.00942449
0.00897886
0.00817089
0.119787
0.0960536
0.0786069
0.0656045
0.0554423
0.0476095
0.0414235
0.0364369
0.0322356
0.0287656
0.025757
0.0232594
0.0210246
0.0191814
0.0174656
0.0160822
0.0147224
0.0136761
0.0125628
0.0117748
0.0108308
0.0102489
0.00942403
0.00897978
0.00816992
0.119787
0.0960541
0.0786064
0.0656052
0.0554415
0.0476104
0.0414235
0.0364374
0.0322354
0.028766
0.0257567
0.0232599
0.0210242
0.0191819
0.0174651
0.0160828
0.0147218
0.0136769
0.012562
0.0117758
0.0108293
0.0102526
0.00940998
0.00904585
0.00808211
0.119787
0.096054
0.0786064
0.0656051
0.0554417
0.0476103
0.0414235
0.0364373
0.0322354
0.0287659
0.0257567
0.0232598
0.0210243
0.0191818
0.0174652
0.0160827
0.0147219
0.0136768
0.0125621
0.0117756
0.0108298
0.0102502
0.00942222
0.00898319
0.00816748
0.119787
0.0960537
0.0786068
0.0656047
0.0554422
0.0476096
0.0414235
0.036437
0.0322355
0.0287656
0.0257569
0.0232595
0.0210245
0.0191815
0.0174655
0.0160823
0.0147223
0.0136763
0.0125626
0.011775
0.0108305
0.0102493
0.00942346
0.0089809
0.00816873
0.119787
0.0960535
0.078607
0.0656045
0.0554424
0.0476094
0.0414235
0.0364369
0.0322356
0.0287655
0.025757
0.0232594
0.0210247
0.0191813
0.0174656
0.0160822
0.0147225
0.0136761
0.0125628
0.0117749
0.0108303
0.0102516
0.00941081
0.00904658
0.00807729
0.119787
0.0960537
0.0786068
0.0656047
0.0554422
0.0476097
0.0414236
0.036437
0.0322356
0.0287656
0.025757
0.0232595
0.0210246
0.0191814
0.0174656
0.0160822
0.0147224
0.0136761
0.0125629
0.0117747
0.0108309
0.0102488
0.00942436
0.00897936
0.00817014
0.119787
0.0960536
0.0786069
0.0656046
0.0554423
0.0476095
0.0414236
0.0364369
0.0322356
0.0287655
0.025757
0.0232594
0.0210247
0.0191813
0.0174657
0.0160821
0.0147226
0.0136759
0.0125631
0.0117745
0.0108312
0.0102485
0.00942463
0.00897838
0.00817159
0.119787
0.0960536
0.0786069
0.0656045
0.0554424
0.0476094
0.0414235
0.0364369
0.0322356
0.0287656
0.025757
0.0232595
0.0210246
0.0191814
0.0174655
0.0160823
0.0147223
0.0136763
0.0125627
0.011775
0.0108306
0.0102493
0.00942349
0.00898084
0.00816881
0.119787
0.0960534
0.078607
0.0656044
0.0554425
0.0476093
0.0414236
0.0364368
0.0322356
0.0287655
0.025757
0.0232594
0.0210247
0.0191813
0.0174657
0.0160821
0.0147225
0.013676
0.0125629
0.0117748
0.0108304
0.0102515
0.00941082
0.00904665
0.0080769
0.119787
0.0960534
0.0786071
0.0656043
0.0554426
0.0476092
0.0414235
0.0364368
0.0322356
0.0287654
0.0257571
0.0232593
0.0210247
0.0191812
0.0174657
0.016082
0.0147226
0.0136759
0.012563
0.0117747
0.0108306
0.0102513
0.00941101
0.00904675
0.00807595
0.119787
0.0960536
0.0786069
0.0656045
0.0554424
0.0476094
0.0414236
0.0364369
0.0322356
0.0287655
0.025757
0.0232594
0.0210247
0.0191813
0.0174657
0.0160821
0.0147225
0.0136761
0.0125629
0.0117748
0.0108304
0.0102514
0.00941099
0.00904668
0.00807633
0.119787
0.0960536
0.0786069
0.0656046
0.0554423
0.0476095
0.0414235
0.036437
0.0322356
0.0287656
0.025757
0.0232595
0.0210246
0.0191814
0.0174655
0.0160823
0.0147223
0.0136763
0.0125626
0.0117751
0.01083
0.0102518
0.00941061
0.00904642
0.00807864
0.119787
0.0960536
0.0786068
0.0656046
0.0554422
0.0476096
0.0414235
0.036437
0.0322355
0.0287656
0.025757
0.0232595
0.0210246
0.0191814
0.0174656
0.0160822
0.0147224
0.0136762
0.0125628
0.0117748
0.0108308
0.010249
0.00942397
0.00897987
0.00816983
0.119787
0.0960536
0.0786068
0.0656046
0.0554422
0.0476096
0.0414235
0.036437
0.0322355
0.0287656
0.0257569
0.0232595
0.0210246
0.0191814
0.0174656
0.0160823
0.0147224
0.0136762
0.0125627
0.0117749
0.0108307
0.010249
0.00942397
0.00897988
0.00816984
0.119787
0.0960538
0.0786066
0.0656049