/*--------------------------------*- C++ -*----------------------------------*\
  =========                 |
  \\      /  F ield         | OpenFOAM: The Open Source CFD Toolbox
   \\    /   O peration     | Website:  https://openfoam.org
    \\  /    A nd           | Version:  12
     \\/     M anipulation  |
\*---------------------------------------------------------------------------*/
FoamFile
{
    format      ascii;
    class       volScalarField;
    location    "300";
    object      k;
}
// * * * * * * * * * * * * * * * * * * * * * * * * * * * * * * * * * * * * * //

dimensions      [0 2 -2 0 0 0 0];

internalField   nonuniform List<scalar> 
5000
(
1.44053
1.33518
1.24713
1.17233
1.10763
1.05264
1.00191
0.961474
0.920815
0.863233
0.841506
0.794317
0.775459
0.734613
0.718447
0.683206
0.66668
0.645761
0.615813
0.600484
0.575353
0.563047
0.541543
0.531449
0.512817
1.44038
1.33543
1.24694
1.17247
1.10772
1.05211
1.00327
0.959408
0.922451
0.883752
0.849663
0.80535
0.759635
0.73924
0.702218
0.685966
0.653634
0.638938
0.622653
0.59537
0.581787
0.558559
0.547414
0.527384
0.515922
1.44054
1.33515
1.24721
1.17217
1.10792
1.05202
1.00365
0.95561
0.917781
0.8613
0.838398
0.791283
0.772383
0.732016
0.71529
0.680707
0.665116
0.644085
0.614404
0.599645
0.574717
0.562866
0.541486
0.531799
0.51326
1.44057
1.33509
1.24731
1.172
1.10818
1.05168
1.00381
0.957929
0.927244
0.868846
0.845657
0.797616
0.779215
0.737749
0.721378
0.689926
0.656017
0.639708
0.611152
0.597703
0.573238
0.562113
0.541006
0.531863
0.520128
1.44042
1.33537
1.24699
1.17246
1.1076
1.05243
1.00282
0.959944
0.920489
0.886043
0.839664
0.790385
0.769448
0.729317
0.712303
0.67816
0.661608
0.643534
0.614194
0.599627
0.57478
0.562943
0.541594
0.53185
0.513312
1.44054
1.33515
1.24721
1.17213
1.10808
1.05156
1.00434
0.957879
0.916759
0.876725
0.823622
0.801336
0.758044
0.739994
0.702664
0.687706
0.655199
0.640188
0.623426
0.595809
0.581951
0.558515
0.547221
0.527058
0.515604
1.44054
1.33516
1.24721
1.17214
1.10807
1.05158
1.00431
0.957873
0.916979
0.876582
0.823469
0.801332
0.758071
0.740355
0.703022
0.688181
0.655818
0.640514
0.6237
0.595995
0.582155
0.55866
0.547389
0.527193
0.515797
1.44043
1.33535
1.24702
1.17235
1.10777
1.05231
1.00241
0.961495
0.917358
0.881063
0.827907
0.805834
0.762074
0.743895
0.706531
0.692071
0.66696
0.635123
0.620093
0.593557
0.581033
0.558157
0.547668
0.527794
0.518557
1.44054
1.33517
1.24719
1.17213
1.10813
1.05151
1.00403
0.959104
0.920164
0.883087
0.838255
0.789423
0.768396
0.728135
0.710996
0.676758
0.662211
0.632033
0.618805
0.604103
0.578563
0.56595
0.543946
0.533012
0.514959
1.44054
1.33515
1.24724
1.17203
1.10822
1.05161
1.00345
0.959865
0.921489
0.886712
0.847873
0.815113
0.772649
0.730102
0.710198
0.675373
0.66
0.63015
0.617329
0.591543
0.580345
0.567929
0.545697
0.53472
0.515629
1.44056
1.33512
1.2473
1.17201
1.10815
1.05185
1.00314
0.960011
0.920898
0.890972
0.836429
0.818708
0.772211
0.752079
0.715577
0.678967
0.661537
0.630956
0.61697
0.590924
0.579448
0.557021
0.547369
0.536335
0.518055
1.44042
1.33536
1.24702
1.17233
1.10783
1.05228
1.00187
0.965002
0.902347
0.878911
0.827836
0.808044
0.764695
0.746943
0.709412
0.694733
0.66685
0.634912
0.619735
0.593154
0.580824
0.558014
0.547824
0.528091
0.51901
1.44054
1.33514
1.24727
1.17206
1.10812
1.05175
1.00371
0.958085
0.927071
0.868873
0.847002
0.799311
0.78039
0.738833
0.722191
0.689871
0.655751
0.63967
0.611373
0.597971
0.57369
0.562548
0.541559
0.532295
0.5207
1.44036
1.33547
1.24688
1.17263
1.10745
1.05254
1.00288
0.959394
0.923525
0.879724
0.850732
0.806094
0.760368
0.740078
0.702443
0.686074
0.653546
0.639043
0.622961
0.595688
0.582194
0.55895
0.547869
0.527936
0.518584
1.4404
1.33539
1.24703
1.1723
1.10791
1.05218
1.00199
0.964972
0.902056
0.879088
0.828223
0.808
0.764328
0.746845
0.708404
0.692366
0.658955
0.643913
0.615073
0.601711
0.576899
0.565152
0.543627
0.533642
0.514881
1.4404
1.33539
1.24693
1.17254
1.10755
1.05236
1.00309
0.959358
0.92227
0.887281
0.851569
0.810419
0.763678
0.742523
0.704066
0.687254
0.654655
0.64019
0.612188
0.599657
0.585969
0.562011
0.550315
0.529632
0.517799
1.44055
1.33514
1.2472
1.17217
1.10802
1.05165
1.00426
0.957878
0.917136
0.876755
0.823978
0.801817
0.758294
0.740072
0.702887
0.688051
0.655237
0.640383
0.623915
0.596317
0.582533
0.559009
0.547595
0.527324
0.515786
1.44057
1.33511
1.24723
1.17214
1.10803
1.05165
1.00424
0.957816
0.917691
0.876535
0.823815
0.801737
0.758514
0.740284
0.703361
0.688231
0.655345
0.640412
0.623835
0.596231
0.582338
0.558884
0.547461
0.527296
0.515798
1.44057
1.3351
1.24731
1.17198
1.10821
1.05161
1.0039
0.957812
0.927449
0.868547
0.845644
0.797823
0.77847
0.736992
0.721622
0.689674
0.655567
0.639549
0.611184
0.597902
0.573518
0.562429
0.541331
0.532151
0.520231
1.44055
1.33514
1.24723
1.17214
1.10797
1.05192
1.00389
0.954925
0.917563
0.86063
0.837751
0.790738
0.771863
0.731301
0.714922
0.680227
0.663401
0.64379
0.614056
0.599205
0.574203
0.562305
0.54089
0.531166
0.512635
1.41306
1.26582
1.14619
1.04831
0.96486
0.895884
0.834123
0.78206
0.736378
0.692347
0.658552
0.629327
0.582686
0.54619
0.53529
0.506
0.480173
0.462027
0.444957
0.428937
0.413817
0.399639
0.386277
0.373781
0.362092
1.41306
1.2658
1.1463
1.04809
0.965238
0.895377
0.834668
0.782098
0.735464
0.694868
0.655987
0.629127
0.583006
0.550984
0.538964
0.504717
0.475583
0.458771
0.442702
0.427394
0.412824
0.399029
0.385979
0.373701
0.362192
1.41303
1.26585
1.14631
1.04806
0.965323
0.895273
0.834764
0.782
0.735256
0.69576
0.652877
0.616554
0.597381
0.560031
0.517115
0.499961
0.483299
0.462199
0.443099
0.426531
0.411294
0.39729
0.384276
0.372221
0.360945
1.41305
1.26582
1.1463
1.04813
0.965106
0.895731
0.833957
0.783034
0.734244
0.695933
0.657988
0.604736
0.596582
0.562217
0.517788
0.500336
0.48355
0.461351
0.442177
0.425653
0.410516
0.396641
0.383772
0.371887
0.360791
1.41299
1.26593
1.1462
1.04822
0.965119
0.895532
0.834471
0.782173
0.735381
0.695135
0.655347
0.619754
0.598154
0.560527
0.516286
0.499159
0.482087
0.461033
0.442626
0.426167
0.411029
0.397109
0.384157
0.372145
0.360897
1.41297
1.26595
1.14617
1.04821
0.965219
0.895244
0.834954
0.781741
0.734928
0.696442
0.653306
0.617241
0.598505
0.56052
0.516685
0.499595
0.481656
0.461545
0.443696
0.427199
0.411956
0.397875
0.384788
0.372627
0.361261
1.41298
1.26594
1.1462
1.04817
0.965269
0.895207
0.83497
0.781726
0.73525
0.695431
0.656272
0.613496
0.598193
0.562294
0.517434
0.498985
0.481309
0.462501
0.444825
0.428359
0.413065
0.398891
0.385704
0.37344
0.362018
1.41302
1.26586
1.14628
1.04808
0.965286
0.895344
0.83452
0.782651
0.733981
0.697306
0.654028
0.615422
0.599002
0.558377
0.516194
0.5019
0.485993
0.458886
0.441471
0.425418
0.410599
0.396912
0.384186
0.372354
0.361307
1.41301
1.2659
1.14611
1.04838
0.964836
0.895858
0.834125
0.782345
0.735024
0.695612
0.654508
0.620682
0.599138
0.555209
0.518891
0.502977
0.482471
0.46114
0.444152
0.428373
0.41357
0.399719
0.386641
0.374372
0.362793
1.41302
1.26588
1.14616
1.04834
0.964838
0.895985
0.833787
0.782949
0.734254
0.697002
0.651083
0.624354
0.599728
0.55437
0.521522
0.507967
0.481812
0.458071
0.441301
0.425857
0.411517
0.39808
0.385348
0.373354
0.361979
1.41306
1.2658
1.14632
1.0481
0.96516
0.895667
0.833996
0.783086
0.734006
0.697462
0.649641
0.624594
0.599056
0.552578
0.52154
0.508075
0.483268
0.456607
0.4397
0.424178
0.409816
0.396482
0.384035
0.372368
0.361323
1.41303
1.26584
1.14632
1.04803
0.96538
0.895173
0.834936
0.781661
0.735976
0.695245
0.64724
0.629822
0.594658
0.549702
0.522043
0.507865
0.484209
0.457853
0.440592
0.424777
0.410182
0.396669
0.384063
0.372286
0.361286
1.41301
1.26589
1.14625
1.04813
0.965205
0.895497
0.834261
0.783033
0.733425
0.697923
0.652888
0.613925
0.598184
0.552707
0.523088
0.509994
0.484651
0.458257
0.440613
0.424683
0.41008
0.396654
0.384137
0.372509
0.361585
1.41298
1.26594
1.14616
1.04827
0.965038
0.895643
0.834297
0.782514
0.734635
0.696317
0.652896
0.625925
0.598934
0.557921
0.515281
0.499405
0.480133
0.460872
0.443631
0.427533
0.412536
0.398592
0.385576
0.373434
0.36213
1.41296
1.26597
1.14613
1.04828
0.965082
0.89548
0.834629
0.781983
0.735022
0.696535
0.648045
0.628178
0.597106
0.551725
0.518662
0.502159
0.482377
0.46118
0.443502
0.427314
0.412355
0.398554
0.385676
0.373701
0.362462
1.41301
1.2659
1.14613
1.04837
0.964824
0.895947
0.833927
0.782715
0.734562
0.696658
0.651134
0.627905
0.598369
0.55293
0.521116
0.507219
0.481529
0.460708
0.443319
0.427417
0.412647
0.39887
0.385932
0.37378
0.362363
1.41304
1.26586
1.14614
1.04836
0.964815
0.895907
0.834103
0.782183
0.735519
0.694776
0.652511
0.629777
0.593545
0.545642
0.526685
0.509599
0.480501
0.462047
0.444942
0.428977
0.413996
0.399929
0.386677
0.374238
0.362545
1.41303
1.26586
1.14616
1.04834
0.964843
0.895907
0.834076
0.782276
0.735554
0.694209
0.65405
0.629808
0.589776
0.542811
0.526414
0.508547
0.477879
0.460114
0.443444
0.427721
0.41287
0.398879
0.385686
0.37331
0.361688
1.41297
1.26596
1.14617
1.04821
0.965191
0.89535
0.834774
0.781769
0.736314
0.692037
0.658675
0.629146
0.58447
0.543207
0.527734
0.51374
0.477764
0.456738
0.440033
0.42463
0.410275
0.396912
0.38434
0.372594
0.361521
1.41296
1.26597
1.14611
1.04829
0.965103
0.895356
0.83494
0.781373
0.73585
0.695431
0.65037
0.626792
0.59469
0.548222
0.52377
0.508253
0.48273
0.459552
0.441749
0.425608
0.410747
0.397029
0.384201
0.372245
0.361002
1.41298
1.26525
1.14468
1.04574
0.961447
0.890975
0.828516
0.775376
0.726918
0.685424
0.64671
0.613936
0.5816
0.555091
0.528243
0.506442
0.483033
0.465318
0.444641
0.430192
0.411451
0.399905
0.382676
0.372893
0.355063
1.41298
1.26525
1.14469
1.04572
0.961476
0.890939
0.828554
0.775367
0.726884
0.685487
0.646659
0.613866
0.581609
0.555153
0.528261
0.506446
0.482976
0.465252
0.444549
0.430135
0.411393
0.399895
0.382664
0.372964
0.355068
1.41297
1.26526
1.14469
1.04572
0.961483
0.89093
0.828565
0.775355
0.726893
0.685519
0.646516
0.613785
0.581886
0.555158
0.52791
0.506422
0.483125
0.465315
0.444509
0.430069
0.4113
0.399901
0.382317
0.374532
0.352798
1.41297
1.26525
1.14469
1.04572
0.961471
0.890956
0.828522
0.775403
0.726843
0.685556
0.646561
0.613667
0.581885
0.555202
0.527907
0.5064
0.483069
0.465255
0.444455
0.430034
0.411292
0.399828
0.382617
0.372926
0.355021
1.41296
1.26527
1.14468
1.04573
0.961465
0.890952
0.828542
0.775369
0.726881
0.685509
0.646541
0.613825
0.581893
0.555174
0.527864
0.506414
0.483046
0.465292
0.444446
0.430082
0.411257
0.399925
0.38229
0.374509
0.352945
1.41296
1.26527
1.14467
1.04574
0.961468
0.890932
0.828578
0.775334
0.726865
0.685567
0.646481
0.613767
0.581902
0.555167
0.527887
0.506391
0.483004
0.465275
0.44448
0.430126
0.411318
0.399979
0.382344
0.374552
0.35296
1.41296
1.26527
1.14467
1.04574
0.961471
0.89093
0.828576
0.775338
0.726872
0.68555
0.646531
0.613703
0.581909
0.555203
0.527891
0.506354
0.483051
0.465316
0.44454
0.430138
0.411368
0.399925
0.382669
0.373025
0.355049
1.41297
1.26526
1.14469
1.04572
0.961483
0.890927
0.828562
0.775372
0.726842
0.685577
0.646527
0.61373
0.581918
0.555122
0.527927
0.506487
0.483123
0.465251
0.444445
0.430048
0.41131
0.39995
0.382387
0.374618
0.352882
1.41297
1.26526
1.14467
1.04575
0.961443
0.89097
0.828531
0.775356
0.726882
0.685522
0.646528
0.613846
0.581927
0.555077
0.527998
0.506438
0.483026
0.465292
0.444612
0.430234
0.411473
0.400044
0.382414
0.374594
0.352842
1.41297
1.26526
1.14468
1.04574
0.961448
0.890975
0.828516
0.775382
0.726872
0.685521
0.646536
0.61387
0.581896
0.55506
0.528031
0.506477
0.482992
0.46522
0.444562
0.43018
0.411452
0.399994
0.382395
0.374587
0.352784
1.41297
1.26525
1.14469
1.04572
0.961473
0.890955
0.828519
0.775411
0.726844
0.685529
0.646534
0.613886
0.581844
0.555057
0.527977
0.506546
0.483014
0.465193
0.444395
0.430075
0.411292
0.399968
0.382334
0.37455
0.352962
1.41297
1.26526
1.14469
1.04572
0.961486
0.890928
0.828563
0.775354
0.726917
0.685453
0.646529
0.613934
0.581816
0.555004
0.527996
0.506556
0.483086
0.465191
0.444416
0.430008
0.411303
0.399844
0.382652
0.372922
0.35507
1.41297
1.26527
1.14468
1.04572
0.961479
0.890935
0.828549
0.775392
0.726816
0.685578
0.646514
0.613754
0.581871
0.555068
0.528026
0.506566
0.483098
0.465208
0.444454
0.430056
0.411365
0.399904
0.382715
0.372973
0.355148
1.41296
1.26527
1.14468
1.04573
0.961465
0.89095
0.828543
0.775377
0.726857
0.685531
0.646535
0.613855
0.581935
0.555117
0.527916
0.50635
0.48293
0.465173
0.444455
0.430078
0.411361
0.3999
0.38268
0.372978
0.355102
1.41296
1.26528
1.14467
1.04575
0.961457
0.890952
0.828548
0.77536
0.726869
0.68552
0.64648
0.613929
0.581856
0.555046
0.527924
0.506474
0.482985
0.465232
0.444417
0.430118
0.411326
0.400049
0.382412
0.37464
0.35313
1.41297
1.26527
1.14467
1.04575
0.961435
0.890987
0.828506
0.775388
0.72686
0.685526
0.646527
0.613931
0.581866
0.555083
0.527988
0.506486
0.482941
0.465227
0.444447
0.430121
0.411302
0.399902
0.38254
0.373075
0.354903
1.41297
1.26526
1.14467
1.04575
0.961439
0.890979
0.82852
0.77536
0.7269
0.68547
0.646569
0.613968
0.581766
0.555009
0.52812
0.506497
0.483021
0.465305
0.444618
0.430214
0.411445
0.399995
0.382371
0.37455
0.352781
1.41297
1.26526
1.14468
1.04574
0.961446
0.890975
0.82852
0.77537
0.726894
0.685452
0.646611
0.613968
0.581666
0.554982
0.528105
0.506462
0.482975
0.465286
0.44458
0.430184
0.411386
0.399954
0.382316
0.374497
0.352779
1.41296
1.26528
1.14467
1.04574
0.961467
0.890941
0.828553
0.775369
0.726875
0.685437
0.646684
0.613903
0.581584
0.555046
0.528182
0.506668
0.483008
0.46519
0.444395
0.430072
0.411297
0.399927
0.382598
0.373089
0.354961
1.41296
1.26527
1.14467
1.04574
0.961466
0.890932
0.828583
0.775331
0.726938
0.685501
0.646549
0.613942
0.581824
0.555027
0.528052
0.506526
0.483062
0.465243
0.444519
0.430115
0.411392
0.399982
0.382404
0.374616
0.352817
1.41296
1.26526
1.14463
1.04569
0.96133
0.890839
0.828298
0.775167
0.726486
0.685174
0.646102
0.613298
0.581092
0.554652
0.527477
0.505962
0.482501
0.46495
0.444231
0.429981
0.411253
0.399842
0.382657
0.372882
0.355118
1.41296
1.26527
1.14463
1.04569
0.961326
0.890845
0.82829
0.775169
0.726471
0.685176
0.646083
0.613298
0.58107
0.554654
0.527451
0.505967
0.482473
0.464956
0.444199
0.42999
0.411216
0.399859
0.382606
0.372947
0.355044
1.41296
1.26527
1.14463
1.04569
0.961326
0.890844
0.828291
0.775168
0.726472
0.685174
0.646079
0.613297
0.581074
0.55465
0.527444
0.505965
0.482474
0.464958
0.444195
0.429991
0.411199
0.399914
0.382302
0.374558
0.352824
1.41296
1.26527
1.14463
1.04569
0.961326
0.890845
0.828291
0.775168
0.726472
0.685174
0.646081
0.613294
0.581076
0.554648
0.527447
0.505961
0.482476
0.464951
0.444198
0.429981
0.411216
0.399849
0.382612
0.372935
0.355044
1.41296
1.26527
1.14462
1.0457
0.96132
0.890852
0.828281
0.775177
0.72646
0.685185
0.646065
0.613311
0.581057
0.554666
0.527423
0.505985
0.482449
0.464981
0.444165
0.430018
0.411173
0.399899
0.382539
0.373073
0.354933
1.41296
1.26527
1.14462
1.0457
0.961323
0.890847
0.828289
0.77517
0.726467
0.685178
0.646074
0.613299
0.58107
0.554653
0.527442
0.505965
0.48247
0.464954
0.444195
0.429988
0.411205
0.39991
0.38231
0.374566
0.352784
1.41296
1.26527
1.14462
1.0457
0.961324
0.890846
0.82829
0.775169
0.726469
0.685177
0.646076
0.613297
0.581072
0.554653
0.527442
0.505965
0.48247
0.464959
0.444193
0.429993
0.411199
0.399917
0.382304
0.37456
0.352828
1.41296
1.26527
1.14463
1.04569
0.961328
0.890841
0.828294
0.775165
0.726475
0.685172
0.646084
0.613291
0.58108
0.554645
0.527452
0.50596
0.482482
0.464947
0.444203
0.429976
0.411224
0.399843
0.382631
0.372921
0.355064
1.41296
1.26527
1.14463
1.04569
0.961326
0.890843
0.828293
0.775165
0.726475
0.685171
0.646083
0.613294
0.58108
0.554645
0.527454
0.50596
0.482478
0.46495
0.444206
0.429988
0.411226
0.399856
0.38262
0.372937
0.355049
1.41296
1.26527
1.14463
1.04569
0.961326
0.890844
0.828292
0.775167
0.726474
0.685173
0.646082
0.613296
0.581076
0.554646
0.527451
0.505961
0.482474
0.464948
0.444203
0.429991
0.411216
0.399913
0.382313
0.374566
0.352788
1.41296
1.26527
1.14462
1.0457
0.961321
0.890852
0.828281
0.775178
0.72646
0.685185
0.646067
0.613311
0.581056
0.554664
0.527427
0.505986
0.482448
0.464976
0.444164
0.430018
0.41117
0.399944
0.382286
0.374539
0.352947
1.41296
1.26527
1.14463
1.0457
0.961326
0.890845
0.82829
0.77517
0.726471
0.685173
0.64608
0.613299
0.581072
0.554648
0.527447
0.505966
0.482475
0.464951
0.444195
0.429981
0.411215
0.399849
0.382615
0.372929
0.355054
1.41296
1.26527
1.14463
1.04569
0.961328
0.890841
0.828294
0.775166
0.726474
0.685171
0.646084
0.613291
0.581078
0.554644
0.527454
0.505961
0.482482
0.464947
0.444203
0.429979
0.411225
0.399849
0.382622
0.372923
0.355072
1.41296
1.26527
1.14463
1.04569
0.961327
0.890843
0.828293
0.775167
0.726474
0.685172
0.646083
0.613293
0.581079
0.554646
0.527451
0.505957
0.482476
0.464944
0.444201
0.429978
0.411222
0.399847
0.38262
0.372922
0.355071
1.41296
1.26527
1.14462
1.0457
0.961323
0.890848
0.828287
0.775172
0.726466
0.685179
0.646074
0.613303
0.581067
0.554654
0.52744
0.505971
0.482466
0.464957
0.444186
0.429989
0.411207
0.399863
0.382604
0.372964
0.35503
1.41296
1.26527
1.14462
1.0457
0.961322
0.890849
0.828286
0.775172
0.726467
0.685178
0.646075
0.613303
0.581068
0.554654
0.527443
0.505967
0.482466
0.464953
0.444191
0.429988
0.411199
0.399908
0.382298
0.374555
0.352804
1.41296
1.26527
1.14462
1.0457
0.961322
0.890848
0.828287
0.775171
0.726468
0.685177
0.646077
0.613302
0.581068
0.554653
0.527446
0.505968
0.482468
0.464958
0.444196
0.429996
0.411205
0.399914
0.382309
0.374561
0.352789
1.41296
1.26527
1.14462
1.0457
0.961323
0.890849
0.828287
0.775172
0.726467
0.685178
0.646076
0.613304
0.581063
0.554657
0.52744
0.505974
0.482459
0.464968
0.444183
0.430008
0.411195
0.399883
0.382566
0.373032
0.354966
1.41296
1.26527
1.14462
1.0457
0.961325
0.890845
0.82829
0.77517
0.72647
0.685174
0.646084
0.613298
0.58107
0.554651
0.527455
0.505971
0.482479
0.464953
0.444201
0.429985
0.411223
0.399854
0.382622
0.372928
0.355072
1.41296
1.26527
1.14462
1.0457
0.961326
0.890844
0.828292
0.775188
0.726485
0.685207
0.6461
0.61334
0.581094
0.554697
0.52747
0.506018
0.482492
0.465009
0.44421
0.43005
0.411215
0.399978
0.382327
0.374582
0.352968
1.41296
1.26527
1.14461
1.04567
0.961288
0.890802
0.828236
0.775116
0.726408
0.685112
0.646011
0.613222
0.580995
0.554568
0.527366
0.505871
0.482386
0.464854
0.444115
0.429888
0.411142
0.399757
0.382551
0.372826
0.355009
1.41296
1.26527
1.14461
1.04568
0.96128
0.890813
0.828223
0.775122
0.726387
0.685119
0.645984
0.613231
0.580962
0.554581
0.527327
0.50589
0.48234
0.464881
0.44406
0.429928
0.411068
0.399861
0.382186
0.374446
0.352927
1.41296
1.26527
1.14461
1.04568
0.961286
0.890806
0.828232
0.775114
0.726398
0.685108
0.645998
0.613217
0.580979
0.554562
0.527348
0.505866
0.482366
0.464851
0.444093
0.429888
0.411118
0.39976
0.382521
0.37286
0.354948
1.41296
1.26527
1.14461
1.04567
0.961288
0.890803
0.828235
0.775111
0.726402
0.685104
0.646003
0.613212
0.580985
0.554557
0.527354
0.50586
0.482374
0.464844
0.444101
0.429881
0.411116
0.39981
0.38222
0.374477
0.352695
1.41296
1.26527
1.14461
1.04568
0.961282
0.89081
0.828227
0.775119
0.726392
0.685114
0.64599
0.613225
0.580969
0.554572
0.527335
0.505879
0.48235
0.464868
0.444072
0.429912
0.411081
0.399843
0.382198
0.374453
0.352848
1.41296
1.26527
1.1446
1.04568
0.96128
0.890813
0.828223
0.775122
0.726387
0.685118
0.645984
0.613229
0.580963
0.554578
0.527329
0.505885
0.482343
0.464875
0.444064
0.429917
0.411082
0.399801
0.38246
0.372974
0.354861
1.41296
1.26527
1.14461
1.04568
0.961282
0.89081
0.828227
0.775119
0.726392
0.685114
0.64599
0.613224
0.58097
0.554571
0.527336
0.505878
0.482352
0.464866
0.444075
0.429907
0.411095
0.399788
0.382477
0.372937
0.354905
1.41296
1.26527
1.14461
1.04567
0.961288
0.890803
0.828235
0.77511
0.726402
0.685104
0.646003
0.613212
0.580985
0.554557
0.527354
0.50586
0.482374
0.464844
0.444101
0.42988
0.411127
0.399753
0.382529
0.372835
0.354987
1.41296
1.26526
1.14461
1.04567
0.961289
0.890801
0.828237
0.775108
0.726405
0.685101
0.646006
0.613209
0.580989
0.554553
0.527359
0.505856
0.482379
0.464838
0.444108
0.429873
0.411136
0.399743
0.382545
0.372805
0.355019
1.41296
1.26527
1.14461
1.04567
0.961287
0.890804
0.828234
0.775112
0.726401
0.685105
0.646001
0.613214
0.580983
0.554559
0.527352
0.505863
0.482371
0.464847
0.444098
0.429884
0.411123
0.399757
0.382524
0.372851
0.354963
1.41296
1.26527
1.14461
1.04568
0.961281
0.890812
0.828224
0.775122
0.726388
0.685118
0.645985
0.613229
0.580963
0.554578
0.527328
0.505887
0.482342
0.464877
0.444062
0.429921
0.411079
0.399808
0.382449
0.372989
0.354851
1.41296
1.26527
1.14461
1.04568
0.961284
0.890808
0.828229
0.775117
0.726394
0.685112
0.645993
0.613222
0.580972
0.554569
0.527339
0.505876
0.482354
0.464864
0.444077
0.429908
0.411086
0.39984
0.382199
0.374455
0.352838
1.41296
1.26527
1.14461
1.04567
0.961288
0.890803
0.828235
0.775111
0.726401
0.685105
0.646002
0.613213
0.580983
0.554559
0.527353
0.505862
0.482371
0.464847
0.444098
0.429886
0.411112
0.399814
0.38222
0.374476
0.352709
1.41296
1.26527
1.14461
1.04567
0.961287
0.890804
0.828234
0.775111
0.726401
0.685105
0.646001
0.613214
0.580983
0.554559
0.527352
0.505863
0.482371
0.464847
0.444097
0.429886
0.411112
0.399814
0.382219
0.374475
0.352711
1.41296
1.26527
1.14461
1.04568
0.961281
0.890812
0.828224
0.775121
0.726388
0.685117
0.645985
0.613229
0.580964
0.554578
0.527329
0.505886
0.482342
0.464877
0.444062
0.429922
0.41107
0.399854
0.38219
0.374447
0.352896
1.41296
1.26527
1.14461
1.04568
0.961282
0.890811
0.828226
0.775119
0.726391
0.685114
0.645989
0.613225
0.580968
0.554573
0.527335
0.505879
0.48235
0.464868
0.444073
0.429909
0.411092
0.39979
0.382475
0.372947
0.354889
1.41296
1.26527
1.14461
1.04568
0.961282
0.890811
0.828226
0.77512
0.72639
0.685115
0.645988
0.613226
0.580967
0.554574
0.527333
0.505882
0.482347
0.464871
0.444069
0.429914
0.411087
0.399798
0.382463
0.372965
0.354876
1.41296
1.26527
1.14461
1.04567
0.961287
0.890804
0.828233
0.775112
0.7264
0.685106
0.646001
0.613214
0.580983
0.554559
0.527352
0.505862
0.482371
0.464846
0.444099
0.429882
0.411125
0.399755
0.382526
0.372839
0.354981
1.41296
1.26527
1.14461
1.04568
0.961284
0.890807
0.82823
0.775116
0.726396
0.685112
0.645995
0.613223
0.580976
0.554571
0.527343
0.505879
0.482359
0.464868
0.444082
0.429911
0.4111
0.399796
0.382476
0.372952
0.354908
1.41296
1.26526
1.14461
1.04567
0.961291
0.890799
0.82824
0.775127
0.726422
0.685132
0.64603
0.613247
0.581017
0.554595
0.527389
0.5059
0.482409
0.464885
0.444136
0.42992
0.411162
0.399791
0.382566
0.372875
0.355004
1.41296
1.26527
1.1446
1.04566
0.961266
0.890785
0.828202
0.775092
0.726364
0.685084
0.64596
0.613192
0.580937
0.554538
0.527302
0.505843
0.482316
0.46483
0.444038
0.429871
0.411057
0.399753
0.382438
0.372901
0.354868
1.41296
1.26527
1.1446
1.04567
0.961266
0.890786
0.828201
0.775086
0.726359
0.685075
0.645953
0.613181
0.58093
0.554526
0.527295
0.50583
0.482309
0.464817
0.444032
0.429858
0.411052
0.39974
0.382434
0.372888
0.354865
1.41296
1.26526
1.1446
1.04566
0.961268
0.890783
0.828205
0.775082
0.726364
0.68507
0.645959
0.613174
0.580937
0.554517
0.527304
0.505819
0.48232
0.464803
0.444046
0.42984
0.411069
0.399716
0.382465
0.372817
0.354908
1.41296
1.26526
1.1446
1.04566
0.961268
0.890782
0.828206
0.775082
0.726365
0.685069
0.64596
0.613174
0.580938
0.554516
0.527305
0.505817
0.482322
0.4648
0.444049
0.429838
0.411064
0.399765
0.382172
0.374429
0.352653
1.41296
1.26526
1.1446
1.04566
0.961269
0.890781
0.828207
0.77508
0.726367
0.685067
0.645963
0.61317
0.580942
0.554511
0.52731
0.505812
0.482329
0.464793
0.444057
0.429829
0.411074
0.399754
0.382183
0.374436
0.352592
1.41296
1.26527
1.1446
1.04567
0.961263
0.89079
0.828196
0.775091
0.726353
0.68508
0.645945
0.613188
0.58092
0.554533
0.527283
0.50584
0.482295
0.464829
0.444015
0.429874
0.411023
0.399805
0.382143
0.3744
0.352845
1.41296
1.26527
1.1446
1.04567
0.961264
0.890789
0.828198
0.775089
0.726355
0.685078
0.645948
0.613185
0.580923
0.55453
0.527287
0.505836
0.4823
0.464823
0.444021
0.429865
0.411039
0.399749
0.382416
0.372915
0.354834
1.41296
1.26526
1.1446
1.04566
0.961268
0.890783
0.828205
0.775082
0.726364
0.68507
0.645959
0.613174
0.580937
0.554517
0.527303
0.505819
0.48232
0.464803
0.444046
0.429841
0.41106
0.399771
0.382166
0.374425
0.352689
1.41296
1.26526
1.1446
1.04566
0.96127
0.89078
0.828208
0.77508
0.726367
0.685067
0.645963
0.613171
0.580941
0.554513
0.527308
0.505815
0.482325
0.464798
0.444052
0.429834
0.411077
0.399707
0.382479
0.372799
0.354921
1.41296
1.26526
1.1446
1.04566
0.961268
0.890783
0.828205
0.775082
0.726364
0.68507
0.645958
0.613175
0.580936
0.554517
0.527303
0.505819
0.48232
0.464803
0.444046
0.429841
0.41106
0.39977
0.382167
0.374426
0.352683
1.41296
1.26526
1.1446
1.04566
0.961269
0.890782
0.828207
0.775081
0.726366
0.685068
0.645962
0.613171
0.58094
0.554513
0.527308
0.505813
0.482327
0.464795
0.444054
0.429831
0.411071
0.399757
0.382178
0.374434
0.352613
1.41296
1.26526
1.1446
1.04566
0.96127
0.890781
0.828207
0.77508
0.726367
0.685067
0.645962
0.613171
0.580941
0.554513
0.527308
0.505814
0.482326
0.464797
0.444052
0.429835
0.411068
0.399761
0.382177
0.374431
0.352634
1.41296
1.26526
1.1446
1.04566
0.961271
0.890779
0.828209
0.775078
0.726369
0.685065
0.645964
0.613169
0.580943
0.554511
0.527311
0.505812
0.482329
0.464795
0.444056
0.42983
0.411082
0.3997
0.382491
0.372783
0.354931
1.41296
1.26526
1.1446
1.04566
0.961271
0.890779
0.82821
0.775077
0.72637
0.685064
0.645966
0.613168
0.580945
0.554509
0.527313
0.50581
0.482331
0.464792
0.444059
0.429827
0.411086
0.399697
0.382494
0.37277
0.354952
1.41296
1.26526
1.1446
1.04566
0.96127
0.890781
0.828207
0.77508
0.726367
0.685067
0.645963
0.613171
0.580941
0.554512
0.527309
0.505813
0.482328
0.464795
0.444056
0.429829
0.411083
0.399698
0.382492
0.372772
0.354951
1.41296
1.26526
1.1446
1.04566
0.961269
0.890781
0.828207
0.77508
0.726366
0.685067
0.645962
0.613172
0.58094
0.554513
0.527308
0.505815
0.482325
0.464797
0.444052
0.429833
0.411077
0.399706
0.382479
0.37279
0.354936
1.41296
1.26526
1.1446
1.04566
0.961268
0.890782
0.828205
0.775082
0.726364
0.685069
0.645959
0.613174
0.580937
0.554517
0.527304
0.505819
0.482321
0.464802
0.444046
0.429841
0.41106
0.39977
0.382167
0.374425
0.352686
1.41296
1.26526
1.1446
1.04566
0.961268
0.890782
0.828206
0.775082
0.726365
0.685069
0.64596
0.613174
0.580938
0.554516
0.527305
0.505818
0.482322
0.464801
0.444048
0.429839
0.411063
0.399767
0.382172
0.374429
0.35266
1.41296
1.26527
1.1446
1.04566
0.961266
0.890786
0.828201
0.775087
0.726359
0.685076
0.645953
0.613184
0.58093
0.554529
0.527295
0.505835
0.482308
0.464824
0.44403
0.429868
0.411039
0.3998
0.382156
0.374411
0.352807
1.41296
1.26526
1.14461
1.04566
0.961275
0.890774
0.828215
0.775093
0.726391
0.685091
0.645995
0.613201
0.580979
0.554546
0.52735
0.505848
0.482369
0.46483
0.444096
0.429866
0.411112
0.399792
0.382216
0.374472
0.352645
1.41296
1.26526
1.1446
1.04565
0.96126
0.890765
0.828191
0.775064
0.726349
0.685049
0.645943
0.613152
0.580921
0.554493
0.527288
0.505794
0.482305
0.464776
0.444032
0.429813
0.411048
0.399741
0.382154
0.374412
0.352619
1.41296
1.26526
1.1446
1.04566
0.961258
0.890767
0.828188
0.77506
0.726342
0.685043
0.645934
0.613144
0.58091
0.554485
0.527276
0.505786
0.482293
0.464769
0.444019
0.429805
0.411045
0.399678
0.382448
0.372771
0.35489
1.41296
1.26526
1.1446
1.04566
0.961257
0.890769
0.828186
0.775062
0.726339
0.685045
0.64593
0.613146
0.580905
0.554487
0.527271
0.505788
0.482287
0.464771
0.444013
0.42981
0.411028
0.399739
0.382135
0.374395
0.352653
1.41296
1.26527
1.1446
1.04566
0.961252
0.890775
0.828179
0.775069
0.72633
0.685054
0.645918
0.613158
0.58089
0.554502
0.527252
0.505807
0.482264
0.464796
0.443985
0.429838
0.411003
0.399723
0.38238
0.372899
0.35478
1.41296
1.26526
1.1446
1.04566
0.961257
0.890769
0.828187
0.775061
0.72634
0.685044
0.64593
0.613146
0.580905
0.554487
0.527271
0.505789
0.482286
0.464773
0.444011
0.429813
0.411025
0.399742
0.382135
0.374393
0.352667
1.41296
1.26526
1.1446
1.04566
0.961258
0.890768
0.828188
0.77506
0.726342
0.685042
0.645933
0.613143
0.580909
0.554483
0.527275
0.505783
0.482293
0.464765
0.44402
0.4298
0.411048
0.399669
0.382459
0.372751
0.354904
1.41296
1.26526
1.1446
1.04566
0.961257
0.890768
0.828187
0.775061
0.726341
0.685043
0.645932
0.613144
0.580908
0.554485
0.527274
0.505785
0.482291
0.464767
0.444018
0.429802
0.411045
0.399674
0.38245
0.372754
0.354912
1.41296
1.26526
1.1446
1.04566
0.961255
0.890772
0.828183
0.775065
0.726335
0.685049
0.645924
0.613153
0.580897
0.554496
0.527259
0.505801
0.482272
0.464789
0.443993
0.429833
0.411002
0.399765
0.382119
0.374374
0.352777
1.41296
1.26526
1.1446
1.04566
0.961258
0.890767
0.828189
0.775059
0.726343
0.685041
0.645934
0.613142
0.58091
0.554482
0.527277
0.505782
0.482295
0.464763
0.444023
0.429797
0.411051
0.399667
0.382461
0.37274
0.354921
1.41296
1.26527
1.1446
1.04566
0.961252
0.890775
0.828179
0.775069
0.726329
0.685054
0.645917
0.613159
0.580889
0.554503
0.527251
0.505809
0.482262
0.464798
0.443982
0.429841
0.410998
0.399729
0.38237
0.372913
0.354771
1.41296
1.26526
1.1446
1.04566
0.961256
0.89077
0.828185
0.775063
0.726338
0.685045
0.645929
0.613147
0.580904
0.554487
0.52727
0.505788
0.482287
0.464771
0.444014
0.429808
0.41103
0.399735
0.38214
0.374398
0.352624
1.41296
1.26527
1.1446
1.04566
0.961254
0.890772
0.828182
0.775066
0.726334
0.68505
0.645923
0.613153
0.580896
0.554496
0.527259
0.5058
0.482272
0.464788
0.443993
0.429831
0.411004
0.399761
0.382124
0.374377
0.35275
1.41296
1.26526
1.1446
1.04566
0.961258
0.890767
0.828189
0.77506
0.726342
0.685042
0.645933
0.613143
0.580909
0.554484
0.527275
0.505784
0.482291
0.464767
0.444018
0.429803
0.411044
0.399676
0.382448
0.372766
0.354894
1.41296
1.26526
1.1446
1.04565
0.96126
0.890765
0.828191
0.775057
0.726345
0.685039
0.645938
0.613139
0.580914
0.554478
0.527281
0.505777
0.4823
0.464759
0.444028
0.429793
0.411055
0.399664
0.382463
0.372731
0.354937
1.41296
1.26526
1.1446
1.04566
0.961255
0.890771
0.828184
0.775064
0.726336
0.685048
0.645926
0.613151
0.5809
0.554493
0.527263
0.505796
0.482277