/*--------------------------------*- C++ -*----------------------------------*\
  =========                 |
  \\      /  F ield         | OpenFOAM: The Open Source CFD Toolbox
   \\    /   O peration     | Website:  https://openfoam.org
    \\  /    A nd           | Version:  12
     \\/     M anipulation  |
\*---------------------------------------------------------------------------*/
FoamFile
{
    format      ascii;
    class       surfaceScalarField;
    location    "300";
    object      phi;
}
// * * * * * * * * * * * * * * * * * * * * * * * * * * * * * * * * * * * * * //

dimensions      [0 3 -1 0 0 0 0];

internalField   nonuniform List<scalar> 
14050
(
1958.43
0.00340827
1.56211
1956.2
-0.00060454
2.23263
1953.79
-0.000536304
2.40993
1951.36
0.000506722
2.42852
1948.92
0.000443258
2.43917
1946.5
0.000128758
2.42455
1944.11
0.000223262
2.38715
1941.78
0.000139106
2.33626
1939.49
0.000537449
2.28414
1937.26
0.0026167
2.22597
1935.09
0.00422973
2.16894
1932.97
0.00457263
2.11386
1930.91
0.00324027
2.0589
1928.9
0.00115744
2.00488
1926.95
-0.0004883
1.95466
1925.04
-0.00285025
1.90784
1923.2
-0.00417181
1.8511
1921.4
-0.00456804
1.80141
1919.65
-0.00436647
1.75589
1917.94
-0.00398812
1.71344
1916.27
-0.00344908
1.67241
1914.64
-0.0027303
1.63113
1913.06
-0.00164038
1.58109
1911.53
-0.000134618
1.53082
-0.00162394
1.34687
1958.44
0.000678321
1.56708
1956.2
0.000499508
2.23536
1953.79
-0.0001849
2.41109
1951.36
5.31748e-05
2.42861
1948.92
0.000271342
2.43891
1946.5
0.000240101
2.42434
1944.11
-0.000179576
2.38662
1941.77
0.000260539
2.33788
1939.49
0.000577174
2.28487
1937.27
-0.00103801
2.2257
1935.11
-0.00203154
2.16108
1933.01
-0.00136589
2.10488
1930.97
-0.00189117
2.05099
1928.97
-0.00230051
1.99911
1927.02
0.00110824
1.95127
1925.11
0.00401275
1.90266
1923.24
0.000951763
1.85921
1921.43
-0.00169729
1.80883
1919.67
-0.00260296
1.76215
1917.95
-0.00270913
1.71863
1916.27
-0.00267505
1.67649
1914.64
-0.00235346
1.63427
1913.05
-0.00151759
1.58321
1911.52
-0.000332771
1.53258
0.000643761
1.34285
1958.43
0.000109226
1.56643
1956.2
0.000114286
2.23541
1953.79
-0.000168624
2.41153
1951.36
-6.68356e-05
2.42868
1948.92
0.000172179
2.43896
1946.5
0.000272414
2.42421
1944.11
0.000495592
2.38682
1941.77
-0.00023246
2.3346
1939.49
-0.00108142
2.28209
1937.27
-0.000805251
2.22468
1935.1
-0.00083973
2.16666
1932.99
-0.000230276
2.11055
1930.93
0.000715927
2.05756
1928.92
0.00201903
2.00526
1926.96
0.00279171
1.95369
1925.06
0.00145367
1.90684
1923.21
-0.000978395
1.8521
1921.41
-0.00256575
1.804
1919.65
-0.00307849
1.75868
1917.93
-0.00319338
1.71592
1916.26
-0.00341043
1.67441
1914.63
-0.00367517
1.63262
1913.05
-0.0017826
1.58155
1911.52
0.000682893
1.53009
0.000826393
1.34707
1958.43
-4.94678e-05
1.56626
1956.2
-2.41276e-05
2.23514
1953.79
-9.03246e-05
2.41128
1951.36
-1.64664e-05
2.42856
1948.92
0.000102966
2.43885
1946.5
0.000311375
2.42429
1944.11
0.000615278
2.3866
1941.77
0.00120543
2.33802
1939.48
0.00365064
2.28601
1937.25
0.00517209
2.22534
1935.07
0.0042592
2.16782
1932.96
0.00214927
2.11157
1930.9
-0.00119685
2.0579
1928.9
-0.00500082
2.00709
1926.97
-0.00694952
1.94712
1925.08
-0.00638425
1.89608
1923.23
-0.00503821
1.84878
1921.43
-0.00374279
1.80306
1919.67
-0.00235968
1.7593
1917.95
-0.000981626
1.71755
1916.27
0.000551076
1.67651
1914.63
0.00216302
1.63426
1913.04
0.00167279
1.58896
1911.5
0.000138344
1.53715
1.42998e-05
1.34722
1958.43
-9.79242e-05
1.56623
1956.2
-8.79161e-05
2.23507
1953.79
-8.68309e-05
2.41127
1951.36
-5.76912e-05
2.42858
1948.92
4.0444e-05
2.43889
1946.5
0.000131374
2.42431
1944.11
0.000537465
2.38641
1941.77
0.00173054
2.33771
1939.49
0.00223835
2.28331
1937.27
0.00113453
2.22011
1935.12
-0.000240707
2.16234
1933.01
-0.000844454
2.10652
1930.96
-0.00181924
2.05502
1928.95
-0.00250917
2.00463
1926.99
-0.00357257
1.95392
1925.08
-0.00516517
1.90864
1923.23
-0.00388779
1.85554
1921.42
-0.00234962
1.80747
1919.65
-0.00110384
1.76185
1917.94
-5.16996e-05
1.71853
1916.26
0.00103787
1.67634
1914.62
0.00194961
1.63381
1913.04
0.00245813
1.5821
1911.51
0.0022759
1.5302
0.000327977
1.34719
1958.43
-0.000126065
1.56621
1956.2
-0.000129665
2.23504
1953.79
-0.000127253
2.41124
1951.36
-0.000114985
2.42857
1948.92
-8.06494e-05
2.43885
1946.5
-7.78148e-05
2.4243
1944.11
-4.28701e-05
2.38548
1941.78
6.27808e-05
2.33562
1939.5
3.90475e-05
2.27863
1937.28
-0.000276801
2.22185
1935.12
-0.000520842
2.16425
1933.01
-0.000344686
2.10865
1930.95
-0.000171553
2.05719
1928.94
-0.000321649
2.00688
1926.98
-0.000675339
1.95597
1925.07
-0.00140491
1.90589
1923.21
-0.00219251
1.86203
1921.4
-0.00279838
1.81064
1919.64
-0.00300554
1.76305
1917.92
-0.00286933
1.7183
1916.25
-0.00241827
1.67475
1914.62
-0.00189882
1.63126
1913.05
-0.000974605
1.57909
1911.52
0.000237723
1.52784
0.000564836
1.33946
1958.43
-0.000147203
1.56621
1956.2
-0.000158846
2.23504
1953.79
-0.000168903
2.41122
1951.36
-0.000189679
2.42857
1948.92
-0.000198647
2.43885
1946.5
-0.000319611
2.4243
1944.11
-0.000671105
2.3855
1941.78
-0.00162862
2.33569
1939.5
-0.00223249
2.27883
1937.28
-0.00162224
2.2221
1935.12
-0.000319179
2.16469
1933.01
0.000854438
2.10911
1930.95
0.00167567
2.05776
1928.93
0.00328548
2.00749
1926.97
0.00471473
1.95625
1925.06
0.00217771
1.90649
1923.2
-0.00202856
1.86214
1921.39
-0.00406089
1.81001
1919.63
-0.00496309
1.76234
1917.92
-0.00521869
1.71761
1916.24
-0.00502153
1.67414
1914.62
-0.0047139
1.63084
1913.04
-0.00397788
1.57905
1911.51
-0.00138397
1.52782
0.00100686
1.33969
1958.43
-0.000161341
1.56622
1956.2
-0.0001912
2.23504
1953.79
-0.000207217
2.41123
1951.36
-0.000243392
2.42858
1948.92
-0.000314466
2.43884
1946.5
-0.000507275
2.42427
1944.11
-0.000477699
2.38651
1941.77
-0.000375477
2.33749
1939.49
-0.000334555
2.28001
1937.26
0.00100243
2.22353
1935.09
0.00299571
2.16614
1932.98
0.00401506
2.1101
1930.92
0.00502449
2.05796
1928.91
0.0050632
2.00684
1926.96
0.00170077
1.95783
1925.06
-0.0024117
1.90329
1923.2
-0.00442568
1.85582
1921.39
-0.004431
1.8089
1919.63
-0.00432049
1.76364
1917.91
-0.00371865
1.72034
1916.23
-0.00275556
1.67765
1914.59
-0.00113414
1.63456
1913
0.00114012
1.58204
1911.47
0.00153177
1.53512
0.000482502
1.34983
1958.43
-0.0001627
1.56621
1956.2
-0.00020462
2.23503
1953.79
-0.000226316
2.41122
1951.36
-0.000302701
2.42859
1948.92
-0.000384171
2.43882
1946.5
-0.000606659
2.42436
1944.11
-0.00122414
2.38611
1941.78
-0.00236366
2.33659
1939.5
-0.00403956
2.28215
1937.28
-0.00389513
2.21913
1935.13
-0.000757373
2.16108
1933.02
0.00296287
2.10504
1930.97
0.00591248
2.05362
1928.96
0.00742873
2.0028
1927.01
0.0066233
1.95208
1925.09
0.00358295
1.9061
1923.23
0.00146162
1.85918
1921.41
-0.00141695
1.81766
1919.64
-0.00453824
1.76954
1917.92
-0.00552809
1.72322
1916.24
-0.0055164
1.67836
1914.61
-0.00468985
1.63353
1913.03
-0.00290383
1.58045
1911.51
-0.00104484
1.52682
0.000288415
1.34264
1958.43
-0.000150022
1.56622
1956.2
-0.000201995
2.23504
1953.79
-0.000234375
2.41122
1951.36
-0.000307042
2.42861
1948.92
-0.000440818
2.43884
1946.5
-0.000632958
2.42432
1944.11
-0.00115829
2.38649
1941.77
-0.00219397
2.33766
1939.49
-0.0035795
2.28408
1937.26
-0.0055085
2.22643
1935.1
-0.00662044
2.16552
1933.01
-0.00531867
2.10105
1930.97
-0.00133345
2.04728
1928.98
0.00306403
1.99553
1927.03
0.00614785
1.94597
1925.13
0.00662039
1.90216
1923.27
0.00544666
1.85876
1921.45
0.00375374
1.81369
1919.67
0.00232892
1.7687
1917.93
-0.000665423
1.73141
1916.25
-0.00398177
1.68637
1914.61
-0.00521674
1.64008
1913.02
-0.00492557
1.58522
1911.5
-0.00334598
1.52993
-0.000598561
1.34456
1958.43
-0.000124452
1.56622
1956.2
-0.000170152
2.23505
1953.79
-0.000224494
2.41122
1951.36
-0.00026932
2.42862
1948.92
-0.000368785
2.43889
1946.5
-0.0005765
2.42435
1944.11
-0.000781822
2.38668
1941.77
-0.00141461
2.33855
1939.48
-0.00148755
2.2855
1937.25
-0.00144898
2.22868
1935.08
-0.00303357
2.16895
1932.96
-0.00535008
2.11123
1930.91
-0.00670544
2.0555
1928.93
-0.0048049
1.99361
1926.99
-0.000649292
1.94115
1925.1
0.00224441
1.896
1923.25
0.00360878
1.85229
1921.44
0.00408394
1.80777
1919.68
0.00403131
1.76475
1917.95
0.00342491
1.723
1916.26
0.00253559
1.68075
1914.62
-0.000206503
1.64355
1913.02
-0.00263452
1.58934
1911.49
-0.00286179
1.53404
-0.00101427
1.34825
1958.43
-8.64811e-05
1.56623
1956.2
-0.000145992
2.23505
1953.79
-0.000165853
2.41125
1951.36
-0.000189605
2.42864
1948.92
-0.000241171
2.43889
1946.49
-0.000197754
2.42446
1944.11
-0.000275056
2.38674
1941.77
-0.000170642
2.33902
1939.48
-0.000784256
2.28349
1937.26
-0.00100268
2.22713
1935.08
-0.000328964
2.16902
1932.97
-3.26164e-05
2.11317
1930.9
-0.000261993
2.05946
1928.89
-0.000270853
2.00481
1926.94
-0.00115743
1.95401
1925.04
-0.00116818
1.9
1923.19
-8.94523e-05
1.85366
1921.39
0.00128274
1.80723
1919.62
0.00242826
1.76267
1917.9
0.00292419
1.72044
1916.23
0.00249395
1.67901
1914.59
0.00132537
1.63651
1913
0.00158231
1.5837
1911.46
0.000758396
1.53597
-0.000178066
1.35015
1958.43
-4.44695e-05
1.56622
1956.2
-8.85992e-05
2.23506
1953.79
-0.00012556
2.41125
1951.36
-9.1345e-05
2.42864
1948.92
-0.000108963
2.43894
1946.49
-4.24137e-05
2.42444
1944.11
0.000109375
2.38693
1941.77
0.000192136
2.33875
1939.48
0.00132365
2.28717
1937.25
0.00356487
2.22681
1935.07
0.00408463
2.16919
1932.96
0.00253884
2.11235
1930.9
-0.000734436
2.0576
1928.9
-0.00497024
2.00401
1926.97
-0.00776233
1.94366
1925.08
-0.00725829
1.89648
1923.23
-0.0042775
1.8512
1921.43
-0.00137787
1.80547
1919.67
0.00093343
1.76142
1917.95
0.002518
1.7193
1916.27
0.00390823
1.6778
1914.63
0.00492497
1.63502
1913.04
0.00300497
1.58901
1911.5
0.00121974
1.53563
0.000594519
1.3459
1958.43
-7.14906e-06
1.56623
1956.2
-4.54514e-05
2.23507
1953.79
-3.64437e-05
2.41129
1951.36
-3.19064e-05
2.42864
1948.92
7.26515e-05
2.43898
1946.49
5.89889e-05
2.4245
1944.11
0.000304932
2.38688
1941.77
0.000354252
2.33846
1939.48
0.000192943
2.28636
1937.26
-0.000804057
2.22718
1935.11
-0.00278845
2.16208
1933.01
-0.00400279
2.10555
1930.96
-0.00448263
2.05285
1928.96
-0.00412801
2.00042
1927
-0.00370479
1.94965
1925.1
-0.0023308
1.90244
1923.23
-0.00170249
1.86188
1921.42
-0.000483335
1.81256
1919.65
0.000969014
1.76551
1917.93
0.00241314
1.72107
1916.25
0.00374487
1.6779
1914.62
0.00508772
1.63468
1913.03
0.00527948
1.58175
1911.5
0.00230999
1.53416
8.09591e-05
1.34835
1958.43
1.65346e-05
1.56624
1956.2
-1.88778e-05
2.23507
1953.79
3.20534e-06
2.41128
1951.36
9.34048e-05
2.42865
1948.92
0.000110124
2.43892
1946.49
0.000350943
2.42451
1944.11
0.000696449
2.38675
1941.77
0.00148275
2.33891
1939.48
0.001938
2.28295
1937.25
0.00204562
2.22597
1935.08
0.00259345
2.16782
1932.96
0.00260617
2.11287
1930.89
0.00176045
2.06094
1928.88
0.000405794
2.00698
1926.93
-0.00175873
1.95407
1925.02
-0.00289415
1.90522
1923.17
-0.00259682
1.85728
1921.36
-0.00208744
1.80931
1919.6
-0.00046041
1.76316
1917.88
0.00114725
1.71912
1916.2
0.00245765
1.67627
1914.57
0.00344512
1.63322
1912.99
0.00423646
1.58136
1911.46
0.00345282
1.5289
0.00053589
1.34605
1958.43
9.1164e-06
1.56624
1956.2
-2.54297e-05
2.23509
1953.79
7.4967e-05
2.41131
1951.36
0.000111385
2.42863
1948.92
0.000146956
2.43897
1946.5
0.000304507
2.4245
1944.11
0.000765284
2.38672
1941.77
0.00234074
2.33846
1939.48
0.00381359
2.28557
1937.25
0.00237108
2.2273
1935.09
-0.000383444
2.1642
1932.99
-0.00211665
2.10727
1930.94
-0.00262193
2.05385
1928.94
-0.00208181
2.00069
1926.99
-0.0023001
1.95011
1925.09
-0.00106018
1.90422
1923.22
0.00259054
1.8578
1921.41
0.00566839
1.81014
1919.63
0.00624021
1.77046
1917.9
0.00550475
1.72478
1916.22
0.00447194
1.68013
1914.58
0.00345301
1.63563
1913
0.00243243
1.58259
1911.47
0.000624615
1.53072
-0.0005923
1.34199
1958.43
-0.000124107
1.56628
1956.2
-0.000133696
2.23515
1953.79
0.00019725
2.41132
1951.36
0.000145544
2.4286
1948.92
4.88929e-05
2.43894
1946.5
0.000130098
2.42445
1944.11
0.000230029
2.38568
1941.78
0.000442962
2.33599
1939.5
0.000266618
2.27914
1937.28
-0.000665075
2.22236
1935.12
-0.00151863
2.16493
1933.01
-0.00160992
2.1098
1930.95
-0.000381049
2.05693
1928.94
0.00132822
2.00374
1926.98
0.0021501
1.95405
1925.07
0.00314109
1.90663
1923.21
0.00362216
1.8629
1921.4
0.00375743
1.811
1919.64
0.00334862
1.76252
1917.92
0.00234408
1.71748
1916.25
0.00112431
1.67403
1914.63
-2.87148e-05
1.63081
1913.05
-0.000365293
1.57886
1911.52
-0.000196121
1.52772
0.000195031
1.33963
1958.43
-0.000680762
1.56644
1956.2
-0.000509495
2.23543
1953.79
0.000223896
2.41154
1951.36
-1.12735e-05
2.4287
1948.92
-0.000165748
2.439
1946.5
-7.81937e-05
2.42445
1944.11
-0.000222356
2.38569
1941.78
-0.00107204
2.33596
1939.5
-0.00309358
2.27924
1937.28
-0.00387065
2.22301
1935.12
-0.00295017
2.16582
1933.01
-0.00167751
2.11098
1930.95
0.00139639
2.05746
1928.94
0.00488496
2.0033
1926.98
0.00732789
1.95371
1925.07
0.00770133
1.90617
1923.21
0.00518908
1.86179
1921.4
0.00321902
1.80939
1919.64
0.00166842
1.76115
1917.92
0.00034949
1.71644
1916.25
-0.00122349
1.67348
1914.62
-0.0030218
1.63078
1913.05
-0.00256503
1.57899
1911.52
-0.000939019
1.52811
0.00128542
1.33998
1958.44
-0.00340499
1.56708
1956.2
0.000613286
2.23538
1953.79
0.0005463
2.41107
1951.36
-0.000470595
2.42864
1948.92
-0.000400714
2.43894
1946.5
-7.5733e-05
2.42434
1944.11
-0.000181985
2.38674
1941.77
0.000678928
2.33803
1939.48
0.00171208
2.28595
1937.25
0.0010171
2.22559
1935.08
0.000505511
2.16874
1932.96
0.00026339
2.11339
1930.91
-0.00120945
2.05756
1928.91
-0.00339886
2.00309
1926.98
-0.00161485
1.9449
1925.08
0.00169167
1.89773
1923.24
0.00275667
1.85034
1921.43
0.00297257
1.80322
1919.67
0.00298783
1.75873
1917.95
0.00282488
1.71671
1916.27
0.00277448
1.67566
1914.63
0.00263885
1.63347
1913.04
0.000892198
1.58818
1911.51
-0.00100763
1.53625
0.00101665
1.34658
1958.43
1.56212
1956.2
2.23266
1953.79
2.40993
1951.36
2.42855
1948.92
2.4392
1946.5
2.42453
1944.11
2.38736
1941.78
2.33522
1939.5
2.28268
1937.27
2.22596
1935.1
2.16846
1932.99
2.11277
1930.93
2.05874
1928.92
2.00384
1926.97
1.95188
1925.07
1.9072
1923.21
1.85349
1921.41
1.80407
1919.66
1.75795
1917.95
1.71473
1916.28
1.67311
1914.65
1.63131
1913.07
1.58029
1911.54
1.52944
1.34604
1960.94
-0.00122866
0.622732
1961.7
-0.0027109
1.48048
1962.26
-0.00192382
1.84917
1962.64
-0.000756942
2.04977
1962.91
-0.000334286
2.16525
1963.12
-0.000242007
2.22156
1963.26
-6.49139e-05
2.23871
1963.37
-0.00034728
2.23417
1963.43
2.86851e-05
2.21962
1963.46
0.000600524
2.1949
1963.46
0.00230807
2.16567
1963.44
0.00246772
2.13277
1963.4
0.00287108
2.09935
1963.33
0.00348777
2.06566
1963.25
0.00303364
2.03215
1963.16
0.00267047
1.99764
1963.06
-0.000937424
1.95661
1962.94
-0.00140921
1.91778
1962.82
-0.00158639
1.88222
1962.68
-0.00186363
1.84925
1962.54
-0.00211421
1.81688
1962.39
-0.00243053
1.78468
1962.23
-0.00259601
1.74442
1962.05
-0.0021105
1.71547
-0.000442797
1.58876
1960.94
-0.000145793
0.621903
1961.7
-0.00113018
1.47956
1962.26
-0.0011905
1.8484
1962.64
-0.000786323
2.04897
1962.91
-0.000350411
2.16468
1963.12
-9.30848e-05
2.22125
1963.27
0.000103516
2.23853
1963.37
0.00115786
2.23454
1963.43
0.00129581
2.21982
1963.46
0.000862445
2.19459
1963.46
-0.00109105
2.16316
1963.44
-0.00193353
2.12984
1963.4
-0.000573344
2.09643
1963.34
0.000994999
2.063
1963.26
-0.000331886
2.03042
1963.17
-0.00198212
1.99703
1963.07
0.00195621
1.95965
1962.95
0.00248133
1.92111
1962.83
0.00157804
1.88539
1962.69
0.00041719
1.85209
1962.55
-0.000628862
1.81931
1962.39
-0.00162073
1.78671
1962.23
-0.00250761
1.74618
1962.05
-0.00231691
1.71669
-0.00225785
1.58902
1960.94
-7.47676e-05
0.622164
1961.7
-0.000349918
1.47979
1962.26
-0.000461053
1.84872
1962.64
-0.000303598
2.04882
1962.91
-9.57034e-05
2.16448
1963.12
9.41615e-07
2.22106
1963.27
-1.18019e-05
2.23835
1963.37
-0.000782416
2.23359
1963.43
-0.000553063
2.21896
1963.47
0.000503069
2.1943
1963.47
0.000127493
2.16531
1963.44
-0.000492401
2.13318
1963.4
-0.00061136
2.09831
1963.34
-0.000558741
2.06308
1963.26
0.00118237
2.03202
1963.17
0.00202095
1.99945
1963.06
0.00104765
1.9573
1962.95
0.00037958
1.91781
1962.83
-0.000466781
1.8827
1962.7
-0.00113021
1.85011
1962.55
-0.00145935
1.81795
1962.4
-0.00185571
1.78587
1962.24
-0.00380207
1.7459
1962.05
-0.00361658
1.71667
-0.00111403
1.58981
1960.94
-8.40164e-05
0.622203
1961.7
-0.000150295
1.47996
1962.26
-0.000208302
1.84883
1962.64
-0.000153284
2.04898
1962.91
-3.50867e-05
2.16458
1963.12
0.000147782
2.22114
1963.27
0.000503551
2.23845
1963.37
0.000861749
2.23445
1963.43
0.00197737
2.21962
1963.46
0.00267131
2.19424
1963.46
0.00257084
2.16525
1963.44
0.00239559
2.13328
1963.39
0.00198592
2.09824
1963.34
0.0011677
2.06242
1963.26
-0.00271053
2.02915
1963.17
-0.00547561
1.99603
1963.07
-0.00565379
1.95582
1962.96
-0.00506258
1.91766
1962.84
-0.00426249
1.8834
1962.7
-0.0034429
1.85147
1962.56
-0.00249076
1.81963
1962.41
-0.00129459
1.78771
1962.24
0.00164722
1.74912
1962.05
0.00279677
1.71954
0.00124491
1.59055
1960.94
-0.000103309
0.622216
1961.7
-0.000118361
1.48002
1962.26
-0.000127287
1.84889
1962.64
-9.64905e-05
2.04903
1962.92
5.82832e-06
2.16458
1963.12
0.000209156
2.22106
1963.27
0.000823388
2.23817
1963.37
0.00157204
2.23411
1963.43
0.00242357
2.21865
1963.46
0.000817288
2.19235
1963.46
0.000662264
2.16316
1963.44
0.000297295
2.13131
1963.4
-0.000278816
2.097
1963.35
-0.00108061
2.06233
1963.27
-0.00211474
2.03222
1963.17
-0.00176153
2.00076
1963.07
-0.00549127
1.95938
1962.96
-0.00519893
1.92003
1962.83
-0.00421476
1.88473
1962.7
-0.00317695
1.85184
1962.56
-0.00191238
1.81931
1962.4
-0.000601446
1.78683
1962.24
0.000863028
1.74645
1962.05
0.00187543
1.71684
0.00278409
1.5898
1960.94
-0.00012662
0.622217
1961.7
-0.000137556
1.48004
1962.26
-0.000133346
1.84889
1962.64
-0.000124675
2.04905
1962.92
-0.000105663
2.16456
1963.12
-9.28578e-05
2.22094
1963.27
-5.77626e-05
2.23765
1963.37
7.83238e-05
2.23322
1963.44
0.000222117
2.21692
1963.47
-1.87092e-05
2.19233
1963.47
8.27346e-05
2.1634
1963.44
8.75417e-05
2.13193
1963.4
-0.000144158
2.09783
1963.35
-0.000326979
2.0633
1963.27
-0.000544411
2.03317
1963.17
-0.000589732
2.00082
1963.07
-0.0016136
1.96195
1962.95
-0.00237801
1.92216
1962.83
-0.00286678
1.88615
1962.69
-0.00303542
1.85256
1962.55
-0.00276434
1.81944
1962.4
-0.00228054
1.78645
1962.23
-0.0018209
1.74554
1962.05
-0.00130588
1.71564
-0.000406865
1.58763
1960.94
-0.000146604
0.62222
1961.7
-0.000164784
1.48005
1962.26
-0.000165958
1.84889
1962.64
-0.000184551
2.04906
1962.92
-0.000238664
2.16457
1963.12
-0.000407765
2.22096
1963.27
-0.000953271
2.23765
1963.37
-0.00134359
2.23316
1963.44
-0.00130876
2.21671
1963.47
-0.000868765
2.19229
1963.47
-0.00035403
2.16331
1963.44
0.000500748
2.13202
1963.4
0.00115738
2.09823
1963.35
0.000582866
2.06353
1963.27
-0.000428866
2.03331
1963.17
0.00219008
2.00131
1963.07
0.00364027
1.96289
1962.95
0.000263875
1.92275
1962.82
-0.00218904
1.88643
1962.69
-0.00377824
1.8526
1962.55
-0.00432693
1.81924
1962.39
-0.0041407
1.78604
1962.23
-0.00372695
1.74502
1962.05
-0.00411904
1.71535
-0.00291147
1.58755
1960.94
-0.000157821
0.622226
1961.7
-0.000184295
1.48005
1962.26
-0.000198448
1.84891
1962.64
-0.000229439
2.04908
1962.92
-0.000293202
2.16461
1963.12
-0.000450531
2.22108
1963.27
-0.000694595
2.23815
1963.37
-0.00115715
2.23381
1963.43
-0.00217974
2.21741
1963.46
-0.000601432
2.1931
1963.47
0.00044347
2.16403
1963.44
0.00210138
2.13212
1963.4
0.00323173
2.09758
1963.34
0.00407921
2.06345
1963.26
0.00523543
2.03405
1963.16
0.00331601
1.99936
1963.06
0.000983096
1.95947
1962.95
-0.00372905
1.92187
1962.83
-0.00536022
1.88737
1962.7
-0.00629547
1.85485
1962.56
-0.00607752
1.82225
1962.4
-0.00516479
1.78928
1962.24
-0.00354916
1.7482
1962.05
0.000497995
1.71952
0.00156005
1.59112
1960.94
-0.000159079
0.62223
1961.7
-0.000198482
1.48006
1962.26
-0.000222136
1.84891
1962.64
-0.000275604
2.04909
1962.92
-0.000379712
2.16463
1963.12
-0.000580351
2.22114
1963.27
-0.00107362
2.23827
1963.37
-0.00183317
2.23416
1963.43
-0.00302539
2.21863
1963.46
-0.00454602
2.19243
1963.47
-0.00311663
2.1628
1963.44
0.000153265
2.13007
1963.4
0.00210648
2.09532
1963.34
0.00398787
2.06132
1963.27
0.00520508
2.0317
1963.17
0.00539424
1.99913
1963.06
0.00455901
1.96066
1962.95
0.00423139
1.92523
1962.82
0.00168961
1.8903
1962.68
-0.00267067
1.85685
1962.54
-0.00447213
1.82298
1962.38
-0.00533906
1.78885
1962.22
-0.00500499
1.74673
1962.03
-0.00353972
1.71586
-0.00157634
1.58815
1960.94
-0.000145557
0.622236
1961.7
-0.000194979
1.48007
1962.26
-0.000229293
1.84892
1962.64
-0.000287234
2.04912
1962.91
-0.000400015
2.16468
1963.12
-0.000594001
2.22125
1963.27
-0.000915622
2.23862
1963.37
-0.00145805
2.23482
1963.43
-0.00194878
2.22
1963.46
-0.00277886
2.19534
1963.46
-0.00350899
2.16429
1963.44
-0.00478068
2.12897
1963.4
-0.00358005
2.09324
1963.34
-0.000360974
2.05858
1963.26
0.00158682
2.02847
1963.17
0.00345084
1.99609
1963.07
0.00485105
1.95905
1962.96
0.00545347
1.92393
1962.83
0.00461562
1.89057
1962.7
0.00494509
1.85996
1962.55
0.00277354
1.8267
1962.39
-0.00154628
1.79266
1962.23
-0.00364368
1.74998
1962.04
-0.0050204
1.71808
-0.00371648
1.58896
1960.94
-0.000120016
0.622243
1961.7
-0.000170612
1.48008
1962.26
-0.000208945
1.84893
1962.64
-0.000255776
2.04915
1962.91
-0.00033085
2.16475
1963.12
-0.000469446
2.22139
1963.26
-0.000569403
2.2389
1963.37
-0.000750552
2.23536
1963.43
-0.000220927
2.22067
1963.46
-0.000247273
2.19659
1963.46
-0.00099779
2.16651
1963.44
-0.00168514
2.1323
1963.4
-0.00249637
2.09512
1963.34
-0.0049035
2.05761
1963.26
-0.00467183
2.02633
1963.17
-0.00155691
1.9929
1963.07
0.000338197
1.95526
1962.96
0.00193327
1.9201
1962.84
0.00285972
1.88737
1962.71
0.0035374
1.85639
1962.56
0.00321521
1.82474
1962.41
0.00364481
1.79381
1962.24
0.00157388
1.75222
1962.05
-0.00204289
1.72087
-0.00217116
1.59119
1960.94
-8.21075e-05
0.622251
1961.7
-0.00013289
1.48009
1962.26
-0.000164091
1.84895
1962.64
-0.000183873
2.04917
1962.91
-0.000217944
2.1648
1963.12
-0.000228549
2.2215
1963.26
-0.0003079
2.23903
1963.37
-0.000460214
2.23556
1963.43
-0.00145518
2.22027
1963.46
-0.000259076
2.19645
1963.46
-2.27074e-05
2.16714
1963.44
-0.000466758
2.13391
1963.4
-0.000753449
2.09802
1963.34
-0.00117252
2.06295
1963.26
0.00119676
2.03154
1963.16
-0.000321489
1.99521
1963.06
-0.00108943
1.95586
1962.95
-0.00056517
1.91954
1962.83
0.000275302
1.88609
1962.7
0.00135418
1.85465
1962.55
0.00223456
1.82299
1962.4
0.0025626
1.79089
1962.24
0.000289624
1.75029
1962.05
0.000627667
1.72141
0.00088598
1.59199
1960.94
-4.28454e-05
0.622253
1961.7
-8.68486e-05
1.4801
1962.26
-0.000108163
1.84896
1962.64
-0.000100981
2.04919
1962.91
-8.41231e-05
2.16483
1963.12
-2.92274e-05
2.22152
1963.26
9.45738e-05
2.2391
1963.37
0.000221789
2.23566
1963.43
0.000343808
2.22127
1963.46
0.000175315
2.19618
1963.46
0.00225698
2.16661
1963.44
0.00245327
2.13338
1963.4
0.0017836
2.0971
1963.34
0.00110054
2.06145
1963.25
-0.00189112
2.02793
1963.16
-0.00404496
1.99339
1963.06
-0.00665035
1.95479
1962.96
-0.00553116
1.91875
1962.84
-0.00352155
1.88559
1962.7
-0.0012927
1.8543
1962.56
0.000581256
1.82273
1962.4
0.0022845
1.7907
1962.24
0.00503967
1.75167
1962.05
0.0038349
1.72178
0.0012527
1.59138
1960.94
-4.64469e-06
0.622257
1961.7
-3.30024e-05
1.4801
1962.26
-3.00977e-05
1.84898
1962.64
-8.55086e-06
2.04919
1962.91
5.6513e-05
2.16483
1963.12
0.00014487
2.22151
1963.26
0.000323836
2.23901
1963.37
0.000492896
2.23547
1963.43
0.0015767
2.22114
1963.46
0.000997884
2.19601
1963.46
-0.000637377
2.16411
1963.44
-0.00113763
2.13074
1963.4
-0.00179691
2.09545
1963.35
-0.0028556
2.06067
1963.27
-0.00379029
2.02997
1963.17
-0.00373208
1.99748
1963.07
-0.00167489
1.96048
1962.95
-0.00141963
1.92282
1962.83
-0.00138859
1.88789
1962.7
-0.000372224
1.85489
1962.55
0.00074779
1.82205
1962.4
0.00200997
1.78903
1962.23
0.0036595
1.74815
1962.04
0.005473
1.71937
0.00320554
1.59055
1960.94
2.34871e-05
0.622255
1961.7
2.15691e-05
1.48009
1962.26
5.14279e-05
1.84897
1962.64
0.000101908
2.04917
1962.91
0.000163471
2.16478
1963.12
0.000338282
2.22145
1963.27
0.0006093
2.23888
1963.37
0.000934624
2.23528
1963.43
0.00041329
2.21984
1963.46
0.000295526
2.19581
1963.46
0.00089882
2.1661
1963.44
0.000859093
2.13337
1963.4
0.000492068
2.09816
1963.34
-0.000295022
2.06347
1963.26
-0.000426344
2.03251
1963.16
-0.000503723
1.99874
1963.06
-0.000876535
1.95947
1962.95
-0.000965749
1.92181
1962.82
-0.00218867
1.88731
1962.69
-0.00103868
1.85449
1962.54
0.000414035
1.82175
1962.39
0.00172776
1.7889
1962.22
0.00308748
1.7479
1962.04
0.00404554
1.71798
0.00400783
1.59032
1960.94
4.25093e-05
0.622248
1961.7
0.000103446
1.48007
1962.26
0.000194611
1.84894
1962.64
0.00022622
2.04912
1962.91
0.000279412
2.16473
1963.12
0.000493816
2.22132
1963.27
0.00114208
2.23862
1963.37
0.00198179
2.23486
1963.43
0.003097
2.22007
1963.46
0.00239759
2.19561
1963.46
0.000243982
2.16445
1963.44
-0.00074944
2.13103
1963.4
-0.00167875
2.09582
1963.34
-0.00269253
2.06176
1963.26
-0.00228926
2.03144
1963.17
-0.00178777
1.99852
1963.07
-0.00307613
1.96027
1962.95
-0.00117273
1.92318
1962.83
0.00266809
1.89012
1962.69
0.00398702
1.85668
1962.55
0.00442403
1.82288
1962.39
0.00439175
1.78895
1962.22
0.00433993
1.7471
1962.04
0.0042539
1.71646
0.00298586
1.58774
1960.94
5.88376e-05
0.62223
1961.7
0.000332636
1.48
1962.26
0.000475635
1.84887
1962.64
0.000374396
2.04904
1962.91
0.000256816
2.16465
1963.12
0.000259015
2.22114
1963.27
0.000329733
2.23801
1963.37
0.000390755
2.23385
1963.43
0.000325199
2.21801
1963.47
2.14777e-05
2.19381
1963.47
-0.000879518
2.16454
1963.45
-0.00134752
2.13196
1963.4
-0.0017365
2.09763
1963.34
-0.00162185
2.06436
1963.26
4.62792e-05
2.03323
1963.17
0.00146987
1.99929
1963.06
0.00258944
1.96174
1962.94
0.00345692
1.92319
1962.82
0.00414227
1.88749
1962.68
0.00390179
1.85356
1962.54
0.00306957
1.81993
1962.38
0.00189248
1.78643
1962.22
0.000576703
1.74508
1962.04
-0.000462095
1.71485
-0.000569507
1.58681
1960.94
0.000143615
0.622187
1961.7
0.00112591
1.47982
1962.26
0.0012109
1.84875
1962.64
0.000833955
2.04885
1962.91
0.000432777
2.16451
1963.12
0.000180829
2.22103
1963.27
-0.00034606
2.23791
1963.37
-0.000886726
2.23373
1963.43
-0.00228047
2.21791
1963.47
-0.00172618
2.19375
1963.47
-0.00204021
2.1649
1963.45
-0.00197202
2.13243
1963.41
-0.00197765
2.09842
1963.34
-0.00171817
2.06525
1963.26
0.00143527
2.03311
1963.17
0.00375132
1.99869
1963.06
0.00757507
1.96096
1962.95
0.00709037
1.92217
1962.82
0.0055712
1.88613
1962.69
0.00379621
1.85219
1962.54
0.00200371
1.81871
1962.39
0.00016213
1.78549
1962.23
-0.0030232
1.7446
1962.04
-0.00439973
1.71457
-0.00333503
1.58672
1960.94
0.00122967
0.62192
1961.7
0.00271076
1.47959
1962.26
0.00193213
1.8484
1962.64
0.000779721
2.049
1962.91
0.000386752
2.1647
1963.12
0.000327683
2.22123
1963.26
0.000241276
2.23844
1963.37
0.00108677
2.2344
1963.43
0.000773577
2.21967
1963.46
-0.000284502
2.19496
1963.46
-0.000647357
2.16617
1963.44
-0.0010229
2.13303
1963.4
-0.000107892
2.09866
1963.33
0.000899455
2.06497
1963.25
-0.00186421
2.03002
1963.16
-0.00314931
1.99431
1963.06
-4.07351e-05
1.9551
1962.95
0.00124959
1.91815
1962.83
0.00163953
1.88406
1962.7
0.00157762
1.85209
1962.56
0.00124407
1.82012
1962.4
0.000847434
1.78802
1962.23
0.00225888
1.74918
1962.05
0.00144943
1.71922
-0.000406254
1.58981
1960.94
0.62275
1961.7
1.48051
1962.26
1.84919
1962.64
2.0498
1962.91
2.16525
1963.12
2.22152
1963.26
2.23857
1963.37
2.23353
1963.43
2.21894
1963.46
2.19468
1963.46
2.16617
1963.44
2.13364
1963.4
2.09852
1963.34
2.06408
1963.26
2.03219
1963.17
1.99766
1963.07
1.95558
1962.95
1.91735
1962.83
1.88261
1962.7
1.85016
1962.55
1.81804
1962.4
1.78587
1962.24
1.7457
1962.05
1.71627
1.58868
1960.26
0.000209274
0.361284
1960.72
0.000869499
1.02501
1961.18
0.000932899
1.38431
1961.64
0.000965161
1.58554
1962.08
0.00085174
1.72716
1962.48
0.000661121
1.8235
1962.85
0.000513709
1.87082
1963.19
0.000345133
1.8925
1963.51
0.000294852
1.89877
1963.81
0.000312937
1.89359
1964.09
0.000537203
1.88076
1964.36
0.000495578
1.86226
1964.62
0.000561978
1.84016
1964.87
0.000508832
1.8155
1965.12
0.000140365
1.78491
1965.36
-9.11419e-05
1.75449
1965.59
-0.000686017
1.72851
1965.81
-0.000824045
1.70309
1966.01
-0.000960177
1.67771
1966.21
-0.00108793
1.65353
1966.4
-0.00118047
1.62973
1966.57
-0.00124678
1.60799
1966.74
-0.00127718
1.58394
1966.87
-0.00112844
1.57743
-0.000728683
1.53816
1960.26
-4.78756e-05
0.360411
1960.72
0.000238724
1.02556
1961.18
0.000415971
1.38557
1961.64
0.000582711
1.58653
1962.08
0.000609904
1.72772
1962.48
0.000594405
1.82389
1962.84
0.000556247
1.87113
1963.19
0.000642347
1.89274
1963.51
0.000626826
1.89879
1963.81
0.000468231
1.89318
1964.09
-0.00011152
1.8797
1964.36
-0.000506318
1.8609
1964.62
-9.73022e-05
1.83862
1964.87
0.000507378
1.81412
1965.12
-0.000305339
1.784
1965.36
-0.00117884
1.75424
1965.59
-0.000359521
1.72927
1965.81
0.000141227
1.70409
1966.01
-4.05527e-05
1.67875
1966.21
-0.00040255
1.65452
1966.4
-0.000729597
1.63061
1966.57
-0.000979311
1.60872
1966.74
-0.001152
1.5845
1966.88
-0.00108518
1.57765
-0.000804149
1.53832
1960.26
-6.21645e-05
0.360366
1960.72
2.77237e-06
1.02549
1961.18
0.000118543
1.38556
1961.64
0.000209266
1.58649
1962.08
0.00030127
1.72759
1962.48
0.000340892
1.82386
1962.84
0.000346944
1.87109
1963.19
0.000262458
1.89259
1963.51
0.000377748
1.89868
1963.81
0.000530328
1.89335
1964.09
0.000367747
1.88052
1964.36
0.000110779
1.86213
1964.62
7.12496e-05
1.83945
1964.87
4.43665e-05
1.81425
1965.12
-0.000126535
1.78451
1965.36
-0.000342563
1.75498
1965.59
-0.000481195
1.72865
1965.81
-0.000636051
1.70283
1966.01
-0.000893356
1.67755
1966.21
-0.00111381
1.65356
1966.4
-0.00120602
1.62992
1966.58
-0.0012125
1.60829
1966.74
-0.00136612
1.5844
1966.88
-0.00109548
1.57784
-0.000468354
1.53857
1960.26
-8.10506e-05
0.360357
1960.72
-6.85701e-05
1.02545
1961.18
-5.7531e-06
1.38549
1961.64
7.72526e-05
1.58641
1962.08
0.000175215
1.72753
1962.48
0.000285397
1.82376
1962.84
0.00043254
1.871
1963.19
0.000566578
1.89261
1963.51
0.000826161
1.89862
1963.81
0.000975561
1.89319
1964.09
0.000871696
1.88047
1964.36
0.000625149
1.86218
1964.62
0.000289261
1.83932
1964.87
-0.000225906
1.81365
1965.12
-0.00106727
1.78347
1965.36
-0.00170044
1.75395
1965.59
-0.00204171
1.72814