/*--------------------------------*- C++ -*----------------------------------*\
  =========                 |
  \\      /  F ield         | OpenFOAM: The Open Source CFD Toolbox
   \\    /   O peration     | Website:  https://openfoam.org
    \\  /    A nd           | Version:  12
     \\/     M anipulation  |
\*---------------------------------------------------------------------------*/
FoamFile
{
    format      ascii;
    class       volVectorField;
    location    "300";
    object      U;
}
// * * * * * * * * * * * * * * * * * * * * * * * * * * * * * * * * * * * * * //

dimensions      [0 1 -1 0 0 0 0];

internalField   nonuniform List<vector> 
5000
(
(9.9911 9.23262e-06 0.00342429)
(9.98604 2.95703e-06 0.00850365)
(9.97559 -9.43335e-07 0.0102193)
(9.96256 1.28263e-06 0.0109539)
(9.94966 1.72656e-06 0.0113569)
(9.93722 9.7117e-07 0.0115435)
(9.92499 3.01318e-07 0.0115695)
(9.91292 5.86263e-07 0.0114716)
(9.90114 3.27003e-06 0.0113447)
(9.8896 1.06669e-05 0.0111353)
(9.8784 1.71718e-05 0.0109115)
(9.86745 1.77624e-05 0.0106738)
(9.85678 1.30782e-05 0.0104308)
(9.8464 1.94124e-06 0.0101912)
(9.83632 -9.47715e-06 0.00995829)
(9.82644 -1.66372e-05 0.00976529)
(9.81687 -1.98253e-05 0.00944231)
(9.80759 -2.07022e-05 0.00917749)
(9.79853 -1.98981e-05 0.00893213)
(9.78971 -1.8166e-05 0.00870021)
(9.78109 -1.47911e-05 0.00847628)
(9.77268 -1.02473e-05 0.00824788)
(9.76448 -6.53157e-06 0.00799344)
(9.75672 -4.32684e-06 0.0076886)
(9.74719 -7.26479e-06 0.00710617)
(9.99108 1.17855e-05 0.00341359)
(9.986 2.43146e-06 0.00848431)
(9.97558 -2.1887e-06 0.0102067)
(9.96255 8.93805e-07 0.0109448)
(9.94964 2.19389e-06 0.0113502)
(9.9372 1.34425e-06 0.0115404)
(9.92497 2.9726e-07 0.0115684)
(9.91292 7.75445e-07 0.0114982)
(9.90111 2.21036e-06 0.0113649)
(9.88959 4.22213e-06 0.0111623)
(9.87843 6.96625e-06 0.0108656)
(9.86762 7.87884e-06 0.0106224)
(9.85702 2.44674e-06 0.0103793)
(9.84674 -1.29772e-06 0.0101439)
(9.83667 1.06329e-06 0.0099157)
(9.8268 -2.2044e-06 0.00967298)
(9.81716 -1.26777e-05 0.00950782)
(9.80778 -1.74695e-05 0.00923814)
(9.79867 -1.85763e-05 0.00898351)
(9.78977 -1.70719e-05 0.00874256)
(9.78112 -1.47315e-05 0.00851047)
(9.77266 -1.133e-05 0.00827753)
(9.76444 -7.1017e-06 0.00802248)
(9.75665 -9.86528e-07 0.0077245)
(9.74714 -3.19834e-06 0.00705785)
(9.99108 1.46997e-06 0.00341182)
(9.986 -3.37715e-07 0.00848246)
(9.97557 -1.02743e-06 0.0102059)
(9.96255 1.36547e-07 0.0109444)
(9.94964 1.05598e-06 0.01135)
(9.9372 1.16467e-06 0.0115381)
(9.92497 1.29458e-06 0.0115661)
(9.9129 1.9924e-06 0.0114563)
(9.90115 7.51887e-07 0.011331)
(9.88963 -3.92499e-06 0.0111347)
(9.87844 -6.31576e-06 0.0109055)
(9.86752 -2.5623e-06 0.010667)
(9.85691 2.68447e-06 0.0104276)
(9.8465 8.85355e-06 0.0101838)
(9.83638 1.45518e-05 0.00994781)
(9.82652 1.45863e-05 0.00976356)
(9.81696 -1.40887e-07 0.00945096)
(9.80764 -1.17316e-05 0.00919373)
(9.79855 -1.66073e-05 0.00895055)
(9.7897 -1.92235e-05 0.00871745)
(9.78104 -2.07742e-05 0.00849067)
(9.77262 -1.8155e-05 0.00825893)
(9.7644 -8.27924e-06 0.0080026)
(9.75663 3.48933e-06 0.00769449)
(9.74711 5.9657e-06 0.00711338)
(9.99108 3.05806e-07 0.00341153)
(9.986 3.3342e-07 0.00848087)
(9.97557 -2.58031e-08 0.0102046)
(9.96255 1.92032e-07 0.0109431)
(9.94964 7.67848e-07 0.0113488)
(9.9372 1.37881e-06 0.0115392)
(9.92497 1.80397e-06 0.0115673)
(9.91292 2.75372e-06 0.0114955)
(9.90109 7.44667e-06 0.0113657)
(9.88953 1.20082e-05 0.0111281)
(9.87833 1.29421e-05 0.0109084)
(9.86737 1.04631e-05 0.0106787)
(9.85676 3.91847e-06 0.0104465)
(9.84638 -3.8928e-06 0.0102376)
(9.83633 -9.81664e-06 0.00990674)
(9.82661 -1.54746e-05 0.00965439)
(9.81708 -1.83898e-05 0.0094099)
(9.80777 -1.98129e-05 0.00917073)
(9.79868 -1.80952e-05 0.00893994)
(9.78981 -1.50547e-05 0.00871464)
(9.78113 -1.14487e-05 0.00848661)
(9.77267 -7.66619e-06 0.00824294)
(9.76439 -4.16386e-06 0.00807403)
(9.75656 -1.02898e-06 0.00778325)
(9.74705 -3.06824e-07 0.00712042)
(9.99108 -4.55231e-08 0.00341151)
(9.986 2.08827e-08 0.00848049)
(9.97557 -1.05096e-07 0.0102044)
(9.96254 1.61082e-07 0.0109429)
(9.94964 6.04408e-07 0.0113488)
(9.93719 1.13086e-06 0.0115394)
(9.92497 1.89852e-06 0.0115657)
(9.91292 4.06219e-06 0.0114956)
(9.90109 8.23216e-06 0.0113532)
(9.88963 1.0343e-05 0.0111028)
(9.8785 6.94105e-06 0.0108777)
(9.86762 -9.1627e-07 0.0106391)
(9.85705 -1.30091e-05 0.0104033)
(9.84665 -2.30938e-05 0.010163)
(9.83654 -2.87824e-05 0.00993271)
(9.82666 -2.89267e-05 0.00976751)
(9.81706 -2.11415e-05 0.00947168)
(9.80771 -1.22564e-05 0.00921361)
(9.79859 -3.90789e-06 0.00896823)
(9.78972 3.93664e-06 0.00873283)
(9.78105 1.07374e-05 0.00850353)
(9.77261 1.42956e-05 0.00826876)
(9.76438 1.2363e-05 0.00800931)
(9.7566 4.75077e-06 0.00769877)
(9.74708 1.84035e-06 0.00711637)
(9.99108 -1.4072e-07 0.00341147)
(9.986 -8.4595e-08 0.00848029)
(9.97557 2.14075e-08 0.0102043)
(9.96255 2.69397e-07 0.0109428)
(9.94964 6.6027e-07 0.0113483)
(9.9372 1.02898e-06 0.0115382)
(9.92497 1.81047e-06 0.0115531)
(9.91293 3.44998e-06 0.0114752)
(9.90114 3.36787e-06 0.0113066)
(9.8897 7.10318e-07 0.0111265)
(9.8785 -1.58031e-06 0.0108942)
(9.86762 -2.65999e-06 0.010659)
(9.85699 -4.87542e-06 0.0104241)
(9.84661 -8.54998e-06 0.0101851)
(9.83646 -1.3527e-05 0.00994601)
(9.82662 -1.55678e-05 0.00970444)
(9.81697 -1.39605e-05 0.00953603)
(9.80759 -1.17813e-05 0.00924819)
(9.79849 -8.861e-06 0.00898261)
(9.78962 -5.10548e-06 0.00873271)
(9.78099 -5.73777e-08 0.00849316)
(9.77257 4.98215e-06 0.00825462)
(9.76439 8.10652e-06 0.00799584)
(9.75664 8.81954e-06 0.00769682)
(9.74717 4.97889e-06 0.00703199)
(9.99108 -1.80098e-07 0.00341147)
(9.986 -1.10969e-07 0.00848025)
(9.97557 -2.30909e-08 0.0102043)
(9.96255 1.85162e-07 0.0109427)
(9.94964 5.69984e-07 0.0113483)
(9.9372 7.40736e-07 0.0115382)
(9.92497 1.22477e-06 0.0115532)
(9.91293 8.51184e-07 0.0114754)
(9.90114 -4.52417e-07 0.0113066)
(9.8897 -1.1181e-06 0.0111275)
(9.8785 2.93416e-07 0.0108955)
(9.86761 3.53312e-06 0.01066)
(9.85698 7.57812e-06 0.010426)
(9.84659 1.06214e-05 0.0101893)
(9.83643 9.61526e-06 0.00995034)
(9.82657 -2.83211e-06 0.00970917)
(9.81693 -1.82135e-05 0.00953783)
(9.80756 -2.73123e-05 0.00924441)
(9.79847 -3.18962e-05 0.00897968)
(9.7896 -3.34357e-05 0.00873086)
(9.78097 -3.30258e-05 0.00849199)
(9.77254 -3.15575e-05 0.00825403)
(9.76436 -2.223e-05 0.00799619)
(9.7566 -8.81809e-06 0.0076994)
(9.74714 -1.62886e-06 0.00703597)
(9.99108 -2.21554e-07 0.00341151)
(9.986 -2.10503e-07 0.00848027)
(9.97557 -1.03457e-07 0.0102042)
(9.96255 1.04223e-07 0.0109428)
(9.94964 3.87561e-07 0.0113485)
(9.9372 5.9317e-07 0.0115387)
(9.92497 1.03951e-06 0.0115661)
(9.91291 1.64368e-06 0.0114922)
(9.90109 3.75624e-06 0.0113107)
(9.88963 8.44871e-06 0.0111318)
(9.87839 1.39261e-05 0.0109047)
(9.86749 1.64827e-05 0.0106681)
(9.85684 1.67143e-05 0.0104289)
(9.84644 1.74314e-05 0.0101981)
(9.8363 5.62869e-06 0.0100131)
(9.82651 -1.35041e-05 0.00970186)
(9.81694 -2.42089e-05 0.00945099)
(9.80759 -2.77858e-05 0.00920627)
(9.79848 -2.83097e-05 0.00896648)
(9.78958 -2.65445e-05 0.00873415)
(9.78091 -2.23802e-05 0.0085035)
(9.77244 -1.53451e-05 0.00826376)
(9.76421 -6.9851e-06 0.00799215)
(9.75638 -1.79219e-07 0.00776789)
(9.74685 6.85628e-07 0.00716133)
(9.99108 -2.61321e-07 0.00341147)
(9.986 -3.16613e-07 0.0084802)
(9.97557 -2.10591e-07 0.0102042)
(9.96255 -1.05164e-07 0.0109427)
(9.94964 6.38369e-08 0.0113481)
(9.9372 1.02873e-07 0.0115392)
(9.92497 2.41343e-07 0.0115643)
(9.91293 8.4096e-07 0.0114899)
(9.90113 3.04928e-06 0.0113457)
(9.88967 1.16993e-05 0.0110974)
(9.87854 1.86779e-05 0.0108731)
(9.86766 2.20608e-05 0.0106337)
(9.85709 2.52536e-05 0.0103993)
(9.84669 1.89364e-05 0.0101623)
(9.8366 1.67218e-06 0.00993152)
(9.82673 -1.61891e-05 0.00970425)
(9.8171 -2.30822e-05 0.0094509)
(9.80768 -2.64248e-05 0.0092874)
(9.79852 -2.76028e-05 0.00902734)
(9.78962 -2.3204e-05 0.00877409)
(9.78095 -1.5126e-05 0.0085286)
(9.77253 -5.19064e-06 0.00828159)
(9.76433 4.35334e-06 0.00801777)
(9.75658 7.23905e-06 0.00770552)
(9.74712 4.92992e-06 0.00709821)
(9.99108 -2.75944e-07 0.00341148)
(9.986 -3.79673e-07 0.00848022)
(9.97557 -3.63644e-07 0.0102042)
(9.96255 -4.20057e-07 0.0109428)
(9.94964 -3.96059e-07 0.0113483)
(9.9372 -7.37062e-07 0.0115386)
(9.92497 -1.812e-06 0.0115668)
(9.91292 -4.38884e-06 0.011496)
(9.90111 -9.64991e-06 0.0113541)
(9.88959 -1.36515e-05 0.0111668)
(9.87839 -8.24267e-06 0.0109283)
(9.86756 4.00378e-06 0.0106093)
(9.85705 1.59799e-05 0.0103613)
(9.84673 2.42648e-05 0.0101185)
(9.83671 2.95995e-05 0.00989137)
(9.8269 2.11392e-05 0.00967275)
(9.81728 5.82822e-06 0.00944867)
(9.80788 -1.00879e-05 0.00921797)
(9.79873 -2.1653e-05 0.00897127)
(9.78975 -2.93355e-05 0.00882551)
(9.78101 -3.31996e-05 0.0085825)
(9.77253 -3.25375e-05 0.00833084)
(9.76428 -2.46209e-05 0.00805961)
(9.75651 -9.82472e-06 0.00773764)
(9.74703 4.55364e-07 0.0071252)
(9.99108 -2.73124e-07 0.00341147)
(9.986 -4.29081e-07 0.00848024)
(9.97557 -5.52779e-07 0.0102042)
(9.96255 -6.51015e-07 0.0109427)
(9.94964 -9.83021e-07 0.0113484)
(9.9372 -1.66863e-06 0.0115386)
(9.92497 -3.28115e-06 0.0115663)
(9.91292 -7.83734e-06 0.011497)
(9.90109 -1.62721e-05 0.0113525)
(9.88956 -2.89786e-05 0.0111647)
(9.87829 -3.75222e-05 0.0109258)
(9.86738 -3.95191e-05 0.0106968)
(9.85675 -3.08277e-05 0.0104577)
(9.84645 -1.08317e-05 0.0101203)
(9.83648 9.08209e-06 0.00987327)
(9.82674 2.11428e-05 0.00964274)
(9.81719 2.77304e-05 0.00941354)
(9.80785 2.9208e-05 0.009184)
(9.79874 2.40114e-05 0.0089579)
(9.78983 1.38668e-05 0.00873179)
(9.78113 2.48711e-06 0.00849315)
(9.7726 -7.80986e-06 0.00834677)
(9.7643 -1.27881e-05 0.00808288)
(9.75649 -1.45381e-05 0.00776531)
(9.74698 -5.70966e-06 0.00715586)
(9.99108 -2.69434e-07 0.00341152)
(9.986 -4.826e-07 0.00848025)
(9.97557 -6.57597e-07 0.0102042)
(9.96254 -8.57919e-07 0.0109428)
(9.94964 -1.27161e-06 0.0113481)
(9.9372 -1.88656e-06 0.0115387)
(9.92496 -3.14018e-06 0.0115648)
(9.91291 -5.51778e-06 0.0114957)
(9.90107 -8.64611e-06 0.0113231)
(9.88958 -1.27575e-05 0.0111422)
(9.87834 -1.7687e-05 0.0109088)
(9.86743 -2.12666e-05 0.0106766)
(9.85673 -2.07983e-05 0.0104417)
(9.84633 -1.43409e-05 0.0102046)
(9.8362 -5.11851e-06 0.0100104)
(9.82642 3.87836e-06 0.00969418)
(9.81687 1.17956e-05 0.0094418)
(9.80754 1.74252e-05 0.00919494)
(9.79845 2.13306e-05 0.00895705)
(9.78957 2.11669e-05 0.00872873)
(9.7809 1.51135e-05 0.00850259)
(9.77244 6.71133e-06 0.00826781)
(9.76419 7.8297e-07 0.00799972)
(9.75635 -2.71716e-06 0.00777588)
(9.74681 -5.74005e-07 0.00717013)
(9.99108 -1.90234e-07 0.00341148)
(9.986 -5.11776e-07 0.00848026)
(9.97557 -7.26621e-07 0.0102043)
(9.96255 -9.4206e-07 0.0109428)
(9.94964 -1.40898e-06 0.0113485)
(9.9372 -1.75875e-06 0.0115389)
(9.92497 -2.56443e-06 0.0115673)
(9.91291 -3.3813e-06 0.0114962)
(9.90109 -3.94492e-07 0.0113675)
(9.88953 8.08628e-06 0.011136)
(9.87831 1.26173e-05 0.0109152)
(9.86736 1.22345e-05 0.0106811)
(9.85674 1.73808e-06 0.0104453)
(9.84634 -1.19198e-05 0.0102308)
(9.83633 -1.92934e-05 0.0099037)
(9.8266 -1.57857e-05 0.00965771)
(9.81705 -5.42025e-06 0.00941717)
(9.80775 5.67386e-06 0.00917724)
(9.79865 1.43932e-05 0.00894405)
(9.78979 1.85826e-05 0.00871633)
(9.78111 2.01092e-05 0.00848602)
(9.77266 1.92922e-05 0.00823959)
(9.76438 1.57377e-05 0.00806809)
(9.75656 9.63464e-06 0.00777856)
(9.74704 4.36841e-06 0.00711805)
(9.99108 -1.43535e-07 0.00341152)
(9.986 -4.09997e-07 0.00848035)
(9.97557 -6.75683e-07 0.0102044)
(9.96254 -8.71657e-07 0.0109428)
(9.94964 -1.23865e-06 0.0113486)
(9.93719 -1.83783e-06 0.0115393)
(9.92497 -2.03088e-06 0.0115671)
(9.91291 -2.79381e-06 0.0114943)
(9.90109 -2.81782e-06 0.0113684)
(9.88956 -2.5804e-06 0.0111726)
(9.87841 -7.70402e-06 0.0108708)
(9.86759 -1.55206e-05 0.0106285)
(9.857 -2.07962e-05 0.0103901)
(9.84666 -2.34725e-05 0.0101516)
(9.83657 -2.44942e-05 0.00991664)
(9.82675 -1.59724e-05 0.00967506)
(9.81711 -5.03034e-06 0.00951736)
(9.80771 6.24301e-06 0.00925164)
(9.79859 1.44822e-05 0.00899467)
(9.78969 1.92379e-05 0.00874902)
(9.78103 2.22688e-05 0.00850902)
(9.77258 2.33065e-05 0.00826202)
(9.76436 1.46673e-05 0.00798776)
(9.75654 3.80676e-06 0.00775976)
(9.74702 -7.5408e-07 0.00715158)
(9.99108 -9.36834e-08 0.00341153)
(9.986 -3.77094e-07 0.00848036)
(9.97557 -5.01418e-07 0.0102043)
(9.96254 -7.0571e-07 0.0109429)
(9.94964 -1.01211e-06 0.0113484)
(9.9372 -1.31984e-06 0.0115391)
(9.92496 -1.13047e-06 0.0115656)
(9.91291 -3.24211e-07 0.0114974)
(9.90107 -9.25437e-07 0.0113251)
(9.88958 -1.50604e-06 0.0111441)
(9.87833 -1.03997e-06 0.0109074)
(9.86742 1.28929e-07 0.0106774)
(9.85672 8.7677e-07 0.0104498)
(9.8463 9.83866e-07 0.0102068)
(9.83617 -1.28863e-06 0.00996721)
(9.82636 -4.29492e-06 0.00972281)
(9.81675 -7.63413e-06 0.00947425)
(9.80741 -4.9344e-06 0.00921999)
(9.79829 8.43955e-07 0.00897476)
(9.78942 6.9382e-06 0.00873536)
(9.78076 1.22562e-05 0.0085021)
(9.77233 1.59097e-05 0.00826382)
(9.76412 1.81952e-05 0.00800085)
(9.75635 1.06556e-05 0.00768943)
(9.74684 2.29834e-06 0.00710918)
(9.99108 -9.6196e-08 0.00341153)
(9.986 -3.54977e-07 0.00848046)
(9.97557 -2.16624e-07 0.0102045)
(9.96254 -2.99474e-07 0.010943)
(9.94964 -6.76409e-07 0.0113488)
(9.93719 -6.62605e-07 0.0115395)
(9.92496 -3.94376e-07 0.0115667)
(9.91291 1.97101e-06 0.0114988)
(9.90108 5.4025e-06 0.0113653)
(9.88955 6.93243e-06 0.0111744)
(9.87836 7.23395e-06 0.0108928)
(9.86751 6.55687e-06 0.010648)
(9.85692 4.56592e-06 0.0104004)
(9.84658 1.0223e-06 0.0101547)
(9.83651 -3.99785e-06 0.00991915)
(9.8267 -2.69191e-07 0.00969008)
(9.81707 9.70479e-06 0.00945183)
(9.80769 1.64114e-05 0.00919413)
(9.7985 1.86286e-05 0.00903853)
(9.78955 1.90515e-05 0.00879121)
(9.78085 1.89361e-05 0.00854597)
(9.77239 1.88308e-05 0.00830011)
(9.76417 1.68481e-05 0.00803463)
(9.75639 7.8763e-06 0.00773774)
(9.74693 1.99357e-07 0.00707137)
(9.99108 -3.88362e-07 0.00341155)
(9.986 -5.14782e-07 0.00848084)
(9.97557 -1.14949e-07 0.0102047)
(9.96254 -2.76945e-07 0.0109432)
(9.94964 -5.45129e-07 0.0113488)
(9.93719 -6.95602e-07 0.0115388)
(9.92496 -5.40505e-07 0.0115538)
(9.91292 1.32392e-06 0.0114762)
(9.90114 1.48443e-06 0.0113082)
(9.88971 -4.57619e-06 0.0111288)
(9.8785 -1.18278e-05 0.0108962)
(9.86764 -1.43632e-05 0.0106594)
(9.85697 -1.32091e-05 0.0104174)
(9.8466 -5.36646e-06 0.0101761)
(9.83649 4.49029e-06 0.00994498)
(9.82663 1.92402e-05 0.00970218)
(9.81697 3.037e-05 0.00953218)
(9.8076 3.54728e-05 0.00924848)
(9.7985 3.55591e-05 0.00898396)
(9.78964 2.99737e-05 0.00873565)
(9.78101 2.25582e-05 0.00849736)
(9.7726 1.45564e-05 0.00826003)
(9.76441 6.51582e-06 0.00800204)
(9.75666 -1.08078e-06 0.00770305)
(9.74718 -2.81623e-06 0.00703786)
(9.99108 -1.50683e-06 0.00341183)
(9.986 2.22565e-07 0.00848243)
(9.97557 1.02002e-06 0.010206)
(9.96254 -1.79763e-07 0.0109445)
(9.94964 -7.89422e-07 0.0113501)
(9.9372 -6.29814e-07 0.0115399)
(9.92496 -6.43926e-07 0.0115549)
(9.91292 -1.77502e-06 0.0114769)
(9.90113 -5.91294e-06 0.0113088)
(9.8897 -1.00271e-05 0.0111294)
(9.8785 -9.5613e-06 0.010898)
(9.86763 -1.83225e-06 0.0106622)
(9.85696 1.30001e-05 0.0104196)
(9.84659 2.33738e-05 0.0101777)
(9.83649 2.72122e-05 0.00994452)
(9.82661 2.60072e-05 0.00969958)
(9.81696 1.71729e-05 0.00952709)
(9.80759 9.92345e-06 0.00924223)
(9.7985 3.2938e-06 0.00897814)
(9.78963 -2.99911e-06 0.00873101)
(9.78101 -9.24034e-06 0.00849433)
(9.77259 -1.31807e-05 0.00825866)
(9.7644 -9.13845e-06 0.00800314)
(9.75664 -6.16542e-07 0.00770596)
(9.74716 4.06468e-06 0.00704107)
(9.99108 -1.18066e-05 0.00341356)
(9.986 -2.4714e-06 0.00848427)
(9.97557 2.18971e-06 0.0102067)
(9.96255 -9.00055e-07 0.0109448)
(9.94964 -2.08592e-06 0.0113503)
(9.9372 -1.13298e-06 0.0115403)
(9.92497 -5.24144e-07 0.0115683)
(9.91291 -1.51562e-06 0.0114965)
(9.90109 -4.84402e-06 0.0113668)
(9.88953 -8.24882e-06 0.01113)
(9.87834 -7.95573e-06 0.0109121)
(9.86739 -4.91304e-06 0.0106792)
(9.85674 5.47289e-08 0.0104372)
(9.84639 7.25268e-06 0.0102272)
(9.8364 1.79095e-05 0.00990658)
(9.82665 2.23193e-05 0.00965988)
(9.81708 2.05126e-05 0.00941265)
(9.80778 1.69787e-05 0.00916932)
(9.79868 1.37229e-05 0.00893616)
(9.78981 1.00069e-05 0.00871026)
(9.78114 5.33779e-06 0.00848312)
(9.77268 1.80391e-07 0.00824085)
(9.7644 -2.71923e-06 0.00807372)
(9.75658 -2.02655e-06 0.00778128)
(9.74707 7.38503e-06 0.00711615)
(9.9911 -9.23461e-06 0.0034243)
(9.98604 -2.94639e-06 0.00850371)
(9.97559 9.10083e-07 0.0102194)
(9.96256 -1.20184e-06 0.0109539)
(9.94966 -1.73833e-06 0.011357)
(9.93722 -9.89438e-07 0.0115427)
(9.92499 -3.59192e-07 0.0115691)
(9.91291 -3.57049e-07 0.011458)
(9.90116 -7.6189e-07 0.0113323)
(9.88964 -2.07575e-06 0.0111375)
(9.87846 -4.65173e-06 0.01091)
(9.86754 -9.86405e-06 0.0106713)
(9.85691 -1.38797e-05 0.010426)
(9.8465 -1.62181e-05 0.0101767)
(9.83642 -5.75777e-06 0.00994283)
(9.82657 6.39657e-06 0.00976408)
(9.81697 1.31234e-05 0.00944975)
(9.80767 1.77867e-05 0.00918409)
(9.79859 2.10603e-05 0.008936)
(9.78975 2.28097e-05 0.00870132)
(9.78112 2.34507e-05 0.00847518)
(9.77271 1.77492e-05 0.00824505)
(9.76451 9.20657e-06 0.00799071)
(9.75674 2.24974e-06 0.00768622)
(9.74722 3.99303e-06 0.00710575)
(10.0012 -2.66923e-06 0.0055308)
(10.0059 -9.38109e-06 0.0111435)
(10.011 -9.14731e-06 0.0131993)
(10.0128 -5.94457e-06 0.0135218)
(10.0142 -3.1863e-06 0.0135497)
(10.0154 -1.8846e-06 0.0134098)
(10.0163 -7.98707e-07 0.0131478)
(10.017 5.14084e-07 0.0128197)
(10.0174 3.21871e-06 0.0124752)
(10.0176 8.14364e-06 0.0121088)
(10.0177 1.28949e-05 0.0117534)
(10.0176 1.40794e-05 0.0114073)
(10.0175 1.42044e-05 0.0110797)
(10.0172 1.40614e-05 0.0107693)
(10.0168 8.38827e-06 0.0104756)
(10.0164 3.31517e-07 0.0102023)
(10.0159 -7.29117e-06 0.00993878)
(10.0153 -9.70912e-06 0.00968427)
(10.0147 -1.10017e-05 0.0094449)
(10.014 -1.15659e-05 0.00922263)
(10.0133 -1.14489e-05 0.00900986)
(10.0126 -1.08552e-05 0.00880667)
(10.0118 -8.60227e-06 0.00854519)
(10.011 -4.69901e-06 0.00838307)
(10.0095 -3.45626e-06 0.00736363)
(10.0012 -3.05339e-06 0.00552302)
(10.0059 -1.19369e-05 0.0111426)
(10.011 -1.07393e-05 0.0132035)
(10.0128 -6.06784e-06 0.0135237)
(10.0142 -2.56621e-06 0.0135508)
(10.0154 -1.12506e-06 0.0134114)
(10.0164 7.84864e-08 0.0131492)
(10.017 1.87498e-06 0.0128206)
(10.0174 3.45527e-06 0.0124729)
(10.0176 4.71891e-06 0.0121009)
(10.0177 5.30316e-06 0.0117362)
(10.0177 6.25426e-06 0.0113884)
(10.0175 9.52581e-06 0.0110656)
(10.0172 1.00048e-05 0.0107625)
(10.0169 3.78252e-06 0.010477)
(10.0165 -3.65949e-07 0.0102139)
(10.016 -3.51869e-07 0.00995535)
(10.0154 -8.66768e-07 0.00970091)
(10.0148 -2.30868e-06 0.00946045)
(10.0141 -5.26737e-06 0.0092358)
(10.0134 -7.98434e-06 0.00901978)
(10.0126 -1.0115e-05 0.0088125)
(10.0118 -1.09742e-05 0.00854796)
(10.011 -8.97234e-06 0.00838351)
(10.0095 -6.34289e-06 0.00736931)
(10.0012 -6.5107e-07 0.00552196)
(10.006 -2.17326e-06 0.011143)
(10.011 -2.13701e-06 0.0132073)
(10.0129 -8.5994e-07 0.013524)
(10.0142 8.49082e-08 0.0135508)
(10.0154 5.39055e-07 0.0134114)
(10.0164 9.52084e-07 0.0131495)
(10.017 1.50383e-06 0.0128205)
(10.0174 6.54093e-07 0.0124744)
(10.0176 -1.8835e-06 0.0121051)
(10.0177 -5.81047e-06 0.0117477)
(10.0177 -8.15101e-06 0.0114043)
(10.0175 -3.47854e-06 0.011073)
(10.0172 2.47305e-06 0.0107561)
(10.0169 4.99742e-06 0.0104752)
(10.0164 6.51689e-06 0.0102151)
(10.0159 1.00395e-05 0.00994638)
(10.0154 8.42266e-06 0.00968646)
(10.0148 2.93765e-06 0.00944825)
(10.0141 -2.93209e-06 0.00922731)
(10.0134 -8.59231e-06 0.00901477)
(10.0127 -1.54238e-05 0.0088105)
(10.0118 -2.05314e-05 0.00854721)
(10.0111 -1.7627e-05 0.008382)
(10.0096 -8.34721e-06 0.00736728)
(10.0012 -1.69935e-07 0.0055216)
(10.006 -7.73687e-07 0.0111429)
(10.011 -1.20953e-06 0.0132066)
(10.0129 -9.8437e-07 0.0135245)
(10.0142 -5.02235e-07 0.0135512)
(10.0154 2.26466e-07 0.0134118)
(10.0164 1.16911e-06 0.0131497)
(10.017 2.65295e-06 0.0128208)
(10.0174 6.49719e-06 0.0124736)
(10.0176 1.04442e-05 0.0121057)
(10.0177 1.09585e-05 0.0117458)
(10.0176 1.02052e-05 0.0113995)
(10.0175 7.66304e-06 0.0110649)
(10.0172 3.08155e-06 0.0107437)
(10.0169 -3.57482e-06 0.0104626)
(10.0164 -9.5947e-06 0.0102085)
(10.0159 -1.35348e-05 0.00994708)
(10.0154 -1.56822e-05 0.0096933)
(10.0148 -1.66773e-05 0.00945936)
(10.0141 -1.62894e-05 0.00924141)
(10.0134 -1.45377e-05 0.00903045)
(10.0127 -1.15465e-05 0.00882479)
(10.0119 -7.99208e-06 0.00855648)
(10.0111 -4.23315e-06 0.00838489)
(10.0095 -1.48106e-06 0.00736705)
(10.0012 -1.51437e-07 0.00552153)
(10.006 -2.77423e-07 0.0111429)
(10.011 -3.60351e-07 0.0132066)
(10.0129 -1.22594e-07 0.0135248)
(10.0142 3.82962e-07 0.0135515)
(10.0154 1.1102e-06 0.013412)
(10.0164 2.49141e-06 0.0131499)
(10.017 5.17306e-06 0.0128216)
(10.0174 8.87684e-06 0.0124727)
(10.0176 1.05979e-05 0.0120983)
(10.0177 1.1668e-05 0.0117376)
(10.0177 1.01092e-05 0.0113954)
(10.0175 5.02519e-06 0.0110693)
(10.0172 -4.98594e-06 0.0107577)
(10.0169 -1.89821e-05 0.0104806)
(10.0165 -2.56295e-05 0.0102233)
(10.0159 -3.08866e-05 0.00995694)
(10.0154 -2.82754e-05 0.00969806)
(10.0148 -2.38694e-05 0.00945856)
(10.0141 -1.82014e-05 0.00923513)
(10.0134 -9.2323e-06 0.00901981)
(10.0127 1.32607e-06 0.00881282)
(10.0118 1.13197e-05 0.00854731)
(10.011 1.60881e-05 0.00838037)
(10.0096 1.1666e-05 0.00736557)
(10.0012 -1.59955e-07 0.00552149)
(10.006 -1.47075e-07 0.011143)
(10.011 -6.7809e-08 0.0132065)
(10.0129 1.26303e-07 0.0135249)
(10.0142 4.71241e-07 0.0135515)
(10.0154 9.47755e-07 0.0134121)
(10.0164 1.9152e-06 0.01315)
(10.017 3.47578e-06 0.0128221)
(10.0174 3.99502e-06 0.0124704)
(10.0177 2.27743e-06 0.0120997)
(10.0177 2.11406e-06 0.0117405)
(10.0177 1.3309e-06 0.0114001)
(10.0175 -1.7566e-07 0.011075)
(10.0173 -2.2522e-06 0.0107656)
(10.0169 -6.22476e-06 0.0104899)
(10.0165 -1.25167e-05 0.0102318)
(10.0159 -1.96249e-05 0.00996356)
(10.0154 -2.02178e-05 0.00970277)
(10.0148 -1.85934e-05 0.00946039)
(10.0141 -1.55281e-05 0.0092334)
(10.0134 -1.10153e-05 0.00901426)
(10.0126 -5.33457e-06 0.00880362)
(10.0118 1.23294e-06 0.0085363)
(10.011 7.73473e-06 0.00836997)
(10.0095 9.01205e-06 0.00735862)
(10.0012 -1.84567e-07 0.00552149)
(10.006 -1.63198e-07 0.011143)
(10.011 -3.9888e-08 0.0132064)
(10.0129 1.38899e-07 0.0135249)
(10.0142 3.87724e-07 0.0135515)
(10.0154 5.70011e-07 0.0134121)
(10.0164 5.78519e-07 0.0131499)
(10.017 3.45087e-07 0.012822)
(10.0174 6.81028e-08 0.0124706)
(10.0177 3.70545e-07 0.0121007)
(10.0177 1.03785e-06 0.0117415)
(10.0177 1.56505e-06 0.0114022)
(10.0175 9.61195e-07 0.011078)
(10.0173 -5.74049e-07 0.0107658)
(10.0169 1.72348e-07 0.0104873)
(10.0165 3.88596e-06 0.0102326)
(10.0159 -3.24347e-07 0.00996672)
(10.0153 -9.47244e-06 0.00970371)
(10.0147 -1.67821e-05 0.00945925)
(10.0141 -2.12202e-05 0.00923137)
(10.0134 -2.26411e-05 0.00901211)
(10.0126 -2.34305e-05 0.00880175)
(10.0118 -2.53009e-05 0.00853484)
(10.011 -2.33541e-05 0.00836904)
(10.0095 -1.3753e-05 0.00735927)
(10.0012 -2.21059e-07 0.0055215)
(10.006 -2.21557e-07 0.011143)
(10.011 -9.73013e-08 0.0132064)
(10.0129 8.5059e-08 0.0135249)
(10.0142 2.99457e-07 0.0135515)
(10.0154 4.93369e-07 0.013412)
(10.0164 6.28385e-07 0.0131498)
(10.017 7.11374e-07 0.0128211)
(10.0174 1.58686e-06 0.0124707)
(10.0176 4.60491e-06 0.0121032)
(10.0177 7.07348e-06 0.0117429)
(10.0177 9.76472e-06 0.0113993)
(10.0175 1.04192e-05 0.0110694)
(10.0172 8.68607e-06 0.0107571)
(10.0169 7.3294e-06 0.0104825)
(10.0164 4.18349e-06 0.0102277)
(10.0159 -6.06325e-06 0.00996546)
(10.0153 -2.19065e-05 0.00971146)
(10.0148 -2.83987e-05 0.00947434)
(10.0141 -3.08666e-05 0.00925128)
(10.0134 -2.88984e-05 0.00903507)
(10.0126 -2.38222e-05 0.00882542)
(10.0118 -1.62407e-05 0.00855563)
(10.011 -5.55901e-06 0.00838311)
(10.0095 2.59281e-06 0.00736672)
(10.0012 -2.60115e-07 0.00552149)
(10.006 -2.98493e-07 0.011143)
(10.011 -2.15181e-07 0.0132063)
(10.0129 -9.08544e-08 0.0135249)
(10.0142 4.61425e-08 0.0135514)
(10.0154 1.02732e-07 0.013412)
(10.0164 -6.29057e-08 0.0131495)
(10.017 -6.9697e-07 0.01282)
(10.0174 -1.73392e-06 0.0124693)
(10.0176 -3.85575e-08 0.0120933)
(10.0177 5.36625e-06 0.0117305)
(10.0177 1.20695e-05 0.0113859)
(10.0175 1.51687e-05 0.0110585)
(10.0172 1.72751e-05 0.010753)
(10.0169 1.5356e-05 0.0104851)
(10.0164 7.51183e-06 0.010234)
(10.0159 -3.81969e-06 0.00997715)
(10.0154 -1.60492e-05 0.00972478)
(10.0147 -2.51436e-05 0.00948334)
(10.0141 -3.15476e-05 0.00925379)
(10.0133 -2.98929e-05 0.00902982)
(10.0126 -2.27145e-05 0.00881296)
(10.0117 -1.07597e-05 0.00853821)
(10.0109 5.03149e-06 0.00836543)
(10.0095 1.04915e-05 0.00735466)
(10.0012 -2.71619e-07 0.00552149)
(10.006 -3.8125e-07 0.011143)
(10.011 -3.75945e-07 0.0132063)
(10.0129 -3.78352e-07 0.0135249)
(10.0142 -4.55114e-07 0.0135513)
(10.0154 -8.54897e-07 0.0134118)
(10.0164 -2.13097e-06 0.0131492)
(10.017 -5.11161e-06 0.0128187)
(10.0174 -1.00837e-05 0.0124679)
(10.0176 -1.50748e-05 0.0120943)
(10.0177 -1.55303e-05 0.0117248)
(10.0176 -1.08088e-05 0.0113737)
(10.0175 -1.44384e-06 0.0110434)
(10.0172 9.40964e-06 0.0107393)
(10.0169 1.77712e-05 0.010475)
(10.0164 2.32866e-05 0.0102292)
(10.0159 2.63813e-05 0.00998104)
(10.0154 2.32975e-05 0.00973903)
(10.0148 1.3072e-05 0.00950517)
(10.0141 -2.72009e-07 0.00927802)
(10.0134 -1.38842e-05 0.00905249)
(10.0126 -2.41938e-05 0.00883084)
(10.0118 -2.906e-05 0.00854937)
(10.011 -3.01355e-05 0.00836841)
(10.0095 -1.92855e-05 0.00735245)
(10.0012 -2.65176e-07 0.00552149)
(10.006 -4.44944e-07 0.011143)
(10.011 -5.36828e-07 0.0132063)
(10.0129 -6.51251e-07 0.0135249)
(10.0142 -9.35545e-07 0.0135514)
(10.0154 -1.64054e-06 0.0134119)
(10.0164 -3.1188e-06 0.0131496)
(10.017 -6.31269e-06 0.0128204)
(10.0174 -1.03661e-05 0.012472)
(10.0176 -1.66716e-05 0.0121026)
(10.0177 -2.39184e-05 0.0117373)
(10.0176 -2.80917e-05 0.0113815)
(10.0174 -2.75872e-05 0.0110398)
(10.0172 -2.3026e-05 0.0107268)
(10.0169 -1.15875e-05 0.0104585)
(10.0164 3.24676e-06 0.0102112)
(10.0159 1.51018e-05 0.00996181)
(10.0154 2.49119e-05 0.00972092)
(10.0148 2.96411e-05 0.00949222)
(10.0141 3.21919e-05 0.00927427)
(10.0135 2.60226e-05 0.00905818)
(10.0127 1.31939e-05 0.00884222)
(10.0118 -7.23422e-07 0.00856357)
(10.011 -1.39835e-05 0.00838266)
(10.0095 -1.62399e-05 0.00736253)
(10.0012 -2.59904e-07 0.00552152)
(10.006 -4.71068e-07 0.011143)
(10.011 -6.37811e-07 0.0132064)
(10.0129 -8.2139e-07 0.0135249)
(10.0142 -1.16566e-06 0.0135515)
(10.0154 -1.74938e-06 0.0134122)
(10.0164 -2.72899e-06 0.0131503)
(10.017 -4.43725e-06 0.0128227)
(10.0174 -6.29805e-06 0.0124757)
(10.0176 -7.11611e-06 0.0121127)
(10.0177 -1.01669e-05 0.0117543)
(10.0177 -1.37219e-05 0.011405)
(10.0175 -1.52478e-05 0.0110662)
(10.0173 -1.52737e-05 0.0107497)
(10.0169 -8.46725e-06 0.0104717)
(10.0164 -3.08869e-06 0.0102151)
(10.0159 2.04372e-06 0.00995827)
(10.0153 7.40543e-06 0.00971157)
(10.0148 1.23131e-05 0.00947913)
(10.0141 1.65068e-05 0.00926037)
(10.0134 1.82694e-05 0.00904718)
(10.0126 1.51261e-05 0.00883771)
(10.0118 5.95199e-06 0.00856502)
(10.011 -1.70351e-06 0.00838727)
(10.0095 -4.05888e-06 0.00736641)
(10.0012 -1.88365e-07 0.00552151)
(10.006 -4.7322e-07 0.011143)
(10.011 -6.92304e-07 0.0132063)
(10.0129 -9.06982e-07 0.013525)
(10.0142 -1.25291e-06 0.0135516)
(10.0154 -1.58985e-06 0.0134124)
(10.0164 -2.01635e-06 0.0131506)
(10.017 -2.22606e-06 0.0128226)
(10.0174 -1.04791e-06 0.0124763)
(10.0176 3.29205e-06 0.0121091)
(10.0177 8.46176e-06 0.0117484)
(10.0176 9.99355e-06 0.0113976)
(10.0175 9.69801e-06 0.0110568)
(10.0172 6.80798e-06 0.0107382)
(10.0168 -4.45154e-07 0.0104627)
(10.0164 -8.58666e-06 0.0102094)
(10.0159 -1.45399e-05 0.00995339)
(10.0154 -1.13237e-05 0.00970737)
(10.0148 -5.20201e-06 0.00947586)
(10.0141 1.85041e-06 0.00925815)
(10.0134 8.04558e-06 0.00904602)
(10.0127 1.19503e-05 0.00883727)
(10.0118 1.26036e-05 0.00856366)
(10.011 1.23892e-05 0.00838553)
(10.0095 7.89771e-06 0.00736472)
(10.0012 -1.33962e-07 0.00552154)
(10.006 -3.93278e-07 0.011143)
(10.011 -6.01536e-07 0.0132066)
(10.0129 -8.22427e-07 0.013525)
(10.0142 -1.11432e-06 0.0135519)
(10.0154 -1.48558e-06 0.0134127)
(10.0164 -1.7704e-06 0.013151)
(10.017 -1.89381e-06 0.0128234)
(10.0174 -1.00036e-06 0.0124764)
(10.0176 -4.19415e-07 0.0121044)
(10.0177 6.5227e-07 0.0117389)
(10.0177 -2.02039e-07 0.0113926)
(10.0175 -3.88704e-06 0.0110624)
(10.0173 -9.84756e-06 0.0107531)
(10.0169 -1.53537e-05 0.0104818)
(10.0165 -1.711e-05 0.0102306)
(10.0159 -1.48701e-05 0.00997139)
(10.0154 -1.03605e-05 0.00971653)
(10.0148 -4.80072e-06 0.00947571)
(10.0141 2.30715e-06 0.00925013)
(10.0134 8.57146e-06 0.00903313)
(10.0126 1.53391e-05 0.00882334)
(10.0118 2.12376e-05 0.00855247)
(10.011 1.68552e-05 0.00837722)
(10.0095 6.65519e-06 0.00735942)
(10.0012 -6.33208e-08 0.00552155)
(10.006 -2.50351e-07 0.011143)
(10.011 -3.84871e-07 0.0132066)
(10.0129 -5.61325e-07 0.013525)
(10.0142 -7.93111e-07 0.0135519)
(10.0154 -9.67025e-07 0.0134128)
(10.0164 -9.17026e-07 0.0131512)
(10.017 -4.68324e-07 0.0128238)
(10.0174 -2.13827e-07 0.0124761)
(10.0176 -9.1201e-07 0.0121114)
(10.0177 -6.8914e-07 0.0117531)
(10.0177 6.88015e-07 0.0114081)
(10.0175 7.34048e-07 0.0110743)
(10.0173 -2.50326e-07 0.0107612)
(10.0169 9.98943e-07 0.0104856)
(10.0164 1.61825e-06 0.0102283)
(10.0159 6.94385e-07 0.00996542)
(10.0154 -3.26392e-06 0.00971048)
(10.0147 -7.4206e-06 0.00947037)
(10.0141 -5.2899e-06 0.00924532)
(10.0134 -1.02897e-06 0.00902828)
(10.0126 5.44985e-06 0.00881942)
(10.0118 1.39228e-05 0.0085515)
(10.011 2.0096e-05 0.00838125)
(10.0095 1.51121e-05 0.00736491)
(10.0012 6.83568e-09 0.00552157)
(10.006 1.15489e-08 0.011143)
(10.011 6.89903e-08 0.0132067)
(10.0129 -7.87102e-08 0.013525)
(10.0142 -3.61361e-07 0.0135519)
(10.0154 -3.28662e-07 0.0134127)
(10.0164 3.12349e-07 0.013151)
(10.017 2.40069e-06 0.012823)
(10.0174 4.47005e-06 0.0124752)
(10.0176 4.77691e-06 0.0121061)
(10.0177 4.96301e-06 0.0117411)
(10.0176 4.78386e-06 0.0113928)
(10.0175 3.12796e-06 0.0110619)
(10.0172 -1.20694e-07 0.0107561)
(10.0169 -1.90903e-06 0.0104864)
(10.0164 -3.5816e-06 0.0102327)
(10.0159 -4.627e-06 0.00997426)
(10.0154 -9.18186e-07 0.00972189)
(10.0148 4.84654e-06 0.00947991)
(10.0141 1.04921e-05 0.00925065)
(10.0134 1.45648e-05 0.00902821)
(10.0126 1.71956e-05 0.00881343)
(10.0118 2.13796e-05 0.00854101)