/*--------------------------------*- C++ -*----------------------------------*\
  =========                 |
  \\      /  F ield         | OpenFOAM: The Open Source CFD Toolbox
   \\    /   O peration     | Website:  https://openfoam.org
    \\  /    A nd           | Version:  12
     \\/     M anipulation  |
\*---------------------------------------------------------------------------*/
FoamFile
{
    format      ascii;
    class       volVectorField;
    location    "12.14";
    object      U;
}
// * * * * * * * * * * * * * * * * * * * * * * * * * * * * * * * * * * * * * //

dimensions      [0 1 -1 0 0 0 0];

internalField   nonuniform List<vector> 
3829
(
(-2.09389e-06 -0.000248782 0)
(-6.90102e-06 -0.000258276 0)
(-1.12531e-05 -0.000257559 0)
(-1.61806e-05 -0.000256217 0)
(-2.12298e-05 -0.000254425 0)
(-2.66631e-05 -0.000252172 0)
(-3.24452e-05 -0.000249483 0)
(-3.86949e-05 -0.000246372 0)
(-4.54295e-05 -0.000242859 0)
(-5.27162e-05 -0.000238978 0)
(-6.05082e-05 -0.000234759 0)
(-6.88302e-05 -0.000230249 0)
(-7.77815e-05 -0.000225496 0)
(-8.72774e-05 -0.000220543 0)
(-9.72764e-05 -0.000215445 0)
(-0.000107732 -0.000210261 0)
(-0.000118588 -0.000205038 0)
(-0.00012976 -0.000199833 0)
(-0.000141148 -0.000194701 0)
(-0.00015263 -0.000189679 0)
(-0.000164081 -0.000184821 0)
(-0.000175373 -0.000180152 0)
(-0.000186416 -0.000175714 0)
(-0.00019695 -0.000171511 0)
(-0.000206787 -0.000167574 0)
(-0.000215743 -0.000163908 0)
(-0.000223871 -0.00016051 0)
(-0.000230993 -0.000157352 0)
(-0.000236729 -0.000154403 0)
(-0.000241153 -0.000151657 0)
(-0.000244155 -0.000149049 0)
(-0.000245571 -0.000146529 0)
(-0.000245257 -0.000144001 0)
(-0.000242755 -0.000141557 0)
(-0.000238347 -0.0001392 0)
(-0.000232065 -0.000136886 0)
(-0.000223809 -0.000134675 0)
(-0.000213976 -0.000132445 0)
(-0.000202537 -0.000130185 0)
(-0.000189652 -0.000127798 0)
(-0.000175453 -0.000125247 0)
(-0.000160045 -0.000122474 0)
(-0.000143569 -0.000119405 0)
(-0.000126156 -0.000116009 0)
(-0.000107975 -0.000112266 0)
(-8.92524e-05 -0.000108147 0)
(-7.01799e-05 -0.000103639 0)
(-5.10048e-05 -9.87351e-05 0)
(-3.19472e-05 -9.34408e-05 0)
(-1.32234e-05 -8.77439e-05 0)
(4.70605e-06 -8.17055e-05 0)
(2.19466e-05 -7.52509e-05 0)
(3.8063e-05 -6.85512e-05 0)
(5.28026e-05 -6.15097e-05 0)
(6.58208e-05 -5.42608e-05 0)
(7.7066e-05 -4.67123e-05 0)
(8.65214e-05 -3.90983e-05 0)
(9.35137e-05 -3.13122e-05 0)
(9.82404e-05 -2.35329e-05 0)
(0.000100623 -1.57018e-05 0)
(0.000100391 -8.08906e-06 0)
(9.70353e-05 -6.54748e-07 0)
(9.10433e-05 6.55788e-06 0)
(8.25877e-05 1.34154e-05 0)
(7.14332e-05 1.98842e-05 0)
(5.79087e-05 2.58591e-05 0)
(4.21167e-05 3.13131e-05 0)
(2.45576e-05 3.61347e-05 0)
(4.49631e-06 4.02089e-05 0)
(-1.75765e-05 4.36434e-05 0)
(-4.06956e-05 4.6196e-05 0)
(-6.48489e-05 4.79003e-05 0)
(-8.93881e-05 4.87401e-05 0)
(-0.000114418 4.85864e-05 0)
(-0.000139155 4.76091e-05 0)
(-0.000163095 4.55696e-05 0)
(-0.000185917 4.26767e-05 0)
(-0.000207355 3.88205e-05 0)
(-0.0002266 3.42352e-05 0)
(-0.00024332 2.87882e-05 0)
(-0.000257246 2.27116e-05 0)
(-0.00026763 1.60079e-05 0)
(-0.000274449 8.81252e-06 0)
(-0.000277447 1.29243e-06 0)
(-0.000275969 -6.42072e-06 0)
(-0.000269508 -1.41933e-05 0)
(-0.00025832 -2.18709e-05 0)
(-0.000242626 -2.93137e-05 0)
(-0.000222693 -3.63541e-05 0)
(-0.000198639 -4.28114e-05 0)
(-0.000170808 -4.85198e-05 0)
(-0.000139624 -5.33186e-05 0)
(-0.000105612 -5.70736e-05 0)
(-6.93632e-05 -5.96443e-05 0)
(-3.16029e-05 -6.09581e-05 0)
(6.86445e-06 -6.09212e-05 0)
(4.52253e-05 -5.95008e-05 0)
(8.25198e-05 -5.66981e-05 0)
(0.000117895 -5.25286e-05 0)
(0.000150402 -4.70823e-05 0)
(0.000179178 -4.0434e-05 0)
(0.000203398 -3.27593e-05 0)
(0.000222341 -2.42131e-05 0)
(0.000235367 -1.50268e-05 0)
(0.000242108 -5.42612e-06 0)
(0.000241835 4.26166e-06 0)
(0.000234256 1.38494e-05 0)
(0.000219814 2.29657e-05 0)
(0.000198837 3.14619e-05 0)
(0.000171968 3.89092e-05 0)
(0.000139866 4.51969e-05 0)
(0.000103353 4.99302e-05 0)
(6.35132e-05 5.30553e-05 0)
(2.16716e-05 5.44077e-05 0)
(-2.08282e-05 5.38924e-05 0)
(-6.24029e-05 5.15324e-05 0)
(-0.000101695 4.73804e-05 0)
(-0.000137238 4.15826e-05 0)
(-0.000167635 3.43423e-05 0)
(-0.000191973 2.59252e-05 0)
(-0.000208988 1.66983e-05 0)
(-0.000218196 6.93577e-06 0)
(-0.000219041 -2.77913e-06 0)
(-0.000211137 -1.21394e-05 0)
(-0.000195333 -2.07673e-05 0)
(-0.000172444 -2.82088e-05 0)
(-0.000143443 -3.41168e-05 0)
(-0.000109824 -3.8258e-05 0)
(-7.31833e-05 -4.03295e-05 0)
(-3.53531e-05 -4.03166e-05 0)
(1.6223e-06 -3.81773e-05 0)
(3.58244e-05 -3.40322e-05 0)
(6.538e-05 -2.8169e-05 0)
(8.86961e-05 -2.08609e-05 0)
(0.000104549 -1.26099e-05 0)
(0.000112075 -3.87429e-06 0)
(0.000110574 4.78926e-06 0)
(0.000100138 1.28328e-05 0)
(8.20534e-05 1.98839e-05 0)
(5.75027e-05 2.52319e-05 0)
(2.81008e-05 2.87166e-05 0)
(-4.32918e-06 2.99828e-05 0)
(-3.70914e-05 2.89652e-05 0)
(-6.71428e-05 2.57631e-05 0)
(-9.26112e-05 2.05733e-05 0)
(-0.0001116 1.38089e-05 0)
(-0.000122387 6.00174e-06 0)
(-0.000123816 -2.29134e-06 0)
(-0.000115374 -1.02932e-05 0)
(-9.7903e-05 -1.75664e-05 0)
(-7.27558e-05 -2.3342e-05 0)
(-4.17122e-05 -2.7246e-05 0)
(-6.86706e-06 -2.88389e-05 0)
(2.8621e-05 -2.79874e-05 0)
(6.12778e-05 -2.48152e-05 0)
(8.88244e-05 -1.96556e-05 0)
(0.000108874 -1.28959e-05 0)
(0.000119902 -5.27834e-06 0)
(0.00012064 2.55552e-06 0)
(0.000111241 9.83171e-06 0)
(9.30317e-05 1.59218e-05 0)
(6.79093e-05 2.02062e-05 0)
(3.84754e-05 2.23525e-05 0)
(7.42801e-06 2.21808e-05 0)
(-2.18494e-05 1.98112e-05 0)
(-4.63482e-05 1.56489e-05 0)
(-6.40319e-05 1.02148e-05 0)
(-7.35686e-05 4.22958e-06 0)
(-7.43959e-05 -1.60017e-06 0)
(-6.72074e-05 -6.58121e-06 0)
(-5.37091e-05 -1.02094e-05 0)
(-3.61924e-05 -1.21179e-05 0)
(-1.72852e-05 -1.22067e-05 0)
(4.09635e-07 -1.06782e-05 0)
(1.46089e-05 -7.91306e-06 0)
(2.38466e-05 -4.47532e-06 0)
(2.75125e-05 -9.97365e-07 0)
(2.59257e-05 1.95687e-06 0)
(2.02116e-05 3.97116e-06 0)
(1.23268e-05 4.81573e-06 0)
(4.13772e-06 4.47336e-06 0)
(-2.35875e-06 3.11764e-06 0)
(-5.94423e-06 1.25899e-06 0)
(-6.02185e-06 -6.74829e-07 0)
(-3.07112e-06 -2.23098e-06 0)
(2.44798e-06 -3.04087e-06 0)
(8.82483e-06 -2.86401e-06 0)
(1.33362e-05 -1.7749e-06 0)
(1.51286e-05 2.88465e-08 0)
(1.29627e-05 2.13009e-06 0)
(6.88289e-06 4.14035e-06 0)
(-2.92328e-06 5.5704e-06 0)
(-1.48913e-05 6.15007e-06 0)
(-2.65647e-05 5.56429e-06 0)
(-3.62098e-05 3.92344e-06 0)
(-4.17111e-05 1.43548e-06 0)
(-4.17062e-05 -1.48893e-06 0)
(-3.56242e-05 -4.36052e-06 0)
(-2.40448e-05 -6.65847e-06 0)
(-8.50868e-06 -7.94911e-06 0)
(1.42708e-06 0.000315476 0)
(4.99391e-06 0.000322932 0)
(8.4846e-06 0.000324574 0)
(1.15907e-05 0.00032686 0)
(1.41792e-05 0.000329809 0)
(1.61103e-05 0.000333264 0)
(1.71767e-05 0.00033717 0)
(1.73322e-05 0.000341403 0)
(1.6404e-05 0.000345828 0)
(1.4243e-05 0.000350296 0)
(1.08264e-05 0.00035459 0)
(6.00042e-06 0.000358566 0)
(-2.63383e-07 0.000361953 0)
(-7.9215e-06 0.000364619 0)
(-1.70303e-05 0.000366225 0)
(-2.74408e-05 0.000366699 0)
(-3.90581e-05 0.00036575 0)
(-5.18163e-05 0.000363261 0)
(-6.54551e-05 0.000359064 0)
(-7.98169e-05 0.000353051 0)
(-9.46635e-05 0.000345115 0)
(-0.000109758 0.0003352 0)
(-0.000124853 0.000323289 0)
(-0.000139598 0.000309396 0)
(-0.000153808 0.000293591 0)
(-0.000167059 0.00027593 0)
(-0.000179162 0.000256586 0)
(-0.000189786 0.000235722 0)
(-0.000198703 0.00021355 0)
(-0.000205764 0.000190238 0)
(-0.00021061 0.00016605 0)
(-0.000212902 0.000141222 0)
(-0.000213418 0.000115897 0)
(-0.000212345 9.05999e-05 0)
(-0.000209119 6.56754e-05 0)
(-0.000204106 4.14415e-05 0)
(-0.000196745 1.82089e-05 0)
(-0.000186996 -3.84306e-06 0)
(-0.000174988 -2.45265e-05 0)
(-0.000160745 -4.36589e-05 0)
(-0.000144659 -6.10688e-05 0)
(-0.000126647 -7.65661e-05 0)
(-0.000107022 -9.00797e-05 0)
(-8.62402e-05 -0.000101425 0)
(-6.44952e-05 -0.000110542 0)
(-4.20664e-05 -0.000117352 0)
(-1.92689e-05 -0.000121817 0)
(3.55055e-06 -0.00012392 0)
(2.61965e-05 -0.000123719 0)
(4.81683e-05 -0.000121191 0)
(6.93243e-05 -0.000116445 0)
(8.92297e-05 -0.000109529 0)
(0.000107554 -0.000100725 0)
(0.00012426 -8.98864e-05 0)
(0.000138969 -7.75039e-05 0)
(0.000151177 -6.34872e-05 0)
(0.000160938 -4.82983e-05 0)
(0.000167881 -3.195e-05 0)
(0.00017197 -1.48454e-05 0)
(0.000172737 2.87506e-06 0)
(0.000169844 2.0695e-05 0)
(0.00016387 3.87506e-05 0)
(0.000154516 5.65256e-05 0)
(0.000142022 7.38977e-05 0)
(0.000126298 9.04181e-05 0)
(0.000107719 0.000105954 0)
(8.63871e-05 0.000120099 0)
(6.24473e-05 0.000132601 0)
(3.61082e-05 0.000143136 0)
(7.34677e-06 0.000151675 0)
(-2.31729e-05 0.0001579 0)
(-5.44958e-05 0.000161635 0)
(-8.66205e-05 0.000162692 0)
(-0.000118908 0.000161046 0)
(-0.000150995 0.000156654 0)
(-0.000182243 0.00014941 0)
(-0.000211816 0.00013944 0)
(-0.000239379 0.000126741 0)
(-0.000264223 0.000111578 0)
(-0.000286046 9.39916e-05 0)
(-0.000304084 7.44078e-05 0)
(-0.000317985 5.29378e-05 0)
(-0.000327155 3.01255e-05 0)
(-0.000331383 6.16238e-06 0)
(-0.000330167 -1.82248e-05 0)
(-0.000322959 -4.28782e-05 0)
(-0.000310035 -6.70605e-05 0)
(-0.000291598 -9.0519e-05 0)
(-0.000267811 -0.000112586 0)
(-0.00023884 -0.000132787 0)
(-0.000205135 -0.000150592 0)
(-0.000167255 -0.000165542 0)
(-0.000125821 -0.000177214 0)
(-8.1643e-05 -0.000185179 0)
(-3.56149e-05 -0.000189174 0)
(1.13222e-05 -0.000188986 0)
(5.80568e-05 -0.000184464 0)
(0.000103482 -0.000175632 0)
(0.000146483 -0.000162545 0)
(0.000185955 -0.000145458 0)
(0.000220807 -0.000124696 0)
(0.000250006 -0.000100714 0)
(0.000272714 -7.40866e-05 0)
(0.000288124 -4.54839e-05 0)
(0.000295654 -1.56489e-05 0)
(0.000294734 1.44957e-05 0)
(0.000285003 4.41535e-05 0)
(0.00026705 7.25293e-05 0)
(0.000241111 9.86232e-05 0)
(0.000207969 0.000121674 0)
(0.000168429 0.000140856 0)
(0.00012349 0.000155363 0)
(7.48634e-05 0.000164797 0)
(2.37845e-05 0.000168663 0)
(-2.79216e-05 0.000166786 0)
(-7.83051e-05 0.000159091 0)
(-0.000125722 0.000145901 0)
(-0.000168371 0.000127628 0)
(-0.0002046 0.000104857 0)
(-0.000233153 7.85449e-05 0)
(-0.0002528 4.97308e-05 0)
(-0.000262626 1.9507e-05 0)
(-0.000262056 -1.0752e-05 0)
(-0.000251237 -3.98043e-05 0)
(-0.000230751 -6.63665e-05 0)
(-0.000201536 -8.92761e-05 0)
(-0.000165097 -0.000107293 0)
(-0.00012307 -0.000119739 0)
(-7.75388e-05 -0.000125802 0)
(-3.09037e-05 -0.000125408 0)
(1.4515e-05 -0.000118301 0)
(5.6138e-05 -0.000105133 0)
(9.18147e-05 -8.65433e-05 0)
(0.000119572 -6.35511e-05 0)
(0.000137875 -3.76834e-05 0)
(0.000145823 -1.02901e-05 0)
(0.000142615 1.66441e-05 0)
(0.000128757 4.18122e-05 0)
(0.000105299 6.33207e-05 0)
(7.3878e-05 8.00572e-05 0)
(3.68192e-05 9.05003e-05 0)
(-3.85779e-06 9.42238e-05 0)
(-4.46189e-05 9.07142e-05 0)
(-8.19634e-05 8.04224e-05 0)
(-0.000113492 6.40167e-05 0)
(-0.000136767 4.27642e-05 0)
(-0.00014988 1.8301e-05 0)
(-0.000151328 -7.51375e-06 0)
(-0.000140871 -3.25701e-05 0)
(-0.000119441 -5.49978e-05 0)
(-8.85553e-05 -7.28104e-05 0)
(-5.05913e-05 -8.46839e-05 0)
(-8.06777e-06 -8.93526e-05 0)
(3.49402e-05 -8.65113e-05 0)
(7.42346e-05 -7.64172e-05 0)
(0.000107157 -6.01319e-05 0)
(0.00013074 -3.9084e-05 0)
(0.000143137 -1.53176e-05 0)
(0.000143107 8.91002e-06 0)
(0.000130892 3.13776e-05 0)
(0.000108116 4.99615e-05 0)
(7.71598e-05 6.29348e-05 0)
(4.12965e-05 6.91637e-05 0)
(3.88032e-06 6.83346e-05 0)
(-3.08936e-05 6.06379e-05 0)
(-5.94927e-05 4.74031e-05 0)
(-7.95002e-05 3.03813e-05 0)
(-8.93946e-05 1.17078e-05 0)
(-8.87153e-05 -6.24357e-06 0)
(-7.84836e-05 -2.15391e-05 0)
(-6.0883e-05 -3.24282e-05 0)
(-3.8758e-05 -3.79668e-05 0)
(-1.54751e-05 -3.78553e-05 0)
(5.7677e-06 -3.26887e-05 0)
(2.22674e-05 -2.3812e-05 0)
(3.22916e-05 -1.29865e-05 0)
(3.52802e-05 -2.06207e-06 0)
(3.18599e-05 7.02875e-06 0)
(2.35906e-05 1.31272e-05 0)
(1.29195e-05 1.54909e-05 0)
(2.18685e-06 1.41032e-05 0)
(-6.0176e-06 9.72018e-06 0)
(-1.02147e-05 3.66326e-06 0)
(-9.90922e-06 -2.44657e-06 0)
(-5.67901e-06 -7.38241e-06 0)
(1.75371e-06 -9.91693e-06 0)
(1.01808e-05 -9.36034e-06 0)
(1.64068e-05 -5.90003e-06 0)
(1.92296e-05 -2.81551e-07 0)
(1.72333e-05 6.32948e-06 0)
(1.04183e-05 1.25633e-05 0)
(-8.78834e-07 1.70291e-05 0)
(-1.48907e-05 1.88721e-05 0)
(-2.87664e-05 1.71055e-05 0)
(-4.02517e-05 1.21066e-05 0)
(-4.69523e-05 4.52929e-06 0)
(-4.72572e-05 -4.38196e-06 0)
(-4.05211e-05 -1.3136e-05 0)
(-2.74085e-05 -2.01392e-05 0)
(-9.70952e-06 -2.4052e-05 0)
(4.61226e-06 -0.000258709 0)
(1.37573e-05 -0.00027076 0)
(2.2084e-05 -0.000266288 0)
(2.90362e-05 -0.000259196 0)
(3.36979e-05 -0.000249583 0)
(3.60731e-05 -0.000237456 0)
(3.65068e-05 -0.000222805 0)
(3.43295e-05 -0.000205901 0)
(2.93748e-05 -0.000186756 0)
(2.10454e-05 -0.000165682 0)
(9.50435e-06 -0.000143038 0)
(-5.60934e-06 -0.000119505 0)
(-2.42108e-05 -9.56098e-05 0)
(-4.65784e-05 -7.18835e-05 0)
(-7.21579e-05 -4.8947e-05 0)
(-0.000100452 -2.73638e-05 0)
(-0.000131636 -7.7059e-06 0)
(-0.000164694 9.54372e-06 0)
(-0.000199399 2.39158e-05 0)
(-0.000235162 3.50336e-05 0)
(-0.000271456 4.25289e-05 0)
(-0.000307542 4.6192e-05 0)
(-0.000342855 4.59562e-05 0)
(-0.000376586 4.16898e-05 0)
(-0.00040831 3.35818e-05 0)
(-0.000437215 2.16654e-05 0)
(-0.000462734 6.42052e-06 0)
(-0.000484515 -1.2003e-05 0)
(-0.000502247 -3.30137e-05 0)
(-0.000515747 -5.62336e-05 0)
(-0.000524568 -8.10088e-05 0)
(-0.000529322 -0.000106911 0)
(-0.000528433 -0.000133034 0)
(-0.000520488 -0.000159313 0)
(-0.00050697 -0.000185341 0)
(-0.000488258 -0.000210861 0)
(-0.000465103 -0.000235127 0)
(-0.000438637 -0.000257906 0)
(-0.000408941 -0.000278648 0)
(-0.000376314 -0.000296997 0)
(-0.000340924 -0.00031267 0)
(-0.000303399 -0.000325308 0)
(-0.000263961 -0.000334747 0)
(-0.000222857 -0.000340819 0)
(-0.000180812 -0.000343374 0)
(-0.000138175 -0.000342377 0)
(-9.54499e-05 -0.000337788 0)
(-5.33535e-05 -0.000329611 0)
(-1.20676e-05 -0.000317897 0)
(2.79515e-05 -0.000302793 0)
(6.59674e-05 -0.000284355 0)
(0.000101284 -0.00026281 0)
(0.000134385 -0.000238291 0)
(0.000164185 -0.000211179 0)
(0.000190102 -0.000181655 0)
(0.000212276 -0.000150155 0)
(0.000230272 -0.000116848 0)
(0.000243811 -8.23174e-05 0)
(0.000252552 -4.68013e-05 0)
(0.000256019 -1.07698e-05 0)
(0.000255132 2.53263e-05 0)
(0.000249605 6.09835e-05 0)
(0.000238822 9.58197e-05 0)
(0.00022334 0.000129246 0)
(0.000202945 0.000160922 0)
(0.000178228 0.000190294 0)
(0.000148894 0.000216927 0)
(0.000115817 0.000240328 0)
(7.92653e-05 0.000260119 0)
(3.97143e-05 0.000275895 0)
(-2.39002e-06 0.000287424 0)
(-4.63895e-05 0.000294337 0)
(-9.11609e-05 0.000296365 0)
(-0.000136178 0.000293449 0)
(-0.000180986 0.000285375 0)
(-0.000224491 0.000272309 0)
(-0.000265947 0.000254153 0)
(-0.000304656 0.000231219 0)
(-0.000339708 0.000203594 0)
(-0.000370293 0.000171844 0)
(-0.000395886 0.000136355 0)
(-0.000415512 9.76203e-05 0)
(-0.000428883 5.64204e-05 0)
(-0.000435272 1.3291e-05 0)
(-0.000434217 -3.08821e-05 0)
(-0.000425294 -7.52776e-05 0)
(-0.000408583 -0.000119021 0)
(-0.000384599 -0.000161149 0)
(-0.00035302 -0.00020077 0)
(-0.000314502 -0.000236945 0)
(-0.000269539 -0.000268775 0)
(-0.000218975 -0.000295402 0)
(-0.00016351 -0.000316115 0)
(-0.000104271 -0.000330156 0)
(-4.26725e-05 -0.000337057 0)
(2.01255e-05 -0.000336412 0)
(8.26241e-05 -0.000328048 0)
(0.000143278 -0.00031193 0)
(0.000200613 -0.000288264 0)
(0.00025301 -0.000257431 0)
(0.000299119 -0.000220081 0)
(0.000337528 -0.000177057 0)
(0.000367062 -0.000129331 0)
(0.000386749 -7.82111e-05 0)
(0.000395711 -2.4963e-05 0)
(0.000393256 2.88952e-05 0)
(0.00037952 8.17791e-05 0)
(0.000354617 0.000132203 0)
(0.000319089 0.00017845 0)
(0.000274137 0.000219086 0)
(0.000220466 0.000252656 0)
(0.000159995 0.000277959 0)
(9.46742e-05 0.00029405 0)
(2.63685e-05 0.000300188 0)
(-4.2562e-05 0.00029588 0)
(-0.000109402 0.000281483 0)
(-0.000171749 0.000257115 0)
(-0.000227615 0.00022381 0)
(-0.00027451 0.000182631 0)
(-0.000310651 0.000135219 0)
(-0.000334658 8.34349e-05 0)
(-0.00034549 2.94289e-05 0)
(-0.000342441 -2.45794e-05 0)
(-0.000325551 -7.61978e-05 0)
(-0.000295976 -0.000123271 0)
(-0.000254785 -0.00016347 0)
(-0.000204077 -0.000194995 0)
(-0.000146305 -0.000216199 0)
(-8.43229e-05 -0.000226123 0)
(-2.11115e-05 -0.000224337 0)
(3.99351e-05 -0.00021061 0)
(9.52353e-05 -0.000186097 0)
(0.000142319 -0.000151944 0)
(0.000178105 -0.000110312 0)
(0.00020091 -6.33444e-05 0)
(0.000209272 -1.42778e-05 0)
(0.00020274 3.42217e-05 0)
(0.000181803 7.89669e-05 0)
(0.000148217 0.000117172 0)
(0.000104013 0.000146412 0)
(5.21253e-05 0.000164573 0)
(-3.87343e-06 0.000170432 0)
(-5.97647e-05 0.000163429 0)
(-0.000110605 0.000144271 0)
(-0.000153268 0.000114287 0)
(-0.000184419 7.58364e-05 0)
(-0.000201584 3.16801e-05 0)
(-0.000203047 -1.45416e-05 0)
(-0.000188507 -5.93846e-05 0)
(-0.000159208 -9.91353e-05 0)
(-0.000117493 -0.000130585 0)
(-6.64065e-05 -0.00015101 0)
(-9.64472e-06 -0.000158899 0)
(4.73312e-05 -0.00015305 0)
(9.90893e-05 -0.000134519 0)
(0.000141778 -0.000104933 0)
(0.000171742 -6.71541e-05 0)
(0.000186483 -2.47055e-05 0)
(0.000184706 1.83099e-05 0)
(0.000166947 5.78972e-05 0)
(0.000135398 9.02969e-05 0)
(9.3436e-05 0.000112525 0)
(4.56357e-05 0.000122652 0)
(-3.52518e-06 0.000120074 0)
(-4.85586e-05 0.00010546 0)
(-8.45645e-05 8.12173e-05 0)
(-0.000108633 5.05142e-05 0)
(-0.000118838 1.72308e-05 0)
(-0.000115045 -1.45483e-05 0)
(-9.88825e-05 -4.11639e-05 0)
(-7.339e-05 -5.96936e-05 0)
(-4.26694e-05 -6.84794e-05 0)
(-1.11993e-05 -6.72009e-05 0)
(1.6544e-05 -5.69461e-05 0)
(3.70303e-05 -4.03284e-05 0)
(4.83367e-05 -2.05023e-05 0)
(4.98116e-05 -9.70115e-07 0)
(4.26746e-05 1.51526e-05 0)
(2.94599e-05 2.55817e-05 0)
(1.3424e-05 2.91272e-05 0)
(-1.95905e-06 2.58558e-05 0)
(-1.33023e-05 1.74099e-05 0)
(-1.85687e-05 6.00282e-06 0)
(-1.73644e-05 -5.33263e-06 0)
(-1.06636e-05 -1.43717e-05 0)
(4.46068e-07 -1.89295e-05 0)
(1.27897e-05 -1.78693e-05 0)
(2.22224e-05 -1.15728e-05 0)
(2.69724e-05 -1.43924e-06 0)
(2.52686e-05 1.04383e-05 0)
(1.70255e-05 2.16167e-05 0)
(2.99446e-06 2.95748e-05 0)
(-1.4805e-05 3.29859e-05 0)
(-3.27419e-05 2.99828e-05 0)
(-4.75771e-05 2.13559e-05 0)
(-5.64535e-05 8.25791e-06 0)
(-5.73267e-05 -7.14872e-06 0)
(-4.94052e-05 -2.22694e-05 0)
(-3.34926e-05 -3.43411e-05 0)
(-1.18708e-05 -4.1113e-05 0)
(1.82359e-05 0.000155891 0)
(5.58631e-05 0.000167326 0)
(9.31116e-05 0.000183532 0)
(0.000129926 0.000207626 0)
(0.000165871 0.000239497 0)
(0.000200081 0.00027832 0)
(0.000230664 0.000323563 0)
(0.000257476 0.000373371 0)
(0.000280274 0.00042699 0)
(0.000296679 0.00048147 0)
(0.00030454 0.000536012 0)
(0.000302832 0.000588817 0)
(0.000292762 0.000638929 0)
(0.000274011 0.00068469 0)
(0.00024659 0.000725254 0)
(0.000211185 0.000759081 0)
(0.000168536 0.000785379 0)
(0.000119656 0.00080324 0)
(6.56101e-05 0.000811687 0)
(7.32134e-06 0.0008105 0)
(-5.3789e-05 0.000799224 0)
(-0.000115645 0.00077778 0)
(-0.000177488 0.000746371 0)
(-0.000237502 0.000705269 0)
(-0.000294584 0.000655412 0)
(-0.000346795 0.000597283 0)
(-0.000393337 0.000532473 0)
(-0.000433451 0.000461732 0)
(-0.000465881 0.000387091 0)
(-0.000490301 0.00030925 0)
(-0.000506309 0.000229972 0)
(-0.000512662 0.000150104 0)
(-0.000511864 7.10756e-05 0)
(-0.000506602 -5.63856e-06 0)
(-0.000495736 -7.88681e-05 0)
(-0.000478066 -0.000147955 0)
(-0.000453366 -0.000212348 0)
(-0.000422733 -0.000271463 0)
(-0.000385805 -0.000324787 0)
(-0.000343998 -0.000371836 0)
(-0.000297821 -0.000412264 0)
(-0.000247923 -0.000445844 0)
(-0.000195531 -0.000472319 0)
(-0.000141201 -0.000491648 0)
(-8.57998e-05 -0.000503782 0)
(-3.01104e-05 -0.000508823 0)
(2.53548e-05 -0.000506896 0)
(7.98348e-05 -0.000498233 0)
(0.000132559 -0.000483015 0)
(0.00018305 -0.000461637 0)
(0.000230823 -0.000434426 0)
(0.000275138 -0.000401746 0)
(0.00031522 -0.000364081 0)
(0.000350781 -0.000321953 0)
(0.000381317 -0.000275984 0)
(0.000406511 -0.000226539 0)
(0.000425923 -0.000174326 0)
(0.000438996 -0.000120068 0)
(0.000446207 -6.4294e-05 0)
(0.000446375 -7.93981e-06 0)
(0.000439345 4.86023e-05 0)
(0.000425948 0.000104393 0)
(0.00040567 0.000158909 0)
(0.000379036 0.000211127 0)
(0.000346163 0.000260472 0)
(0.000307217 0.00030604 0)
(0.000262585 0.000347224 0)
(0.000212801 0.000383425 0)
(0.000158467 0.000413781 0)
(0.000100158 0.00043792 0)
(3.86846e-05 0.000455255 0)
(-2.50859e-05 0.000465437 0)
(-8.99837e-05 0.000468072 0)
(-0.000155186 0.000462892 0)
(-0.000219621 0.000449796 0)
(-0.000282243 0.000428868 0)
(-0.000341804 0.000400167 0)
(-0.000397399 0.000364045 0)
(-0.000447645 0.000320841 0)
(-0.000491354 0.000271241 0)
(-0.000528086 0.000215755 0)
(-0.000556436 0.000155444 0)
(-0.000575843 9.11661e-05 0)
(-0.000585872 2.42097e-05 0)
(-0.000585362 -4.43741e-05 0)
(-0.00057399 -0.000113114 0)
(-0.000551825 -0.000180851 0)
(-0.000519196 -0.000246007 0)
(-0.000476424 -0.00030713 0)
(-0.00042389 -0.000362913 0)
(-0.000362414 -0.00041177 0)
(-0.000293221 -0.000452615 0)
(-0.000217314 -0.000484161 0)
(-0.000136237 -0.000505476 0)
(-5.19131e-05 -0.000515706 0)
(3.39191e-05 -0.000514262 0)
(0.000119194 -0.000500927 0)
(0.000201846 -0.000475647 0)
(0.000279768 -0.000438842 0)
(0.000350854 -0.00039106 0)
(0.000413021 -0.000333359 0)
(0.000464587 -0.00026695 0)
(0.000503796 -0.00019346 0)
(0.000529341 -0.000114752 0)
(0.000540373 -3.31187e-05 0)
(0.000535845 4.93524e-05 0)
(0.000515722 0.000130292 0)
(0.000480494 0.000207065 0)
(0.000430777 0.00027741 0)
(0.00036815 0.000338883 0)
(0.000294085 0.000389297 0)
(0.000210891 0.000427013 0)
(0.000121343 0.00045026 0)
(2.7743e-05 0.00045841 0)
(-6.58304e-05 0.000450525 0)
(-0.000156156 0.000427116 0)
(-0.000240285 0.000388564 0)
(-0.000314721 0.000336324 0)
(-0.000376725 0.000272331 0)
(-0.00042369 0.000198863 0)
(-0.000453703 0.000118981 0)
(-0.000465456 3.59741e-05 0)
(-0.000458178 -4.65818e-05 0)
(-0.000432397 -0.00012536 0)
(-0.000389173 -0.000196666 0)
(-0.000330304 -0.000257333 0)
(-0.000258751 -0.000304375 0)
(-0.00017784 -0.000335396 0)
(-9.18895e-05 -0.000349021 0)
(-4.61725e-06 -0.000344539 0)
(7.89663e-05 -0.000321838 0)
(0.000154019 -0.000282609 0)
(0.000216921 -0.000228655 0)
(0.000264204 -0.000163702 0)
(0.000292907 -9.08126e-05 0)
(0.000301558 -1.47443e-05 0)
(0.000289797 5.96457e-05 0)
(0.00025823 0.00012806 0)
(0.000209416 0.000186292 0)
(0.000146282 0.000230286 0)
(7.31611e-05 0.000257084 0)
(-5.39278e-06 0.000264845 0)
(-8.29852e-05 0.000252905 0)
(-0.000153349 0.000222204 0)
(-0.000211847 0.000175243 0)
(-0.000254174 0.000115149 0)
(-0.000276905 4.67375e-05 0)
(-0.000277902 -2.43318e-05 0)
(-0.000257142 -9.30205e-05 0)
(-0.000216225 -0.000153518 0)
(-0.000158333 -0.000201042 0)
(-8.83134e-05 -0.000231426 0)
(-1.0906e-05 -0.000242298 0)
(6.63882e-05 -0.000232267 0)
(0.000135774 -0.000202839 0)
(0.000192405 -0.000156757 0)
(0.000231158 -9.84183e-05 0)
(0.000248928 -3.33614e-05 0)
(0.00024423 3.20883e-05 0)
(0.000218058 9.1913e-05 0)
(0.000173559 0.000140262 0)
(0.000115547 0.000172729 0)
(5.02772e-05 0.000186576 0)
(-1.58197e-05 0.000180813 0)
(-7.51402e-05 0.000157031 0)
(-0.000121424 0.000118752 0)
(-0.000150852 7.11171e-05 0)
(-0.000161158 2.01324e-05 0)
(-0.00015243 -2.79701e-05 0)
(-0.000127231 -6.7614e-05 0)
(-9.01026e-05 -9.44443e-05 0)
(-4.67991e-05 -0.000106067 0)
(-3.59829e-06 -0.000102234 0)
(3.33123e-05 -8.48808e-05 0)
(5.926e-05 -5.81358e-05 0)
(7.18376e-05 -2.69722e-05 0)
(7.07294e-05 3.13576e-06 0)
(5.79843e-05 2.75762e-05 0)
(3.72301e-05 4.27146e-05 0)
(1.32633e-05 4.70633e-05 0)
(-8.85612e-06 4.06324e-05 0)
(-2.45815e-05 2.65251e-05 0)
(-3.12662e-05 8.19726e-06 0)
(-2.857e-05 -9.87961e-06 0)
(-1.80109e-05 -2.39901e-05 0)
(-1.40877e-06 -3.10148e-05 0)
(1.66596e-05 -2.92117e-05 0)
(3.07541e-05 -1.93737e-05 0)
(3.82501e-05 -3.68194e-06 0)
(3.69421e-05 1.46279e-05 0)
(2.66026e-05 3.17636e-05 0)
(8.63677e-06 4.39701e-05 0)
(-1.4531e-05 4.92414e-05 0)
(-3.82438e-05 4.49371e-05 0)
(-5.77767e-05 3.22161e-05 0)
(-6.96974e-05 1.28857e-05 0)
(-7.13491e-05 -9.8869e-06 0)
(-6.17483e-05 -3.21553e-05 0)
(-4.1963e-05 -4.9971e-05 0)
(-1.49005e-05 -5.99124e-05 0)
(5.68648e-05 -0.000818767 0)
(0.000171011 -0.000827142 0)
(0.000282369 -0.000803777 0)
(0.000388013 -0.000768197 0)
(0.000483846 -0.000719707 0)
(0.000567606 -0.000660495 0)
(0.000633749 -0.00058721 0)
(0.000679902 -0.000504756 0)
(0.000699685 -0.000407374 0)
(0.000693635 -0.000301386 0)
(0.000668631 -0.000185285 0)
(0.00062376 -6.59625e-05 0)
(0.000560288 5.48488e-05 0)
(0.000479057 0.000172021 0)
(0.000381942 0.000283229 0)
(0.000270228 0.00038478 0)
(0.000147919 0.000474141 0)
(1.53205e-05 0.000549053 0)
(-0.000123404 0.000607021 0)
(-0.00026487 0.000646606 0)
(-0.000407376 0.000667657 0)
(-0.000546793 0.000669032 0)
(-0.000680821 0.000652143 0)
(-0.000805046 0.000615701 0)
(-0.000918173 0.000563826 0)
(-0.00101636 0.000494599 0)
(-0.00109819 0.00041572 0)
(-0.00116148 0.000322488 0)
(-0.00120669 0.000227123 0)
(-0.00123497 0.000123829 0)
(-0.00124584 2.22592e-05 0)
(-0.00124137 -7.9748e-05 0)
(-0.00121816 -0.000178678 0)
(-0.00117666 -0.000274598 0)
(-0.00112209 -0.000365521 0)
(-0.00105777 -0.000450326 0)
(-0.000985018 -0.000527677 0)
(-0.000905361 -0.000596649 0)
(-0.000819352 -0.000656674 0)
(-0.000728156 -0.00070737 0)
(-0.000633053 -0.000748331 0)
(-0.000535043 -0.000779728 0)
(-0.000435216 -0.000801242 0)
(-0.00033468 -0.000813316 0)
(-0.000234694 -0.000815722 0)
(-0.000136298 -0.000808951 0)
(-4.04333e-05 -0.000793049 0)
(5.20456e-05 -0.00076861 0)
(0.000140357 -0.000735835 0)
(0.000223611 -0.000695178 0)
(0.000301296 -0.000647174 0)
(0.000372312 -0.000592429 0)
(0.000436501 -0.000531467 0)
(0.000492551 -0.000465072 0)
(0.000540555 -0.000393774 0)
(0.000580481 -0.000318474 0)
(0.000610812 -0.000239886 0)
(0.00063198 -0.000158933 0)
(0.000643194 -7.6569e-05 0)
(0.000644477 6.16521e-06 0)
(0.000636838 8.86263e-05 0)
(0.0006198 0.000169672 0)
(0.000592713 0.000248226 0)
(0.000556077 0.000323422 0)
(0.000510249 0.000394011 0)
(0.000455809 0.000459146 0)
(0.000393621 0.000517692 0)
(0.000323903 0.000568835 0)
(0.000247767 0.000611583 0)
(0.000166569 0.000645292 0)
(8.09437e-05 0.00066922 0)
(-7.77591e-06 0.000682712 0)
(-9.81949e-05 0.000685308 0)
(-0.000188893 0.000676739 0)
(-0.00027837 0.000656861 0)
(-0.000365124 0.000625685 0)
(-0.000447657 0.000583443 0)
(-0.000524556 0.000530497 0)
(-0.000594101 0.000467489 0)
(-0.000655078 0.000395344 0)
(-0.000706114 0.000315024 0)
(-0.0007455 0.000227835 0)
(-0.000772529 0.000135146 0)
(-0.000786199 3.86447e-05 0)
(-0.000785713 -5.98031e-05 0)
(-0.00077062 -0.000158525 0)
(-0.000741035 -0.000255491 0)
(-0.000696925 -0.000348852 0)
(-0.000638889 -0.000436163 0)
(-0.000567494 -0.000515821 0)
(-0.000483983 -0.000585399 0)
(-0.000390131 -0.000643297 0)
(-0.000287171 -0.000687797 0)
(-0.000177364 -0.000717715 0)
(-6.30592e-05 -0.000731739 0)
(5.30624e-05 -0.000729015 0)
(0.000168275 -0.000709277 0)
(0.000279638 -0.000672593 0)
(0.000384382 -0.000619405 0)
(0.000479653 -0.000550697 0)
(0.0005628 -0.00046796 0)
(0.0006314 -0.000372853 0)
(0.000683149 -0.000268084 0)
(0.000715969 -0.000155879 0)
(0.00072885 -3.95387e-05 0)
(0.000721238 7.72925e-05 0)
(0.000692477 0.000191721 0)
(0.000643244 0.000300291 0)
(0.00057477 0.000399151 0)
(0.000488715 0.000485492 0)
(0.000387607 0.000555555 0)
(0.000274381 0.000607857 0)
(0.00015303 0.000639077 0)
(2.70617e-05 0.000648829 0)
(-9.89503e-05 0.00063594 0)
(-0.000219968 0.000600674 0)
(-0.000332032 0.000544227 0)
(-0.000430543 0.000468556 0)
(-0.00051182 0.000376333 0)
(-0.0005724 0.000271042 0)
(-0.000609555 0.000156886 0)
(-0.000621772 3.84547e-05 0)
(-0.000608621 -7.85102e-05 0)
(-0.000570396 -0.000189964 0)
(-0.000508881 -0.000289982 0)
(-0.000426644 -0.000374758 0)
(-0.000327331 -0.000439518 0)
(-0.000216152 -0.000481775 0)
(-9.87636e-05 -0.000498643 0)
(1.98565e-05 -0.000489626 0)
(0.000132689 -0.00045509 0)
(0.000233386 -0.000397294 0)
(0.000316707 -0.000318974 0)
(0.000378054 -0.000224567 0)
(0.000414538 -0.000120056 0)
(0.000422661 -1.11887e-05 0)
(0.000403042 9.48418e-05 0)
(0.000357444 0.000192107 0)
(0.000288419 0.000274005 0)
(0.000200078 0.000335002 0)
(9.86225e-05 0.000371609 0)
(-9.18784e-06 0.000381098 0)
(-0.000115328 0.000362201 0)
(-0.000210857 0.000316665 0)
(-0.000289969 0.000248114 0)
(-0.00034669 0.000161492 0)
(-0.000375786 6.37476e-05 0)
(-0.000375655 -3.78782e-05 0)
(-0.00034629 -0.000135345 0)
(-0.000289699 -0.000220717 0)
(-0.000210603 -0.000287008 0)
(-0.000115281 -0.000328768 0)
(-1.08692e-05 -0.000342564 0)
(9.25725e-05 -0.000326713 0)
(0.000184884 -0.00028339 0)
(0.000259188 -0.000216928 0)
(0.00030897 -0.00013338 0)
(0.000330027 -4.09333e-05 0)
(0.00032098 5.14e-05 0)
(0.000283337 0.000135115 0)
(0.000221442 0.000201939 0)
(0.000142288 0.000245859 0)
(5.42465e-05 0.000263177 0)
(-3.36487e-05 0.000252284 0)
(-0.000111351 0.000216534 0)
(-0.000170597 0.000160711 0)
(-0.000206335 9.21914e-05 0)
(-0.000215957 1.9706e-05 0)
(-0.00020013 -4.76952e-05 0)
(-0.000162673 -0.000102378 0)
(-0.000109965 -0.000138202 0)
(-5.01488e-05 -0.000152181 0)
(8.21591e-06 -0.000143984 0)
(5.67167e-05 -0.000117009 0)
(8.92706e-05 -7.7128e-05 0)
(0.000103033 -3.18475e-05 0)
(9.79968e-05 1.12213e-05 0)
(7.72928e-05 4.52887e-05 0)
(4.63736e-05 6.5546e-05 0)
(1.17677e-05 7.00298e-05 0)
(-1.9165e-05 5.9044e-05 0)
(-4.02568e-05 3.73482e-05 0)
(-4.85185e-05 9.99863e-06 0)
(-4.35694e-05 -1.65042e-05 0)
(-2.77006e-05 -3.68093e-05 0)
(-3.75274e-06 -4.67274e-05 0)
(2.18968e-05 -4.38836e-05 0)
(4.20318e-05 -2.96158e-05 0)
(5.30789e-05 -7.07309e-06 0)
(5.21937e-05 1.90387e-05 0)
(3.90774e-05 4.33586e-05 0)
(1.5995e-05 6.07105e-05 0)
(-1.40615e-05 6.8032e-05 0)
(-4.50714e-05 6.23056e-05 0)
(-7.05527e-05 4.49554e-05 0)
(-8.63076e-05 1.84929e-05 0)
(-8.89144e-05 -1.26164e-05 0)
(-7.72092e-05 -4.30447e-05 0)
(-5.25457e-05 -6.7308e-05 0)
(-1.86466e-05 -8.08645e-05 0)
(9.10612e-05 -0.00105975 0)
(0.000274922 -0.00102678 0)
(0.000455244 -0.000949821 0)
(0.000635476 -0.000834276 0)
(0.000804795 -0.000676856 0)
(0.000972613 -0.000483907 0)
(0.00112085 -0.000244666 0)
(0.00126353 1.65085e-05 0)
(0.00138399 0.000321256 0)
(0.00146543 0.00061929 0)
(0.00151504 0.000914696 0)
(0.0015146 0.00118969 0)
(0.00147214 0.00144585 0)
(0.00138565 0.00167402 0)
(0.00126276 0.00187149 0)
(0.00110414 0.00203394 0)
(0.000917803 0.00215877 0)