/*--------------------------------*- C++ -*----------------------------------*\
  =========                 |
  \\      /  F ield         | OpenFOAM: The Open Source CFD Toolbox
   \\    /   O peration     | Website:  https://openfoam.org
    \\  /    A nd           | Version:  12
     \\/     M anipulation  |
\*---------------------------------------------------------------------------*/
FoamFile
{
    format      ascii;
    class       volScalarField;
    location    "30";
    object      alpha.air2;
}
// * * * * * * * * * * * * * * * * * * * * * * * * * * * * * * * * * * * * * //

dimensions      [0 0 0 0 0 0 0];

internalField   nonuniform List<scalar> 
110
(
5.66217776e-78
1.44777737e-66
6.36587019e-56
1.27124521e-43
1.52185587e-10
1.67823578e-08
1.09663619e-07
4.12445856e-07
1.17138732e-06
2.77742025e-06
5.80005431e-06
1.10152355e-05
1.94292639e-05
3.22967945e-05
5.11333639e-05
7.77216646e-05
0.000114112625
0.00016262152
0.000225817622
0.000306511835
0.000407732851
0.000532738415
0.000684927324
0.000867821807
0.00108515421
0.00134073303
0.0016383859
0.00198199885
0.00237546698
0.00282265989
0.00332739148
0.00389339765
0.00452430256
0.00522360209
0.00599462994
0.00684054704
0.00776430869
0.00876866042
0.00985610884
0.0110289137
0.0122890747
0.0136383204
0.0150781001
0.0166095767
0.018233622
0.0199508135
0.0217614328
0.0236654659
0.0256626044
0.0277522486
0.0299335124
0.0322052285
0.0345659552
0.037013984
0.0395473485
0.0421638335
0.0448609853
0.0476361223
0.0504863469
0.0534085569
0.0563994588
0.0594555798
0.062573282
0.0657487748
0.068978129
0.0722572893
0.0755820882
0.0789482588
0.0823514479
0.0857872293
0.0892511168
0.0927385769
0.0962450416
0.0997659205
0.103296613
0.106832518
0.110369049
0.113901641
0.117425761
0.12093692
0.124430684
0.127902677
0.131348598
0.134764221
0.138145408
0.141488116
0.1447884
0.148042423
0.151246462
0.154396909
0.157490282
0.160523225
0.163492514
0.16639506
0.169227913
0.171988264
0.174673447
0.177280943
0.179808381
0.182253532
0.184614338
0.186888812
0.189075442
0.19117151
0.193179844
0.19508457
0.196939861
0.198528771
0.201115853
0.202542938
)
;

boundaryField
{
    inlet
    {
        type            fixedValue;
        value           uniform 0;
    }
    outlet
    {
        type            zeroGradient;
    }
    defaultFaces
    {
        type            empty;
    }
}


// ************************************************************************* //
