/*--------------------------------*- C++ -*----------------------------------*\
  =========                 |
  \\      /  F ield         | OpenFOAM: The Open Source CFD Toolbox
   \\    /   O peration     | Website:  https://openfoam.org
    \\  /    A nd           | Version:  12
     \\/     M anipulation  |
\*---------------------------------------------------------------------------*/
FoamFile
{
    format      ascii;
    class       surfaceScalarField;
    location    "30";
    object      alphaRhoPhi.air1;
}
// * * * * * * * * * * * * * * * * * * * * * * * * * * * * * * * * * * * * * //

dimensions      [1 0 -1 0 0 0 0];

internalField   nonuniform List<scalar> 
109
(
-3.49455031e-84
3.26159451e-83
7.17054578e-72
0
0.00100000001
0.000999999909
0.000999999403
0.000999998028
0.000999994689
0.000999987982
0.000999975774
0.000999955332
0.000999923125
0.000999874856
0.000999805402
0.0009997088
0.000999578315
0.000999406369
0.000999184658
0.000998904155
0.000998555209
0.000998127632
0.000997610729
0.000996993383
0.000996264156
0.00099541142
0.000994423441
0.000993288407
0.000991994579
0.000990530377
0.000988884435
0.000987045704
0.000985003525
0.000982747697
0.000980268543
0.000977556974
0.000974604539
0.000971403467
0.000967946714
0.000964228001
0.000960241831
0.00095598352
0.000951449208
0.000946635871
0.000941541323
0.000936164221
0.000930504054
0.000924561136
0.000918336589
0.000911832327
0.000905051035
0.000897996142
0.000890671795
0.000883082829
0.000875234731
0.00086713361
0.000858786157
0.000850199608
0.000841381709
0.000832340672
0.00082308514
0.000813624144
0.000803967068
0.000794123605
0.000784103722
0.000773917616
0.000763575685
0.000753088479
0.000742466676
0.000731721039
0.000720862383
0.000709901547
0.000698849362
0.000687716618
0.00067651404
0.000665252262
0.000653941796
0.000642593017
0.000631216134
0.000619821174
0.000608417964
0.000597016108
0.000585624978
0.000574253698
0.000562911129
0.000551605862
0.000540346201
0.000529140163
0.000517995465
0.000506919521
0.000495919432
0.000485001991
0.000474173673
0.000463440636
0.000452808721
0.000442283451
0.000431870034
0.000421573363
0.00041139802
0.000401348279
0.00039142811
0.000381641183
0.000371990876
0.000362480278
0.000353112208
0.000343889174
0.000334813486
0.000325887975
0.000317114683
)
;

boundaryField
{
    inlet
    {
        type            calculated;
        value           uniform -0;
    }
    outlet
    {
        type            calculated;
        value           uniform 0.000308493106;
    }
    defaultFaces
    {
        type            empty;
    }
}


// ************************************************************************* //
