/*--------------------------------*- C++ -*----------------------------------*\
  =========                 |
  \\      /  F ield         | OpenFOAM: The Open Source CFD Toolbox
   \\    /   O peration     | Website:  https://openfoam.org
    \\  /    A nd           | Version:  12
     \\/     M anipulation  |
\*---------------------------------------------------------------------------*/
FoamFile
{
    format      ascii;
    class       surfaceScalarField;
    location    "30";
    object      alphaRhoPhi.air3;
}
// * * * * * * * * * * * * * * * * * * * * * * * * * * * * * * * * * * * * * //

dimensions      [1 0 -1 0 0 0 0];

internalField   nonuniform List<scalar> 
109
(
-1.38294888e-83
9.74843022e-84
-5.00226838e-60
0
1.82819166e-18
7.64094486e-18
7.15490777e-17
5.58681013e-16
3.08503026e-15
1.31138375e-14
4.59517667e-14
1.3891911e-13
3.73744825e-13
9.14722322e-13
2.06980796e-12
4.3835562e-12
8.77252773e-12
1.6715464e-11
3.05119991e-11
5.36250477e-11
9.11228626e-11
1.50235925e-10
2.41049339e-10
3.77350442e-10
5.77634475e-10
8.66289898e-10
1.27498785e-09
1.84427681e-09
2.62539316e-09
3.68229609e-09
5.09393166e-09
6.95672794e-09
9.38731786e-09
1.25254848e-08
1.65373223e-08
2.16185966e-08
2.79982959e-08
3.59423475e-08
4.57574755e-08
5.77951909e-08
7.24558658e-08
9.0192875e-08
1.11516768e-07
1.36999438e-07
1.67278256e-07
2.03060134e-07
2.45125475e-07
2.94331988e-07
3.51618304e-07
4.18007391e-07
4.94609699e-07
5.82626027e-07
6.83350076e-07
7.98170637e-07
9.28573414e-07
1.07614243e-06
1.24256102e-06
1.42961236e-06
1.63917955e-06
1.87324521e-06
2.1338906e-06
2.42329425e-06
2.74373004e-06
3.09756482e-06
3.48725552e-06
3.91534576e-06
4.38446194e-06
4.89730888e-06
5.45666504e-06
6.06537723e-06
6.72635496e-06
7.44256435e-06
8.21702172e-06
9.05278675e-06
9.95295538e-06
1.09206524e-05
1.19590238e-05
1.30712288e-05
1.42604318e-05
1.55297942e-05
1.68824659e-05
1.83215767e-05
1.98502283e-05
2.14714851e-05
2.31883664e-05
2.50038373e-05
2.69208007e-05
2.89420892e-05
3.10704564e-05
3.33085696e-05
3.56590018e-05
3.81242242e-05
4.07065993e-05
4.34083735e-05
4.62316709e-05
4.91784869e-05
5.22506825e-05
5.54499782e-05
5.87779496e-05
6.22360222e-05
6.58254671e-05
6.95473975e-05
7.34027646e-05
7.73923553e-05
8.1516783e-05
8.57765088e-05
9.01717876e-05
9.4702284e-05
9.93677167e-05
)
;

boundaryField
{
    inlet
    {
        type            calculated;
        value           uniform -0;
    }
    outlet
    {
        type            calculated;
        value           uniform 0.000104168915;
    }
    defaultFaces
    {
        type            empty;
    }
}


// ************************************************************************* //
