/*--------------------------------*- C++ -*----------------------------------*\
  =========                 |
  \\      /  F ield         | OpenFOAM: The Open Source CFD Toolbox
   \\    /   O peration     | Website:  https://openfoam.org
    \\  /    A nd           | Version:  12
     \\/     M anipulation  |
\*---------------------------------------------------------------------------*/
FoamFile
{
    format      ascii;
    class       volScalarField;
    location    "30";
    object      alpha.air3;
}
// * * * * * * * * * * * * * * * * * * * * * * * * * * * * * * * * * * * * * //

dimensions      [0 0 0 0 0 0 0];

internalField   nonuniform List<scalar> 
110
(
1.81536638e-80
3.23787402e-68
4.09333227e-56
1.74003217e-44
3.50988074e-16
1.41983022e-15
1.26277662e-14
1.01197152e-13
5.83867217e-13
2.58860259e-12
9.41991898e-12
2.94460476e-11
8.15984388e-11
2.05014049e-10
4.74840827e-10
1.02676976e-09
2.09351121e-09
4.05694603e-09
7.52007258e-09
1.34034943e-08
2.30712812e-08
3.84937816e-08
6.24457366e-08
9.87528956e-08
1.5260307e-07
2.30895306e-07
3.42652013e-07
4.99513305e-07
7.16291543e-07
1.01159908e-06
1.40855239e-06
1.93555704e-06
2.62716361e-06
3.52500833e-06
4.67881841e-06
6.14750233e-06
8.0002915e-06
1.0317966e-05
1.31941124e-05
1.67364494e-05
2.10681874e-05
2.63294206e-05
3.26785417e-05
4.02936676e-05
4.93740654e-05
6.01415683e-05
7.28419697e-05
8.77463816e-05
0.000105152546
0.000125386087
0.000148801695
0.000175784219
0.00020674968
0.000242146168
0.000282454623
0.000328189505
0.000379899313
0.000438166975
0.000503610086
0.000576880999
0.000658666746
0.000749688812
0.00085070273
0.000962497513
0.00108589492
0.00122174853
0.00137094271
0.00153439132
0.00171303634
0.00190784633
0.00211981468
0.00234995781
0.00259931316
0.00286893706
0.00315990253
0.00347329689
0.00381021933
0.00417177832
0.00455908904
0.0049732706
0.00541544334
0.00588672598
0.00638823276
0.00692107059
0.00748633615
0.008085113
0.00871846871
0.00938745199
0.0100930899
0.0108363849
0.0116183123
0.0124398177
0.0133018139
0.0142051789
0.0151507532
0.0161393376
0.0171716907
0.0182485272
0.0193705159
0.020538276
0.0217523848
0.0230133329
0.0243217175
0.0256773633
0.0270832427
0.0285284155
0.030063267
0.0314732275
0.0340060188
0.0356686281
)
;

boundaryField
{
    inlet
    {
        type            fixedValue;
        value           uniform 0;
    }
    outlet
    {
        type            zeroGradient;
    }
    defaultFaces
    {
        type            empty;
    }
}


// ************************************************************************* //
