/*--------------------------------*- C++ -*----------------------------------*\
  =========                 |
  \\      /  F ield         | OpenFOAM: The Open Source CFD Toolbox
   \\    /   O peration     | Website:  https://openfoam.org
    \\  /    A nd           | Version:  12
     \\/     M anipulation  |
\*---------------------------------------------------------------------------*/
FoamFile
{
    format      ascii;
    class       surfaceScalarField;
    location    "30";
    object      alphaRhoPhi.water;
}
// * * * * * * * * * * * * * * * * * * * * * * * * * * * * * * * * * * * * * //

dimensions      [1 0 -1 0 0 0 0];

internalField   nonuniform List<scalar> 
109
(
-2.2793743e-14
2.12942027e-13
1.48077261e-12
-7.77473225e-11
-1.10693943e-08
-2.06443436e-09
1.93627549e-08
-7.35840383e-09
2.0377414e-09
-5.37022897e-09
2.39816946e-09
-2.30279051e-09
-1.58072332e-09
1.29736778e-09
1.33422958e-09
7.03318799e-09
3.32331337e-09
1.08259127e-09
-7.17128053e-09
-7.38213842e-09
2.5065896e-09
7.3481519e-09
7.82278386e-09
4.18913428e-09
4.54519459e-09
8.04243906e-09
2.63668591e-09
7.82346617e-10
4.06432207e-09
4.25790451e-09
3.93254729e-09
4.72195945e-09
5.15540135e-09
5.88595696e-09
7.00701732e-09
7.68875731e-09
7.2745973e-09
7.02189431e-09
8.56309102e-09
1.0368172e-08
1.20150871e-08
1.30637855e-08
1.40049477e-08
1.48266903e-08
1.5256475e-08
1.50751271e-08
1.43177319e-08
1.35825013e-08
1.38870874e-08
1.62230883e-08
2.1127065e-08
2.83863663e-08
3.70208551e-08
4.55349929e-08
5.22788272e-08
5.58729959e-08
5.55996172e-08
5.16753746e-08
4.53331858e-08
3.85234901e-08
3.34080295e-08
3.16896043e-08
3.40597258e-08
3.99823134e-08
4.78355377e-08
5.54582893e-08
6.07264633e-08
6.21752623e-08
5.92356343e-08
5.22334754e-08
4.20598087e-08
2.97528621e-08
1.61841412e-08
1.90153385e-09
-1.27372136e-08
-2.73742312e-08
-4.14168842e-08
-5.39762022e-08
-6.39879021e-08
-7.04380193e-08
-7.26098659e-08
-7.02386688e-08
-6.35206789e-08
-5.2983708e-08
-3.93140052e-08
-2.32273605e-08
-5.37461742e-09
1.36726953e-08
3.33882054e-08
5.32679889e-08
7.28419223e-08
9.16869285e-08
1.09473289e-07
1.25971721e-07
1.41064287e-07
1.54715506e-07
1.66946406e-07
1.77814228e-07
1.87391398e-07
1.95775565e-07
2.03085029e-07
2.09455501e-07
2.15038838e-07
2.19948491e-07
2.2426197e-07
2.28095387e-07
2.31271136e-07
2.33853966e-07
2.35289968e-07
)
;

boundaryField
{
    inlet
    {
        type            calculated;
        value           uniform 0;
    }
    outlet
    {
        type            calculated;
        value           uniform 2.36237973e-07;
    }
    defaultFaces
    {
        type            empty;
    }
}


// ************************************************************************* //
