/*--------------------------------*- C++ -*----------------------------------*\
  =========                 |
  \\      /  F ield         | OpenFOAM: The Open Source CFD Toolbox
   \\    /   O peration     | Website:  https://openfoam.org
    \\  /    A nd           | Version:  12
     \\/     M anipulation  |
\*---------------------------------------------------------------------------*/
FoamFile
{
    format      ascii;
    class       surfaceScalarField;
    location    "30";
    object      alphaRhoPhi.air2;
}
// * * * * * * * * * * * * * * * * * * * * * * * * * * * * * * * * * * * * * //

dimensions      [1 0 -1 0 0 0 0];

internalField   nonuniform List<scalar> 
109
(
-4.10003166e-83
3.82671055e-82
1.20965936e-70
0
8.92279132e-13
9.77242228e-11
5.68205943e-10
1.97976354e-09
5.30541108e-09
1.2025714e-08
2.42247765e-08
4.46697307e-08
7.68740561e-08
1.25142298e-07
1.945968e-07
2.9118516e-07
4.21672176e-07
5.93614977e-07
8.15321584e-07
1.09580043e-06
1.44469655e-06
1.87220966e-06
2.38902142e-06
3.00623564e-06
3.73526273e-06
4.5877043e-06
5.57528166e-06
6.70974921e-06
8.00279193e-06
9.46593732e-06
1.11104677e-05
1.29473351e-05
1.49870831e-05
1.72397727e-05
1.97149133e-05
2.24213998e-05
2.5367456e-05
2.85605847e-05
3.20075201e-05
3.57141941e-05
3.96857014e-05
4.39262738e-05
4.84392609e-05
5.32271151e-05
5.82913834e-05
6.36327037e-05
6.9250806e-05
7.51445186e-05
8.13117791e-05
8.77496491e-05
9.44543331e-05
0.000101421201
0.000108644813
0.000116118949
0.000123836636
0.000131790184
0.000139971219
0.000148370721
0.000156979061
0.00016578604
0.000174780933
0.000183952527
0.000193289164
0.000202778785
0.000212408969
0.000222166976
0.000232039785
0.000242014142
0.000252076593
0.000262213527
0.000272411218
0.000282655859
0.000292933603
0.000303230598
0.000313533024
0.000323827123
0.000334099233
0.000344335822
0.000354523513
0.000364649117
0.000374699658
0.0003846624
0.000394524871
0.000404274882
0.000413900554
0.000423390332
0.000432733009
0.000441917737
0.000450934045
0.000459771854
0.000468421489
0.000476873686
0.000485119609
0.000493150854
0.000500959455
0.000508537894
0.000515879102
0.000522976465
0.000529823827
0.000536415487
0.000542746204
0.000548811194
0.000554606129
0.000560127131
0.00056537077
0.000570334075
0.000575014481
0.000579409494
0.000583517352
)
;

boundaryField
{
    inlet
    {
        type            calculated;
        value           uniform -0;
    }
    outlet
    {
        type            calculated;
        value           uniform 0.000587337731;
    }
    defaultFaces
    {
        type            empty;
    }
}


// ************************************************************************* //
