/*--------------------------------*- C++ -*----------------------------------*\
  =========                 |
  \\      /  F ield         | OpenFOAM: The Open Source CFD Toolbox
   \\    /   O peration     | Website:  https://openfoam.org
    \\  /    A nd           | Version:  12
     \\/     M anipulation  |
\*---------------------------------------------------------------------------*/
FoamFile
{
    format      ascii;
    class       volScalarField;
    location    "30";
    object      alpha.air1;
}
// * * * * * * * * * * * * * * * * * * * * * * * * * * * * * * * * * * * * * //

dimensions      [0 0 0 0 0 0 0];

internalField   nonuniform List<scalar> 
110
(
7.03945599e-79
1.23629617e-67
4.07692939e-57
1.13195182e-50
0.340964655
0.319039498
0.321157283
0.32070468
0.320872649
0.321064799
0.32127841
0.321495088
0.32171097
0.32192329
0.322130174
0.322329701
0.32251977
0.322698076
0.322862052
0.323009193
0.323134818
0.32323835
0.323361204
0.32337812
0.32337202
0.323342766
0.323274541
0.323160616
0.322997047
0.322780065
0.322505693
0.322170315
0.32177012
0.321301724
0.320761588
0.320146646
0.319453722
0.318680131
0.317823225
0.316880616
0.315850178
0.314730041
0.313518597
0.312214504
0.310816693
0.309324363
0.307736989
0.306054313
0.304276346
0.302403361
0.300435889
0.298374713
0.296220859
0.293975588
0.291640389
0.289216962
0.286707216
0.284113249
0.281437341
0.278681943
0.275849659
0.272943239
0.269965567
0.266919644
0.263808579
0.260635575
0.25740392
0.254116967
0.25077813
0.247390867
0.243958672
0.240485063
0.236973569
0.233427726
0.229851063
0.226247092
0.222619303
0.218971152
0.215306058
0.21162739
0.207938464
0.204242536
0.200542797
0.196842364
0.193144281
0.189451511
0.185766932
0.182093333
0.178433415
0.174789782
0.171164944
0.167561315
0.163981205
0.160426829
0.156900299
0.153403623
0.149938711
0.146507369
0.143111303
0.139752123
0.136431311
0.133150369
0.129910223
0.126713647
0.123555244
0.120464671
0.11732094
0.114606546
0.109957398
0.107026635
)
;

boundaryField
{
    inlet
    {
        type            fixedValue;
        value           uniform 0;
    }
    outlet
    {
        type            zeroGradient;
    }
    defaultFaces
    {
        type            empty;
    }
}


// ************************************************************************* //
