/*--------------------------------*- C++ -*----------------------------------*\
  =========                 |
  \\      /  F ield         | OpenFOAM: The Open Source CFD Toolbox
   \\    /   O peration     | Website:  https://openfoam.org
    \\  /    A nd           | Version:  12
     \\/     M anipulation  |
\*---------------------------------------------------------------------------*/
FoamFile
{
    format      ascii;
    class       volScalarField;
    location    "30";
    object      alpha.air2;
}
// * * * * * * * * * * * * * * * * * * * * * * * * * * * * * * * * * * * * * //

dimensions      [0 0 0 0 0 0 0];

internalField   nonuniform List<scalar> 
110
(
9.50913379e-63
1.64725229e-50
2.06706066e-38
8.6480079e-27
1.52186255e-10
1.67823333e-08
1.09663198e-07
4.12445849e-07
1.17138862e-06
2.77742754e-06
5.80004308e-06
1.10152239e-05
1.94292786e-05
3.22968319e-05
5.11333279e-05
7.772161e-05
0.000114112712
0.000162621499
0.000225817476
0.000306511776
0.000407733004
0.000532738648
0.000684927373
0.000867821929
0.00108515436
0.00134073285
0.00163838602
0.00198199897
0.00237546707
0.00282266022
0.00332739192
0.00389339806
0.00452430293
0.00522360234
0.00599463009
0.00684054701
0.00776430852
0.00876866002
0.00985610833
0.0110289131
0.0122890739
0.0136383196
0.0150780994
0.0166095764
0.018233622
0.0199508138
0.021761433
0.0236654656
0.0256626034
0.0277522471
0.0299335107
0.0322052269
0.0345659541
0.0370139836
0.0395473487
0.0421638341
0.0448609857
0.0476361219
0.050486345
0.0534085532
0.0563994533
0.0594555732
0.0625732753
0.0657487693
0.0689781256
0.072257289
0.0755820914
0.0789482653
0.0823514572
0.0857872407
0.0892511292
0.0927385893
0.0962450527
0.099765929
0.103296617
0.106832517
0.110369042
0.113901626
0.117425739
0.120936892
0.12443065
0.12790264
0.131348558
0.134764179
0.138145366
0.141488075
0.14478836
0.148042385
0.151246425
0.154396874
0.157490249
0.160523195
0.163492485
0.166395034
0.169227888
0.171988241
0.174673426
0.177280924
0.179808364
0.182253517
0.184614325
0.186888801
0.189075432
0.191171502
0.193179837
0.195084565
0.196939856
0.198528768
0.201115851
0.202542937
)
;

boundaryField
{
    inlet
    {
        type            fixedValue;
        value           uniform 0;
    }
    outlet
    {
        type            zeroGradient;
    }
    defaultFaces
    {
        type            empty;
    }
}


// ************************************************************************* //
