/*--------------------------------*- C++ -*----------------------------------*\
  =========                 |
  \\      /  F ield         | OpenFOAM: The Open Source CFD Toolbox
   \\    /   O peration     | Website:  https://openfoam.org
    \\  /    A nd           | Version:  12
     \\/     M anipulation  |
\*---------------------------------------------------------------------------*/
FoamFile
{
    format      ascii;
    class       volScalarField;
    location    "30";
    object      alpha.bubbles;
}
// * * * * * * * * * * * * * * * * * * * * * * * * * * * * * * * * * * * * * //

dimensions      [0 0 0 0 0 0 0];

internalField   nonuniform List<scalar> 
110
(
3e-06
3e-06
3e-06
3e-06
0.340966658
0.319041491
0.321159273
0.320706687
0.320874819
0.321068579
0.321285217
0.321507099
0.321731387
0.321956598
0.322182315
0.322408416
0.322634889
0.322861702
0.323088861
0.32331669
0.323543543
0.32377209
0.324047135
0.324246945
0.324458176
0.324684497
0.324913928
0.325143615
0.325373514
0.325603739
0.325834499
0.326065655
0.326297059
0.326528857
0.326760904
0.326993346
0.327226036
0.327459113
0.32769253
0.327926269
0.328160323
0.328394692
0.328629376
0.328864377
0.329099693
0.329335325
0.329571271
0.329807532
0.330044108
0.330280999
0.330518205
0.330755728
0.330993567
0.331231724
0.3314702
0.331708995
0.331948111
0.332187547
0.332427305
0.332667383
0.332907782
0.333148502
0.333389543
0.333630908
0.333872598
0.334114614
0.334356958
0.334599632
0.334842635
0.335085969
0.335329634
0.335573629
0.335817954
0.336062611
0.336307598
0.336552918
0.33679857
0.337044557
0.337290881
0.337537541
0.337784541
0.338031882
0.338279564
0.338527589
0.338775959
0.339024675
0.339273737
0.339523148
0.339772909
0.340023022
0.340273489
0.340524311
0.34077549
0.341027028
0.341278927
0.341531189
0.341783816
0.34203681
0.342290172
0.342543906
0.342798012
0.343052494
0.343307364
0.343562504
0.343818316
0.344077643
0.344324055
0.344608534
0.345079262
0.345238193
)
;

boundaryField
{
    inlet
    {
        type            calculated;
        value           uniform 3e-06;
    }
    outlet
    {
        type            calculated;
        value           uniform 0.345238193;
    }
    defaultFaces
    {
        type            empty;
    }
}


// ************************************************************************* //
