/*--------------------------------*- C++ -*----------------------------------*\
  =========                 |
  \\      /  F ield         | OpenFOAM: The Open Source CFD Toolbox
   \\    /   O peration     | Website:  https://openfoam.org
    \\  /    A nd           | Version:  12
     \\/     M anipulation  |
\*---------------------------------------------------------------------------*/
FoamFile
{
    format      ascii;
    class       surfaceScalarField;
    location    "30";
    object      alphaRhoPhi.air1;
}
// * * * * * * * * * * * * * * * * * * * * * * * * * * * * * * * * * * * * * //

dimensions      [1 0 -1 0 0 0 0];

internalField   nonuniform List<scalar> 
109
(
-6.78747617e-67
4.78441555e-67
-7.50746649e-52
0
0.000999999999
0.000999999904
0.00099999943
0.000999998022
0.000999994693
0.000999987978
0.000999975787
0.000999955315
0.000999923123
0.000999874879
0.0009998054
0.000999708804
0.000999578324
0.000999406363
0.000999184636
0.000998904138
0.00099855521
0.000998127641
0.000997610739
0.000996993387
0.000996264158
0.000995411428
0.000994423442
0.000993288406
0.000991994584
0.000990530384
0.000988884445
0.000987045716
0.000985003536
0.000982747707
0.000980268553
0.000977556983
0.000974604545
0.000971403471
0.000967946719
0.000964228004
0.000960241833
0.000955983522
0.00095144921
0.000946635874
0.000941541329
0.000936164229
0.000930504063
0.000924561144
0.000918336595
0.000911832331
0.000905051038
0.000897996145
0.0008906718
0.000883082835
0.00087523474
0.00086713362
0.000858786168
0.000850199619
0.000841381718
0.000832340678
0.000823085143
0.000813624145
0.000803967067
0.000794123604
0.000784103722
0.000773917619
0.000763575692
0.000753088491
0.000742466692
0.000731721058
0.000720862406
0.000709901573
0.000698849389
0.000687716645
0.000676514066
0.000665252284
0.000653941815
0.00064259303
0.000631216142
0.000619821177
0.000608417962
0.000597016103
0.000585624971
0.00057425369
0.000562911121
0.000551605854
0.000540346194
0.000529140157
0.000517995461
0.000506919517
0.000495919429
0.000485001989
0.000474173671
0.000463440634
0.000452808719
0.000442283449
0.000431870032
0.000421573361
0.000411398017
0.000401348275
0.000391428105
0.000381641179
0.000371990871
0.000362480273
0.000353112202
0.000343889168
0.00033481348
0.000325887969
0.000317114677
)
;

boundaryField
{
    inlet
    {
        type            calculated;
        value           uniform -0;
    }
    outlet
    {
        type            calculated;
        value           uniform 0.0003084931;
    }
    defaultFaces
    {
        type            empty;
    }
}


// ************************************************************************* //
