/*--------------------------------*- C++ -*----------------------------------*\
  =========                 |
  \\      /  F ield         | OpenFOAM: The Open Source CFD Toolbox
   \\    /   O peration     | Website:  https://openfoam.org
    \\  /    A nd           | Version:  12
     \\/     M anipulation  |
\*---------------------------------------------------------------------------*/
FoamFile
{
    format      ascii;
    class       volScalarField;
    location    "30";
    object      alpha.air3;
}
// * * * * * * * * * * * * * * * * * * * * * * * * * * * * * * * * * * * * * //

dimensions      [0 0 0 0 0 0 0];

internalField   nonuniform List<scalar> 
110
(
9.48933088e-91
2.21737441e-79
2.58958513e-69
5.16953962e-57
3.39017599e-16
1.39081516e-15
1.25688766e-14
1.01089422e-13
5.83679261e-13
2.58827349e-12
9.41938082e-12
2.94451039e-11
8.15962896e-11
2.05008764e-10
4.74830268e-10
1.02675047e-09
2.093479e-09
4.05690837e-09
7.52003304e-09
1.34034431e-08
2.30712036e-08
3.84936841e-08
6.24456594e-08
9.87527967e-08
1.52602958e-07
2.30895272e-07
3.42651871e-07
4.99513149e-07
7.16291377e-07
1.01159873e-06
1.40855189e-06
1.93555646e-06
2.62716296e-06
3.52500765e-06
4.67881772e-06
6.14750173e-06
8.00029093e-06
1.03179656e-05
1.31941121e-05
1.67364491e-05
2.10681875e-05
2.63294209e-05
3.26785419e-05
4.02936667e-05
4.9374063e-05
6.01415658e-05
7.28419699e-05
8.77463874e-05
0.00010515256
0.000125386109
0.000148801723
0.000175784251
0.000206749713
0.000242146199
0.000282454656
0.000328189544
0.000379899368
0.00043816706
0.000503610217
0.000576881186
0.000658666992
0.000749689105
0.000850703045
0.000962497816
0.00108589517
0.0012217487
0.00137094277
0.00153439125
0.00171303615
0.00190784602
0.00211981428
0.00234995735
0.00259931269
0.00286893664
0.00315990223
0.0034732968
0.00381021951
0.00417177884
0.00455908991
0.00497327182
0.00541544485
0.0058867277
0.0063882346
0.00692107246
0.00748633799
0.00808511475
0.00871847032
0.00938745343
0.0100930911
0.0108363859
0.0116183131
0.0124398182
0.0133018141
0.0142051788
0.0151507527
0.0161393367
0.0171716895
0.0182485256
0.0193705139
0.0205382735
0.0217523818
0.0230133294
0.0243217136
0.0256773589
0.0270832378
0.0285284102
0.0300632613
0.0314732213
0.0340060119
0.0356686209
)
;

boundaryField
{
    inlet
    {
        type            fixedValue;
        value           uniform 0;
    }
    outlet
    {
        type            zeroGradient;
    }
    defaultFaces
    {
        type            empty;
    }
}


// ************************************************************************* //
