/*--------------------------------*- C++ -*----------------------------------*\
  =========                 |
  \\      /  F ield         | OpenFOAM: The Open Source CFD Toolbox
   \\    /   O peration     | Website:  https://openfoam.org
    \\  /    A nd           | Version:  12
     \\/     M anipulation  |
\*---------------------------------------------------------------------------*/
FoamFile
{
    format      ascii;
    class       surfaceScalarField;
    location    "30";
    object      alphaRhoPhi.water;
}
// * * * * * * * * * * * * * * * * * * * * * * * * * * * * * * * * * * * * * //

dimensions      [1 0 -1 0 0 0 0];

internalField   nonuniform List<scalar> 
109
(
-3.44285729e-13
2.42916064e-13
-2.32205665e-13
1.08318909e-12
2.01240387e-10
-1.10775107e-09
1.29975518e-09
-9.22749369e-10
1.28337449e-09
-3.07294634e-09
-8.42239513e-09
1.30111131e-08
2.2841607e-09
-1.67464228e-08
2.0443509e-09
5.73350108e-09
-3.125351e-09
5.32270278e-09
1.12986913e-08
7.3014451e-09
2.57807797e-09
8.81052256e-11
3.49471504e-10
1.06094639e-09
2.3783558e-09
3.03008821e-09
2.4944426e-09
1.86522085e-09
8.5614489e-10
-1.69571057e-09
-4.09916059e-09
-5.07994469e-09
-3.8951023e-09
-1.96702488e-09
-5.55954962e-10
1.5140672e-09
3.82979898e-09
5.20250543e-09
7.30077207e-09
1.00227912e-08
1.24660563e-08
1.42868936e-08
1.42301521e-08
1.2496482e-08
1.0165606e-08
8.31083576e-09
7.82550305e-09
9.15007917e-09
1.22504561e-08
1.682742e-08
2.247866e-08
2.87146948e-08
3.49263655e-08
4.03667292e-08
4.43216515e-08
4.63837893e-08
4.66242614e-08
4.56141849e-08
4.42501395e-08
4.34465912e-08
4.382283e-08
4.54877774e-08
4.79730634e-08
5.03265336e-08
5.13697031e-08
4.99832879e-08
4.54446064e-08
3.76250391e-08
2.70348697e-08
1.47031773e-08
1.94680902e-09
-9.90934897e-09
-1.97463166e-08
-2.67831514e-08
-3.06306753e-08
-3.12644483e-08
-2.8956538e-08
-2.41834258e-08
-1.75080969e-08
-9.46292187e-09
-4.60498974e-10
9.2749409e-09
1.96968678e-08
3.08903471e-08
4.29599434e-08
5.59557166e-08
6.98033622e-08
8.42917726e-08
9.91089962e-08
1.13909143e-07
1.28368954e-07
1.42220177e-07
1.5525836e-07
1.6731994e-07
1.78262774e-07
1.87961524e-07
1.96327086e-07
2.03336079e-07
2.09054386e-07
2.13640214e-07
2.17320878e-07
2.20337689e-07
2.22887999e-07
2.25089289e-07
2.26942134e-07
2.2836272e-07
2.29237585e-07
2.29424578e-07
2.28476926e-07
)
;

boundaryField
{
    inlet
    {
        type            calculated;
        value           uniform 0;
    }
    outlet
    {
        type            calculated;
        value           uniform 2.27227474e-07;
    }
    defaultFaces
    {
        type            empty;
    }
}


// ************************************************************************* //
