/*--------------------------------*- C++ -*----------------------------------*\
  =========                 |
  \\      /  F ield         | OpenFOAM: The Open Source CFD Toolbox
   \\    /   O peration     | Website:  https://openfoam.org
    \\  /    A nd           | Version:  12
     \\/     M anipulation  |
\*---------------------------------------------------------------------------*/
FoamFile
{
    format      ascii;
    class       surfaceScalarField;
    location    "30";
    object      alphaRhoPhi.air2;
}
// * * * * * * * * * * * * * * * * * * * * * * * * * * * * * * * * * * * * * //

dimensions      [1 0 -1 0 0 0 0];

internalField   nonuniform List<scalar> 
109
(
-7.03567709e-66
4.95949362e-66
-2.48614119e-42
0
8.92280492e-13
9.77241363e-11
5.68204657e-10
1.97976231e-09
5.30541959e-09
1.20257294e-08
2.42247232e-08
4.46697288e-08
7.68741133e-08
1.25142328e-07
1.94596651e-07
2.91185091e-07
4.2167234e-07
5.93614747e-07
8.15321177e-07
1.09580041e-06
1.44469706e-06
1.8722101e-06
2.38902147e-06
3.00623591e-06
3.73526282e-06
4.58770385e-06
5.57528187e-06
6.70974931e-06
8.00279226e-06
9.46593827e-06
1.11104687e-05
1.29473359e-05
1.49870836e-05
1.7239773e-05
1.97149131e-05
2.2421399e-05
2.53674548e-05
2.8560583e-05
3.20075182e-05
3.57141919e-05
3.96856988e-05
4.39262715e-05
4.84392592e-05
5.32271147e-05
5.82913841e-05
6.36327047e-05
6.92508062e-05
7.51445172e-05
8.13117761e-05
8.7749645e-05
9.44543291e-05
0.000101421198
0.000108644812
0.00011611895
0.000123836638
0.000131790186
0.00013997122
0.000148370719
0.000156979054
0.000165786029
0.000174780919
0.000183952511
0.00019328915
0.000202778776
0.000212408966
0.00022216698
0.000232039797
0.00024201416
0.000252076616
0.000262213552
0.000272411242
0.00028265588
0.000292933618
0.000303230605
0.00031353302
0.000323827106
0.000334099201
0.000344335775
0.000354523453
0.000364649045
0.000374699579
0.000384662316
0.000394524784
0.000404274795
0.000413900468
0.00042339025
0.00043273293
0.000441917661
0.000450933973
0.000459771787
0.000468421425
0.000476873627
0.000485119554
0.000493150803
0.000500959408
0.000508537851
0.000515879063
0.00052297643
0.000529823796
0.00053641546
0.00054274618
0.000548811173
0.000554606111
0.000560127116
0.000565370756
0.000570334063
0.000575014472
0.000579409486
0.000583517346
)
;

boundaryField
{
    inlet
    {
        type            calculated;
        value           uniform -0;
    }
    outlet
    {
        type            calculated;
        value           uniform 0.000587337727;
    }
    defaultFaces
    {
        type            empty;
    }
}


// ************************************************************************* //
