/*--------------------------------*- C++ -*----------------------------------*\
  =========                 |
  \\      /  F ield         | OpenFOAM: The Open Source CFD Toolbox
   \\    /   O peration     | Website:  https://openfoam.org
    \\  /    A nd           | Version:  12
     \\/     M anipulation  |
\*---------------------------------------------------------------------------*/
FoamFile
{
    format      ascii;
    class       volScalarField;
    location    "30";
    object      d.air2;
}
// * * * * * * * * * * * * * * * * * * * * * * * * * * * * * * * * * * * * * //

dimensions      [0 1 0 0 0 0 0];

internalField   nonuniform List<scalar> 
110
(
0.00306
0.00306
0.00306
0.00306
0.00306070947
0.00306033725
0.00306044199
0.00306054873
0.00306065499
0.0030607617
0.00306086929
0.00306097763
0.00306108703
0.00306119781
0.00306130996
0.00306142337
0.00306153818
0.00306165452
0.00306177231
0.00306189157
0.00306201237
0.0030621347
0.00306225854
0.00306238394
0.00306251091
0.00306263941
0.00306276949
0.00306290111
0.00306303429
0.00306316901
0.00306330528
0.00306344307
0.00306358239
0.00306372322
0.00306386554
0.00306400935
0.00306415462
0.00306430134
0.0030644495
0.00306459905
0.00306475
0.00306490231
0.00306505597
0.00306521093
0.00306536718
0.00306552468
0.00306568341
0.00306584334
0.00306600443
0.00306616666
0.00306632998
0.00306649437
0.00306665979
0.0030668262
0.00306699357
0.00306716187
0.00306733104
0.00306750106
0.00306767188
0.00306784348
0.0030680158
0.0030681888
0.00306836245
0.00306853671
0.00306871154
0.00306888689
0.00306906272
0.00306923899
0.00306941567
0.00306959271
0.00306977007
0.00306994771
0.00307012559
0.00307030366
0.0030704819
0.00307066026
0.0030708387
0.00307101718
0.00307119567
0.00307137413
0.00307155251
0.00307173079
0.00307190892
0.00307208688
0.00307226462
0.00307244211
0.00307261932
0.00307279622
0.00307297277
0.00307314894
0.0030733247
0.00307350002
0.00307367488
0.00307384923
0.00307402306
0.00307419634
0.00307436903
0.00307454113
0.00307471259
0.0030748834
0.00307505353
0.00307522296
0.00307539167
0.00307555964
0.00307572684
0.00307589327
0.00307605889
0.00307622368
0.00307638761
0.0030765507
)
;

boundaryField
{
    inlet
    {
        type            calculated;
        value           uniform 0.00306;
    }
    outlet
    {
        type            calculated;
        value           uniform 0.0030765507;
    }
    defaultFaces
    {
        type            empty;
    }
}


// ************************************************************************* //
