/*--------------------------------*- C++ -*----------------------------------*\
  =========                 |
  \\      /  F ield         | OpenFOAM: The Open Source CFD Toolbox
   \\    /   O peration     | Website:  https://openfoam.org
    \\  /    A nd           | Version:  12
     \\/     M anipulation  |
\*---------------------------------------------------------------------------*/
FoamFile
{
    format      ascii;
    class       volScalarField;
    location    "30";
    object      d.air1;
}
// * * * * * * * * * * * * * * * * * * * * * * * * * * * * * * * * * * * * * //

dimensions      [0 1 0 0 0 0 0];

internalField   nonuniform List<scalar> 
110
(
0.003
0.003
0.003
0.003
0.00300031655
0.00300095468
0.00300159757
0.00300224064
0.00300288413
0.00300352781
0.00300417148
0.00300481514
0.00300545845
0.00300610126
0.00300674336
0.0030073844
0.00300802411
0.00300866212
0.00300929809
0.00300993156
0.00301056219
0.00301118956
0.00301181323
0.00301243279
0.00301304781
0.00301365785
0.00301426257
0.0030148615
0.00301545427
0.00301604055
0.00301661998
0.00301719224
0.00301775703
0.0030183141
0.00301886319
0.0030194041
0.00301993662
0.00302046058
0.00302097585
0.00302148232
0.00302197989
0.00302246848
0.00302294805
0.00302341858
0.00302388006
0.00302433249
0.0030247759
0.00302521034
0.00302563586
0.00302605253
0.00302646044
0.00302685967
0.00302725034
0.00302763256
0.00302800643
0.00302837211
0.0030287297
0.00302907934
0.00302942118
0.00302975536
0.00303008201
0.0030304013
0.00303071338
0.00303101839
0.00303131649
0.00303160782
0.00303189255
0.00303217082
0.00303244278
0.00303270858
0.00303296836
0.00303322226
0.00303347043
0.00303371301
0.00303395014
0.00303418196
0.00303440858
0.00303463016
0.00303484681
0.00303505867
0.00303526585
0.00303546848
0.00303566667
0.00303586054
0.00303605021
0.00303623577
0.00303641734
0.00303659503
0.00303676892
0.00303693913
0.00303710574
0.00303726885
0.00303742856
0.00303758495
0.00303773811
0.00303788811
0.00303803505
0.00303817901
0.00303832005
0.00303845825
0.00303859369
0.00303872644
0.00303885657
0.00303898413
0.00303910921
0.00303923185
0.00303935213
0.00303947009
0.00303958578
0.00303969929
)
;

boundaryField
{
    inlet
    {
        type            calculated;
        value           uniform 0.003;
    }
    outlet
    {
        type            calculated;
        value           uniform 0.00303969929;
    }
    defaultFaces
    {
        type            empty;
    }
}


// ************************************************************************* //
