/*--------------------------------*- C++ -*----------------------------------*\
  =========                 |
  \\      /  F ield         | OpenFOAM: The Open Source CFD Toolbox
   \\    /   O peration     | Website:  https://openfoam.org
    \\  /    A nd           | Version:  12
     \\/     M anipulation  |
\*---------------------------------------------------------------------------*/
FoamFile
{
    format      ascii;
    class       volScalarField;
    location    "30";
    object      d.air3;
}
// * * * * * * * * * * * * * * * * * * * * * * * * * * * * * * * * * * * * * //

dimensions      [0 1 0 0 0 0 0];

internalField   nonuniform List<scalar> 
110
(
0.00311
0.00311
0.00311
0.00311
0.00311000217
0.00311001359
0.00311012903
0.00311042704
0.00311083026
0.00311111677
0.00311113055
0.00311076732
0.00311013656
0.00310943359
0.00310895555
0.00310905842
0.00310959084
0.00311014456
0.00311055505
0.00311083213
0.00311102133
0.00311115885
0.00311126721
0.00311135935
0.00311144251
0.00311152075
0.00311159637
0.00311167072
0.00311174456
0.00311181836
0.00311189242
0.00311196691
0.00311204195
0.0031121176
0.00311219391
0.00311227093
0.00311234868
0.00311242717
0.00311250643
0.00311258648
0.00311266731
0.00311274895
0.0031128314
0.00311291466
0.00311299875
0.00311308368
0.00311316945
0.00311325607
0.00311334355
0.00311343189
0.0031135211
0.00311361119
0.00311370216
0.00311379403
0.00311388679
0.00311398046
0.00311407504
0.00311417053
0.00311426695
0.00311436429
0.00311446257
0.00311456179
0.00311466195
0.00311476306
0.00311486513
0.00311496817
0.00311507217
0.00311517714
0.0031152831
0.00311539003
0.00311549796
0.00311560688
0.0031157168
0.00311582773
0.00311593967
0.00311605262
0.00311616659
0.00311628159
0.00311639761
0.00311651467
0.00311663276
0.0031167519
0.00311687207
0.00311699329
0.00311711556
0.00311723888
0.00311736325
0.00311748867
0.00311761515
0.00311774269
0.00311787129
0.00311800095
0.00311813167
0.00311826345
0.0031183963
0.0031185302
0.00311866517
0.00311880121
0.0031189383
0.00311907645
0.00311921567
0.00311935594
0.00311949727
0.00311963965
0.00311978309
0.00311992758
0.00312007311
0.00312021967
0.00312036726
0.0031205159
)
;

boundaryField
{
    inlet
    {
        type            calculated;
        value           uniform 0.00311;
    }
    outlet
    {
        type            calculated;
        value           uniform 0.0031205159;
    }
    defaultFaces
    {
        type            empty;
    }
}


// ************************************************************************* //
