/*--------------------------------*- C++ -*----------------------------------*\
  =========                 |
  \\      /  F ield         | OpenFOAM: The Open Source CFD Toolbox
   \\    /   O peration     | Website:  https://openfoam.org
    \\  /    A nd           | Version:  12
     \\/     M anipulation  |
\*---------------------------------------------------------------------------*/
FoamFile
{
    format      ascii;
    class       volScalarField;
    location    "30";
    object      d.air2;
}
// * * * * * * * * * * * * * * * * * * * * * * * * * * * * * * * * * * * * * //

dimensions      [0 1 0 0 0 0 0];

internalField   nonuniform List<scalar> 
110
(
0.00306
0.00306
0.00306
0.00306
0.00306073606
0.00306033752
0.00306044206
0.00306054877
0.00306065519
0.00306076185
0.00306086924
0.00306097763
0.00306108718
0.00306119795
0.00306131
0.00306142343
0.00306153831
0.00306165463
0.0030617724
0.00306189167
0.00306201246
0.00306213479
0.00306225864
0.00306238404
0.00306251099
0.00306263948
0.00306276956
0.00306290117
0.00306303434
0.00306316906
0.00306330532
0.00306344312
0.00306358244
0.00306372326
0.00306386559
0.00306400939
0.00306415466
0.00306430138
0.00306444952
0.00306459907
0.00306475001
0.00306490232
0.00306505595
0.00306521091
0.00306536715
0.00306552464
0.00306568337
0.0030658433
0.00306600439
0.00306616661
0.00306632993
0.00306649432
0.00306665974
0.00306682615
0.00306699353
0.00306716182
0.00306733099
0.00306750101
0.00306767184
0.00306784344
0.00306801576
0.00306818877
0.00306836242
0.00306853669
0.00306871152
0.00306888688
0.00306906272
0.00306923901
0.00306941569
0.00306959274
0.00306977011
0.00306994775
0.00307012564
0.00307030372
0.00307048197
0.00307066033
0.00307083877
0.00307101725
0.00307119574
0.00307137419
0.00307155258
0.00307173085
0.00307190898
0.00307208693
0.00307226467
0.00307244216
0.00307261937
0.00307279626
0.00307297281
0.00307314898
0.00307332474
0.00307350005
0.0030736749
0.00307384925
0.00307402308
0.00307419635
0.00307436905
0.00307454113
0.00307471259
0.0030748834
0.00307505352
0.00307522295
0.00307539166
0.00307555962
0.00307572683
0.00307589325
0.00307605886
0.00307622365
0.00307638757
0.00307655067
)
;

boundaryField
{
    inlet
    {
        type            calculated;
        value           uniform 0.00306;
    }
    outlet
    {
        type            calculated;
        value           uniform 0.00307655067;
    }
    defaultFaces
    {
        type            empty;
    }
}


// ************************************************************************* //
