/*--------------------------------*- C++ -*----------------------------------*\
  =========                 |
  \\      /  F ield         | OpenFOAM: The Open Source CFD Toolbox
   \\    /   O peration     | Website:  https://openfoam.org
    \\  /    A nd           | Version:  12
     \\/     M anipulation  |
\*---------------------------------------------------------------------------*/
FoamFile
{
    format      ascii;
    class       volScalarField;
    location    "30";
    object      d.air3;
}
// * * * * * * * * * * * * * * * * * * * * * * * * * * * * * * * * * * * * * //

dimensions      [0 1 0 0 0 0 0];

internalField   nonuniform List<scalar> 
110
(
0.00311
0.00311
0.00311
0.00311
0.00311000402
0.00311016594
0.00311053438
0.00311080026
0.00311113028
0.00311132519
0.0031112674
0.00311086887
0.00311023649
0.00310954846
0.00310908285
0.00310917685
0.00310968121
0.0031102053
0.00311059372
0.00311085642
0.00311103667
0.00311116868
0.00311127361
0.00311136358
0.00311144535
0.00311152269
0.00311159773
0.00311167167
0.00311174523
0.00311181884
0.00311189276
0.00311196716
0.00311204212
0.00311211772
0.003112194
0.00311227099
0.00311234871
0.00311242719
0.00311250644
0.00311258647
0.00311266729
0.0031127489
0.00311283133
0.00311291458
0.00311299866
0.00311308358
0.00311316934
0.00311325596
0.00311334343
0.00311343178
0.003113521
0.00311361109
0.00311370208
0.00311379395
0.00311388672
0.00311398039
0.00311407497
0.00311417047
0.00311426689
0.00311436424
0.00311446252
0.00311456175
0.00311466193
0.00311476306
0.00311486515
0.0031149682
0.00311507223
0.00311517722
0.0031152832
0.00311539015
0.00311549809
0.00311560702
0.00311571695
0.00311582787
0.00311593981
0.00311605275
0.00311616671
0.00311628169
0.0031163977
0.00311651474
0.00311663281
0.00311675193
0.00311687208
0.00311699329
0.00311711554
0.00311723885
0.00311736321
0.00311748863
0.0031176151
0.00311774264
0.00311787123
0.00311800089
0.00311813161
0.0031182634
0.00311839624
0.00311853015
0.00311866513
0.00311880116
0.00311893826
0.00311907642
0.00311921564
0.00311935591
0.00311949725
0.00311963964
0.00311978308
0.00311992757
0.00312007311
0.00312021967
0.00312036726
0.0031205159
)
;

boundaryField
{
    inlet
    {
        type            calculated;
        value           uniform 0.00311;
    }
    outlet
    {
        type            calculated;
        value           uniform 0.0031205159;
    }
    defaultFaces
    {
        type            empty;
    }
}


// ************************************************************************* //
