/*--------------------------------*- C++ -*----------------------------------*\
  =========                 |
  \\      /  F ield         | OpenFOAM: The Open Source CFD Toolbox
   \\    /   O peration     | Website:  https://openfoam.org
    \\  /    A nd           | Version:  12
     \\/     M anipulation  |
\*---------------------------------------------------------------------------*/
FoamFile
{
    format      ascii;
    class       volScalarField;
    location    "30";
    object      d.air1;
}
// * * * * * * * * * * * * * * * * * * * * * * * * * * * * * * * * * * * * * //

dimensions      [0 1 0 0 0 0 0];

internalField   nonuniform List<scalar> 
110
(
0.003
0.003
0.003
0.003
0.00300031653
0.00300095468
0.00300159758
0.00300224064
0.00300288412
0.0030035278
0.0030041715
0.00300481507
0.00300545848
0.00300610131
0.00300674331
0.00300738441
0.00300802413
0.00300866209
0.00300929805
0.00300993157
0.00301056222
0.00301118958
0.00301181324
0.00301243278
0.00301304781
0.00301365786
0.00301426257
0.00301486149
0.00301545428
0.00301604055
0.00301661998
0.00301719224
0.00301775703
0.00301831409
0.00301886318
0.00301940408
0.0030199366
0.00302046056
0.00302097583
0.0030214823
0.00302197986
0.00302246844
0.00302294803
0.00302341856
0.00302388003
0.00302433246
0.00302477587
0.0030252103
0.00302563581
0.00302605248
0.00302646038
0.00302685962
0.00302725029
0.0030276325
0.00302800638
0.00302837204
0.00302872963
0.00302907927
0.00302942111
0.00302975529
0.00303008195
0.00303040125
0.00303071334
0.00303101836
0.00303131647
0.00303160782
0.00303189255
0.00303217083
0.00303244279
0.00303270859
0.00303296837
0.00303322227
0.00303347044
0.00303371302
0.00303395015
0.00303418196
0.00303440859
0.00303463017
0.00303484683
0.00303505869
0.00303526588
0.00303546851
0.00303566671
0.00303586059
0.00303605026
0.00303623584
0.00303641742
0.00303659511
0.00303676901
0.00303693922
0.00303710584
0.00303726897
0.00303742868
0.00303758508
0.00303773824
0.00303788825
0.0030380352
0.00303817916
0.00303832021
0.00303845842
0.00303859387
0.00303872663
0.00303885676
0.00303898433
0.00303910941
0.00303923206
0.00303935235
0.00303947031
0.00303958601
0.00303969952
)
;

boundaryField
{
    inlet
    {
        type            calculated;
        value           uniform 0.003;
    }
    outlet
    {
        type            calculated;
        value           uniform 0.00303969952;
    }
    defaultFaces
    {
        type            empty;
    }
}


// ************************************************************************* //
