/*--------------------------------*- C++ -*----------------------------------*\
  =========                 |
  \\      /  F ield         | OpenFOAM: The Open Source CFD Toolbox
   \\    /   O peration     | Website:  https://openfoam.org
    \\  /    A nd           | Version:  12
     \\/     M anipulation  |
\*---------------------------------------------------------------------------*/
FoamFile
{
    format      ascii;
    class       volScalarField;
    location    "30";
    object      d.bubbles;
}
// * * * * * * * * * * * * * * * * * * * * * * * * * * * * * * * * * * * * * //

dimensions      [0 1 0 0 0 0 0];

internalField   nonuniform List<scalar> 
110
(
0.00305600394
0.00305600394
0.00305600394
0.00305600394
0.00300031702
0.0030009552
0.00300159808
0.00300224114
0.00300288465
0.00300352861
0.00300417282
0.00300481728
0.0030054621
0.00300610705
0.00300675212
0.00300739751
0.00300804303
0.00300868862
0.0030093344
0.0030099803
0.00301062627
0.00301127231
0.00301191841
0.00301256459
0.00301321087
0.0030138572
0.0030145036
0.00301515005
0.00301579658
0.00301644317
0.00301708993
0.0030177368
0.00301838379
0.0030190309
0.00301967817
0.00302032559
0.00302097319
0.00302162098
0.00302226898
0.0030229172
0.00302356566
0.00302421437
0.00302486337
0.00302551264
0.00302616221
0.00302681209
0.0030274623
0.00302811284
0.00302876374
0.003029415
0.00303006663
0.00303071865
0.00303137107
0.00303202389
0.00303267712
0.00303333078
0.00303398485
0.00303463935
0.00303529429
0.00303594967
0.00303660548
0.00303726174
0.00303791845
0.00303857561
0.00303923322
0.00303989127
0.00304054978
0.00304120874
0.00304186814
0.00304252799
0.00304318828
0.00304384901
0.00304451017
0.00304517177
0.00304583381
0.00304649627
0.00304715915
0.00304782245
0.00304848617
0.00304915029
0.00304981482
0.00305047974
0.00305114505
0.00305181074
0.00305247681
0.00305314325
0.00305381005
0.0030544772
0.00305514469
0.00305581251
0.00305648066
0.00305714912
0.00305781788
0.00305848694
0.00305915627
0.00305982587
0.00306049573
0.00306116582
0.00306183615
0.00306250668
0.00306317741
0.00306384831
0.00306451943
0.00306519048
0.00306586251
0.00306653108
0.0030672151
0.00306783724
0.00306881064
0.00306948263
)
;

boundaryField
{
    inlet
    {
        type            calculated;
        value           uniform 0.00305600394;
    }
    outlet
    {
        type            calculated;
        value           uniform 0.00306948263;
    }
    defaultFaces
    {
        type            empty;
    }
}


// ************************************************************************* //
