/*--------------------------------*- C++ -*----------------------------------*\
  =========                 |
  \\      /  F ield         | OpenFOAM: The Open Source CFD Toolbox
   \\    /   O peration     | Website:  https://openfoam.org
    \\  /    A nd           | Version:  12
     \\/     M anipulation  |
\*---------------------------------------------------------------------------*/
FoamFile
{
    format      ascii;
    class       volScalarField;
    location    "30";
    object      d.bubbles;
}
// * * * * * * * * * * * * * * * * * * * * * * * * * * * * * * * * * * * * * //

dimensions      [0 1 0 0 0 0 0];

internalField   nonuniform List<scalar> 
110
(
0.00305600394
0.00305600394
0.00305600394
0.00305600394
0.00300031704
0.00300095519
0.00300159808
0.00300224115
0.00300288466
0.00300352862
0.0030041728
0.00300481735
0.00300546207
0.003006107
0.00300675217
0.0030073975
0.00300804301
0.00300868866
0.00300933444
0.00300998029
0.00301062624
0.00301127229
0.0030119184
0.0030125646
0.00301321087
0.00301385718
0.0030145036
0.00301515006
0.00301579657
0.00301644316
0.00301708993
0.0030177368
0.00301838379
0.00301903091
0.00301967818
0.00302032561
0.00302097321
0.00302162101
0.003022269
0.00302291723
0.00302356569
0.00302421441
0.00302486339
0.00302551266
0.00302616223
0.00302681212
0.00302746233
0.00302811288
0.00302876378
0.00302941504
0.00303006668
0.0030307187
0.00303137111
0.00303202394
0.00303267717
0.00303333082
0.0030339849
0.00303463941
0.00303529434
0.00303594972
0.00303660553
0.00303726178
0.00303791848
0.00303857563
0.00303923323
0.00303989128
0.00304054978
0.00304120874
0.00304186814
0.00304252799
0.00304318828
0.00304384901
0.00304451018
0.00304517179
0.00304583382
0.00304649628
0.00304715917
0.00304782247
0.00304848618
0.0030491503
0.00304981482
0.00305047974
0.00305114505
0.00305181074
0.0030524768
0.00305314324
0.00305381003
0.00305447717
0.00305514466
0.00305581248
0.00305648062
0.00305714908
0.00305781784
0.00305848689
0.00305915622
0.00305982581
0.00306049566
0.00306116576
0.00306183608
0.00306250661
0.00306317734
0.00306384824
0.00306451934
0.0030651904
0.00306586242
0.00306653099
0.00306721501
0.00306783715
0.00306881055
0.00306948253
)
;

boundaryField
{
    inlet
    {
        type            calculated;
        value           uniform 0.00305600394;
    }
    outlet
    {
        type            calculated;
        value           uniform 0.00306948253;
    }
    defaultFaces
    {
        type            empty;
    }
}


// ************************************************************************* //
