/*--------------------------------*- C++ -*----------------------------------*\
  =========                 |
  \\      /  F ield         | OpenFOAM: The Open Source CFD Toolbox
   \\    /   O peration     | Website:  https://openfoam.org
    \\  /    A nd           | Version:  12
     \\/     M anipulation  |
\*---------------------------------------------------------------------------*/
FoamFile
{
    format      ascii;
    class       volScalarField;
    location    "30";
    object      f10.air2;
}
// * * * * * * * * * * * * * * * * * * * * * * * * * * * * * * * * * * * * * //

dimensions      [0 0 0 0 0 0 0];

internalField   nonuniform List<scalar> 
110
(
1.92402334e-64
1.8822123e-52
4.21283486e-38
5.41792221e-20
6.24464196e-05
1.76977345e-06
2.8825534e-06
5.73923181e-06
1.04052695e-05
1.7357063e-05
2.7163137e-05
4.04509915e-05
5.78978482e-05
8.02251189e-05
0.000108194097
0.000142602306
0.000184280256
0.000234087399
0.000292908316
0.000361650293
0.00044123944
0.000532614987
0.000636730342
0.00075455301
0.000887053744
0.00103520426
0.00119997775
0.00138234579
0.00158327538
0.00180372619
0.00204464825
0.00230697964
0.00259164413
0.00289954922
0.0032315841
0.00358861769
0.0039714971
0.00438104572
0.00481806143
0.005283316
0.00577755287
0.00630148646
0.00685580065
0.00744114812
0.00805814931
0.00870739144
0.00938942803
0.0101047782
0.0108539261
0.0116373205
0.0124553746
0.0133084657
0.0141969348
0.0151210869
0.0160811909
0.0170774795
0.0181101495
0.0191793622
0.0202852434
0.0214278839
0.02260734
0.0238236339
0.0250767541
0.0263666565
0.0276932643
0.0290564694
0.0304561325
0.0318920845
0.0333641268
0.0348720324
0.0364155467
0.0379943882
0.03960825
0.0412568001
0.0429396825
0.0446565187
0.0464069078
0.0481904282
0.0500066383
0.0518550775
0.0537352674
0.0556467124
0.0575889011
0.0595613071
0.06156339
0.0635945965
0.065654361
0.067742107
0.0698572479
0.0719991876
0.0741673219
0.0763610389
0.0785797205
0.0808227423
0.0830894755
0.0853792868
0.0876915397
0.0900255951
0.092380812
0.0947565483
0.0971521613
0.0995670087
0.102000449
0.104451841
0.106920544
0.109405929
0.111907349
0.114423934
0.116954969
0.119500409
)
;

boundaryField
{
    inlet
    {
        type            fixedValue;
        value           uniform 0;
    }
    outlet
    {
        type            zeroGradient;
    }
    defaultFaces
    {
        type            empty;
    }
}


// ************************************************************************* //
