/*--------------------------------*- C++ -*----------------------------------*\
  =========                 |
  \\      /  F ield         | OpenFOAM: The Open Source CFD Toolbox
   \\    /   O peration     | Website:  https://openfoam.org
    \\  /    A nd           | Version:  12
     \\/     M anipulation  |
\*---------------------------------------------------------------------------*/
FoamFile
{
    format      ascii;
    class       volScalarField;
    location    "30";
    object      f10.air2;
}
// * * * * * * * * * * * * * * * * * * * * * * * * * * * * * * * * * * * * * //

dimensions      [0 0 0 0 0 0 0];

internalField   nonuniform List<scalar> 
110
(
1.34443893e-64
1.69314293e-52
6.27650382e-38
1.13620221e-36
6.04349304e-05
1.74560302e-06
2.87712556e-06
5.73723543e-06
1.04043626e-05
1.73565488e-05
2.71627713e-05
4.04507813e-05
5.78977284e-05
8.02250042e-05
0.000108193952
0.000142602263
0.000184280256
0.000234087314
0.000292908285
0.000361650254
0.000441239365
0.000532614923
0.0006367304
0.000754552964
0.000887053696
0.00103520423
0.00119997768
0.00138234571
0.00158327526
0.00180372604
0.00204464809
0.00230697941
0.00259164384
0.00289954886
0.00323158368
0.00358861724
0.00397149661
0.0043810452
0.004818061
0.0052833156
0.00577755262
0.00630148638
0.0068558008
0.00744114854
0.00805814998
0.00870739237
0.00938942921
0.0101047796
0.0108539277
0.0116373223
0.0124553767
0.013308468
0.0141969375
0.01512109
0.0160811945
0.0170774836
0.0181101541
0.0191793672
0.0202852486
0.0214278893
0.0226073453
0.0238236389
0.0250767586
0.0263666602
0.0276932669
0.0290564707
0.0304561323
0.0318920827
0.0333641232
0.034872027
0.0364155395
0.0379943795
0.0396082398
0.0412567886
0.0429396699
0.0446565052
0.0464068936
0.0481904135
0.0500066232
0.0518550623
0.053735252
0.0556466971
0.0575888859
0.0595612921
0.0615633753
0.063594582
0.0656543469
0.0677420933
0.0698572345
0.0719991746
0.0741673093
0.0763610267
0.0785797086
0.0808227308
0.0830894643
0.085379276
0.0876915292
0.0900255849
0.092380802
0.0947565385
0.0971521517
0.099566999
0.102000439
0.104451831
0.106920535
0.109405919
0.111907339
0.114423924
0.116954958
0.119500398
)
;

boundaryField
{
    inlet
    {
        type            fixedValue;
        value           uniform 0;
    }
    outlet
    {
        type            zeroGradient;
    }
    defaultFaces
    {
        type            empty;
    }
}


// ************************************************************************* //
