/*--------------------------------*- C++ -*----------------------------------*\
  =========                 |
  \\      /  F ield         | OpenFOAM: The Open Source CFD Toolbox
   \\    /   O peration     | Website:  https://openfoam.org
    \\  /    A nd           | Version:  12
     \\/     M anipulation  |
\*---------------------------------------------------------------------------*/
FoamFile
{
    format      ascii;
    class       volScalarField;
    location    "30";
    object      f11.air3;
}
// * * * * * * * * * * * * * * * * * * * * * * * * * * * * * * * * * * * * * //

dimensions      [0 0 0 0 0 0 0];

internalField   nonuniform List<scalar> 
110
(
1
1
1
1
0.999783499
0.998641472
0.987172039
0.958291339
0.920246894
0.890086439
0.87281826
0.870716552
0.878733505
0.888836362
0.897101414
0.902332879
0.904074265
0.902931089
0.899919651
0.895837701
0.891171986
0.8861921
0.881042309
0.87579966
0.870506022
0.86518444
0.859847969
0.854504221
0.849157772
0.84381146
0.838467118
0.833125972
0.827788885
0.822456485
0.817129255
0.811807579
0.806491776
0.801182119
0.795878848
0.790582178
0.785292306
0.780009417
0.774733684
0.769465269
0.764204329
0.758951014
0.75370547
0.748467837
0.743238251
0.738016849
0.73280376
0.727599115
0.722403042
0.717215665
0.712037109
0.706867498
0.701706953
0.696555597
0.691413549
0.68628093
0.68115786
0.676044458
0.670940843
0.665847137
0.660763457
0.655689924
0.650626659
0.64557378
0.64053141
0.635499668
0.630478676
0.625468556
0.62046943
0.615481422
0.610504655
0.605539255
0.600585346
0.595643056
0.590712512
0.585793842
0.580887176
0.575992644
0.571110377
0.566240509
0.561383173
0.556538503
0.551706635
0.546887706
0.542081854
0.537289218
0.53250994
0.52774416
0.522992021
0.518253667
0.513529243
0.508818897
0.504122774
0.499441025
0.494773798
0.490121246
0.48548352
0.480860774
0.476253163
0.471660843
0.467083977
0.462522709
0.457977231
0.453448137
0.448935658
0.44443895
)
;

boundaryField
{
    inlet
    {
        type            fixedValue;
        value           uniform 1;
    }
    outlet
    {
        type            zeroGradient;
    }
    defaultFaces
    {
        type            empty;
    }
}


// ************************************************************************* //
