/*--------------------------------*- C++ -*----------------------------------*\
  =========                 |
  \\      /  F ield         | OpenFOAM: The Open Source CFD Toolbox
   \\    /   O peration     | Website:  https://openfoam.org
    \\  /    A nd           | Version:  12
     \\/     M anipulation  |
\*---------------------------------------------------------------------------*/
FoamFile
{
    format      ascii;
    class       volScalarField;
    location    "30";
    object      f11.air3;
}
// * * * * * * * * * * * * * * * * * * * * * * * * * * * * * * * * * * * * * //

dimensions      [0 0 0 0 0 0 0];

internalField   nonuniform List<scalar> 
110
(
1
1
1
1
0.999597542
0.983515707
0.948304575
0.923892849
0.894020768
0.872635797
0.862359826
0.865062563
0.876121938
0.887717082
0.896626188
0.902128207
0.903982932
0.902888108
0.899898261
0.895826502
0.89116586
0.886188622
0.881040272
0.875798434
0.87050527
0.865183972
0.859847675
0.854504036
0.849157654
0.843811386
0.83846707
0.833125942
0.827788865
0.822456472
0.817129246
0.811807573
0.806491773
0.801182119
0.79587885
0.790582182
0.785292313
0.780009428
0.774733698
0.769465286
0.764204349
0.758951037
0.753705494
0.748467862
0.743238277
0.738016873
0.732803783
0.727599136
0.72240306
0.717215682
0.712037126
0.706867514
0.701706971
0.696555615
0.691413567
0.686280948
0.681157875
0.676044469
0.670940849
0.665847134
0.660763445
0.655689901
0.650626624
0.645573733
0.640531351
0.635499598
0.630478598
0.625468471
0.620469341
0.615481332
0.610504566
0.60553917
0.600585267
0.595642985
0.590712451
0.585793791
0.580887136
0.575992615
0.571110359
0.566240501
0.561383174
0.556538512
0.551706651
0.546887729
0.542081883
0.537289252
0.532509977
0.5277442
0.522992064
0.518253712
0.51352929
0.508818944
0.504122822
0.499441072
0.494773845
0.490121292
0.485483565
0.480860818
0.476253205
0.471660883
0.467084016
0.462522746
0.457977265
0.453448169
0.448935689
0.444438979
)
;

boundaryField
{
    inlet
    {
        type            fixedValue;
        value           uniform 1;
    }
    outlet
    {
        type            zeroGradient;
    }
    defaultFaces
    {
        type            empty;
    }
}


// ************************************************************************* //
