/*--------------------------------*- C++ -*----------------------------------*\
  =========                 |
  \\      /  F ield         | OpenFOAM: The Open Source CFD Toolbox
   \\    /   O peration     | Website:  https://openfoam.org
    \\  /    A nd           | Version:  12
     \\/     M anipulation  |
\*---------------------------------------------------------------------------*/
FoamFile
{
    format      ascii;
    class       volScalarField;
    location    "30";
    object      f12.air3;
}
// * * * * * * * * * * * * * * * * * * * * * * * * * * * * * * * * * * * * * //

dimensions      [0 0 0 0 0 0 0];

internalField   nonuniform List<scalar> 
110
(
1.39826062e-63
1.32618514e-50
6.95486431e-51
2.01243989e-20
0.000402375435
0.0163548352
0.0499949979
0.0721606431
0.0974949059
0.113970558
0.120169581
0.115859917
0.106097956
0.0971133864
0.0906173411
0.0868109835
0.085850956
0.0871778621
0.0899239988
0.0934269704
0.0972969703
0.101327313
0.105412709
0.109499838
0.113561312
0.117582976
0.121557318
0.125480248
0.129349492
0.133163752
0.136922265
0.140624592
0.144270467
0.147859736
0.15139231
0.154868154
0.158287261
0.16164965
0.164955362
0.168204451
0.171396984
0.174533042
0.177612715
0.180636102
0.18360331
0.186514456
0.189369662
0.192169058
0.194912779
0.197600969
0.200233775
0.20281135
0.205333852
0.207801445
0.210214296
0.212572579
0.214876469
0.21712615
0.219321805
0.221463625
0.223551803
0.225586536
0.227568025
0.229496476
0.231372096
0.233195097
0.234965695
0.23668411
0.238350563
0.239965282
0.241528494
0.243040434
0.244501338
0.245911445
0.247270999
0.248580246
0.249839437
0.251048824
0.252208665
0.25331922
0.254380752
0.255393529
0.25635782
0.257273901
0.258142048
0.258962542
0.259735669
0.260461714
0.261140972
0.261773735
0.262360304
0.262900979
0.263396068
0.26384588
0.264250727
0.264610927
0.2649268
0.265198672
0.265426869
0.265611724
0.265753573
0.265852755
0.265909614
0.265924497
0.265897755
0.265829743
0.265720821
0.265571373
0.265381822
0.265152459
)
;

boundaryField
{
    inlet
    {
        type            fixedValue;
        value           uniform 0;
    }
    outlet
    {
        type            zeroGradient;
    }
    defaultFaces
    {
        type            empty;
    }
}


// ************************************************************************* //
