/*--------------------------------*- C++ -*----------------------------------*\
  =========                 |
  \\      /  F ield         | OpenFOAM: The Open Source CFD Toolbox
   \\    /   O peration     | Website:  https://openfoam.org
    \\  /    A nd           | Version:  12
     \\/     M anipulation  |
\*---------------------------------------------------------------------------*/
FoamFile
{
    format      ascii;
    class       volScalarField;
    location    "30";
    object      f12.air3;
}
// * * * * * * * * * * * * * * * * * * * * * * * * * * * * * * * * * * * * * //

dimensions      [0 0 0 0 0 0 0];

internalField   nonuniform List<scalar> 
110
(
4.89213839e-64
1.11390241e-50
1.55932967e-48
1.16860225e-20
0.000216474988
0.0013576066
0.0127433146
0.0406830636
0.0753797647
0.100659655
0.113236689
0.112793383
0.105028518
0.0968153354
0.0905739425
0.0868387977
0.0858866617
0.087204903
0.0899417659
0.0934381271
0.0973039164
0.101331667
0.105415475
0.109501624
0.113562485
0.117583761
0.121557854
0.12548062
0.129349753
0.133163935
0.136922396
0.140624684
0.144270532
0.14785978
0.15139234
0.154868174
0.158287274
0.161649658
0.164955366
0.168204451
0.171396982
0.174533037
0.177612707
0.180636092
0.183603298
0.186514443
0.189369648
0.192169043
0.194912765
0.197600956
0.200233762
0.202811338
0.205333842
0.207801436
0.210214288
0.212572572
0.214876464
0.217126146
0.219321802
0.221463623
0.223551802
0.225586535
0.227568025
0.229496475
0.231372095
0.233195097
0.234965695
0.236684109
0.238350562
0.23996528
0.241528492
0.243040431
0.244501335
0.245911442
0.247270995
0.248580242
0.249839433
0.25104882
0.252208661
0.253319215
0.254380747
0.255393524
0.256357816
0.257273896
0.258142043
0.258962538
0.259735664
0.26046171
0.261140967
0.261773731
0.262360299
0.262900975
0.263396064
0.263845876
0.264250723
0.264610924
0.264926797
0.265198669
0.265426866
0.265611722
0.265753571
0.265852753
0.265909612
0.265924495
0.265897753
0.265829742
0.26572082
0.265571373
0.265381822
0.265152459
)
;

boundaryField
{
    inlet
    {
        type            fixedValue;
        value           uniform 0;
    }
    outlet
    {
        type            zeroGradient;
    }
    defaultFaces
    {
        type            empty;
    }
}


// ************************************************************************* //
