/*--------------------------------*- C++ -*----------------------------------*\
  =========                 |
  \\      /  F ield         | OpenFOAM: The Open Source CFD Toolbox
   \\    /   O peration     | Website:  https://openfoam.org
    \\  /    A nd           | Version:  12
     \\/     M anipulation  |
\*---------------------------------------------------------------------------*/
FoamFile
{
    format      ascii;
    class       volScalarField;
    location    "30";
    object      f13.air3;
}
// * * * * * * * * * * * * * * * * * * * * * * * * * * * * * * * * * * * * * //

dimensions      [0 0 0 0 0 0 0];

internalField   nonuniform List<scalar> 
110
(
9.77278987e-127
8.78478724e-101
1.1586649e-76
1.36232055e-40
7.98496128e-08
0.000128750917
0.0016609498
0.00379541304
0.00795449747
0.0122693554
0.0156697618
0.0168335596
0.0155974631
0.0134443322
0.0115216394
0.0101024885
0.00927448842
0.00901367465
0.00919133357
0.00966935198
0.0103454454
0.011154089
0.0120557025
0.0130267648
0.0140531522
0.0151262105
0.0162404445
0.0173921978
0.0185788946
0.0197986043
0.0210497872
0.0223311434
0.0236415236
0.0249798741
0.0263452029
0.0277365595
0.0291530205
0.0305936824
0.0320576558
0.0335440623
0.0350520316
0.0365807008
0.0381292128
0.0396967165
0.0412823656
0.0428853187
0.0445047394
0.0461397957
0.0477896605
0.0494535111
0.0511305297
0.0528199031
0.0545208229
0.0562324856
0.0579540926
0.0596848507
0.0614239713
0.0631706713
0.0649241728
0.066683703
0.0684484946
0.0702177855
0.0719908192
0.0737668447
0.0755451165
0.077324895
0.0791054462
0.0808860422
0.082665961
0.0844444867
0.0862209093
0.0879945254
0.0897646377
0.0915305554
0.0932915939
0.0950470754
0.0967963286
0.098538689
0.100273499
0.102000107
0.103717869
0.105426148
0.107124315
0.108811745
0.110487825
0.112151945
0.113803505
0.115441912
0.11706658
0.118676931
0.120272395
0.121852411
0.123416425
0.124963889
0.126494268
0.128007031
0.129501657
0.130977635
0.13243446
0.133871637
0.135288681
0.136685113
0.138060466
0.13941428
0.140746104
0.142055501
0.143342032
0.144605154
0.145844446
0.147059782
)
;

boundaryField
{
    inlet
    {
        type            fixedValue;
        value           uniform 0;
    }
    outlet
    {
        type            zeroGradient;
    }
    defaultFaces
    {
        type            empty;
    }
}


// ************************************************************************* //
