/*--------------------------------*- C++ -*----------------------------------*\
  =========                 |
  \\      /  F ield         | OpenFOAM: The Open Source CFD Toolbox
   \\    /   O peration     | Website:  https://openfoam.org
    \\  /    A nd           | Version:  12
     \\/     M anipulation  |
\*---------------------------------------------------------------------------*/
FoamFile
{
    format      ascii;
    class       volScalarField;
    location    "30";
    object      f13.air3;
}
// * * * * * * * * * * * * * * * * * * * * * * * * * * * * * * * * * * * * * //

dimensions      [0 0 0 0 0 0 0];

internalField   nonuniform List<scalar> 
110
(
1.18869474e-127
6.20195922e-101
7.32156333e-78
4.18906663e-41
2.31060448e-08
9.08451264e-07
8.41847273e-05
0.00100800997
0.00419666359
0.00866457469
0.0127734053
0.0148534799
0.0145128077
0.012920214
0.0112776072
0.00998901392
0.00922125992
0.0089883684
0.00917912254
0.00966338285
0.0103425037
0.0111526396
0.0120549983
0.0130264355
0.0140530122
0.0151261648
0.0162404451
0.0173922193
0.018578924
0.019798635
0.021049816
0.0223311689
0.0236415454
0.0249798923
0.026345218
0.0277365718
0.0291530306
0.0305936908
0.0320576629
0.0335440684
0.0350520371
0.0365807057
0.0381292173
0.0396967207
0.0412823694
0.0428853221
0.0445047424
0.0461397983
0.0477896626
0.0494535128
0.0511305309
0.0528199039
0.0545208234
0.056232486
0.0579540932
0.0596848515
0.0614239723
0.0631706726
0.0649241741
0.0666837041
0.0684484951
0.070217785
0.0719908173
0.073766841
0.0755451108
0.077324887
0.0791054359
0.0808860297
0.0826659465
0.0844444705
0.0862208919
0.0879945074
0.0897646196
0.0915305377
0.0932915773
0.0950470603
0.0967963154
0.0985386779
0.10027349
0.1020001
0.103717865
0.105426146
0.107124315
0.108811747
0.110487829
0.11215195
0.113803512
0.11544192
0.117066588
0.11867694
0.120272406
0.121852422
0.123416435
0.1249639
0.126494279
0.128007042
0.129501668
0.130977646
0.132434471
0.133871648
0.135288691
0.136685123
0.138060475
0.139414289
0.140746113
0.142055509
0.143342039
0.144605161
0.145844453
0.147059788
)
;

boundaryField
{
    inlet
    {
        type            fixedValue;
        value           uniform 0;
    }
    outlet
    {
        type            zeroGradient;
    }
    defaultFaces
    {
        type            empty;
    }
}


// ************************************************************************* //
