/*--------------------------------*- C++ -*----------------------------------*\
  =========                 |
  \\      /  F ield         | OpenFOAM: The Open Source CFD Toolbox
   \\    /   O peration     | Website:  https://openfoam.org
    \\  /    A nd           | Version:  12
     \\/     M anipulation  |
\*---------------------------------------------------------------------------*/
FoamFile
{
    format      ascii;
    class       volScalarField;
    location    "30";
    object      f14.air3;
}
// * * * * * * * * * * * * * * * * * * * * * * * * * * * * * * * * * * * * * //

dimensions      [0 0 0 0 0 0 0];

internalField   nonuniform List<scalar> 
110
(
1.91288153e-191
3.60509979e-150
3.67712635e-99
5.36846937e-62
1.62053915e-12
3.97855123e-10
3.57421421e-07
1.70796241e-05
0.000174073124
0.000580934963
0.00116952642
0.00168607248
0.00188804451
0.00176678829
0.00152942206
0.00129943613
0.00112724128
0.00103021565
0.00100334156
0.00103277033
0.00110515516
0.00121053921
0.00134225895
0.00149609403
0.00166945578
0.00186080874
0.00206928482
0.00229443461
0.00253607021
0.00279416635
0.00306879816
0.00336010015
0.00366824153
0.00399340944
0.00433579788
0.00469560049
0.00507300568
0.0054681934
0.00588133306
0.006312582
0.00676208447
0.00722997101
0.00771635805
0.00822134766
0.00874502732
0.00928746993
0.0098487337
0.0104288622
0.0110278844
0.0116458149
0.0122826535
0.012938386
0.013612984
0.0143064047
0.0150185916
0.0157494744
0.0164989688
0.0172669773
0.0180533888
0.0188580791
0.0196809106
0.0205217329
0.0213803828
0.0222566844
0.0231504493
0.0240614768
0.0249895539
0.0259344558
0.0268959459
0.0278737758
0.0288676857
0.0298774046
0.0309026502
0.0319431295
0.0329985384
0.0340685626
0.035152877
0.0362511466
0.0373630263
0.0384881611
0.0396261865
0.0407767286
0.0419394042
0.0431138212
0.0442995785
0.0454962667
0.046703468
0.0479207561
0.0491476973
0.0503838497
0.0516287643
0.0528819847
0.0541430473
0.055411482
0.0566868121
0.0579685546
0.0592562202
0.0605493141
0.0618473358
0.0631497795
0.0644561343
0.0657658846
0.0670785103
0.0683934868
0.0697102837
0.0710283728
0.0723472099
0.0736661276
0.0749845516
0.0763022422
)
;

boundaryField
{
    inlet
    {
        type            fixedValue;
        value           uniform 0;
    }
    outlet
    {
        type            zeroGradient;
    }
    defaultFaces
    {
        type            empty;
    }
}


// ************************************************************************* //
