/*--------------------------------*- C++ -*----------------------------------*\
  =========                 |
  \\      /  F ield         | OpenFOAM: The Open Source CFD Toolbox
   \\    /   O peration     | Website:  https://openfoam.org
    \\  /    A nd           | Version:  12
     \\/     M anipulation  |
\*---------------------------------------------------------------------------*/
FoamFile
{
    format      ascii;
    class       volScalarField;
    location    "30";
    object      f14.air3;
}
// * * * * * * * * * * * * * * * * * * * * * * * * * * * * * * * * * * * * * //

dimensions      [0 0 0 0 0 0 0];

internalField   nonuniform List<scalar> 
110
(
4.55222172e-190
4.02566639e-149
2.03686939e-97
3.37717082e-61
1.04097431e-11
5.99751987e-07
3.82525116e-05
0.00014631826
0.000507146997
0.00106963716
0.0017215058
0.00219106027
0.0022404623
0.00197219522
0.00164068503
0.00135852142
0.00115879702
0.00104737978
0.0010128967
0.00103821871
0.00110833412
0.00121243397
0.00134341028
0.00149680577
0.00166990241
0.00186109264
0.00206946715
0.0022945527
0.00253614717
0.00279421672
0.00306883115
0.00336012172
0.00366825557
0.00399341851
0.00433580365
0.00469560406
0.00507300779
0.00546819454
0.00588133352
0.00631258196
0.00676208406
0.00722997031
0.00771635712
0.00822134655
0.00874502607
0.00928746856
0.00984873223
0.0104288607
0.0110278829
0.0116458134
0.0122826521
0.0129383848
0.0136129829
0.0143064038
0.0150185908
0.0157494736
0.0164989679
0.0172669763
0.0180533877
0.0188580779
0.0196809095
0.0205217322
0.0213803827
0.0222566852
0.0231504512
0.0240614801
0.0249895588
0.0259344623
0.026895954
0.0278737855
0.0288676968
0.0298774168
0.0309026632
0.0319431428
0.0329985517
0.0340685754
0.0351528889
0.0362511573
0.0373630355
0.0384881686
0.0396261923
0.0407767325
0.0419394063
0.0431138215
0.0442995771
0.0454962638
0.0467034636
0.0479207504
0.0491476904
0.0503838418
0.0516287555
0.0528819751
0.0541430371
0.0554114713
0.056686801
0.0579685432
0.0592562086
0.0605493024
0.0618473241
0.0631497679
0.0644561229
0.0657658734
0.0670784993
0.0683934762
0.0697102735
0.071028363
0.0723472006
0.0736661187
0.0749845431
0.0763022341
)
;

boundaryField
{
    inlet
    {
        type            fixedValue;
        value           uniform 0;
    }
    outlet
    {
        type            zeroGradient;
    }
    defaultFaces
    {
        type            empty;
    }
}


// ************************************************************************* //
