/*--------------------------------*- C++ -*----------------------------------*\
  =========                 |
  \\      /  F ield         | OpenFOAM: The Open Source CFD Toolbox
   \\    /   O peration     | Website:  https://openfoam.org
    \\  /    A nd           | Version:  12
     \\/     M anipulation  |
\*---------------------------------------------------------------------------*/
FoamFile
{
    format      ascii;
    class       volScalarField;
    location    "30";
    object      f15.air3;
}
// * * * * * * * * * * * * * * * * * * * * * * * * * * * * * * * * * * * * * //

dimensions      [0 0 0 0 0 0 0];

internalField   nonuniform List<scalar> 
110
(
1.7821365e-233
2.97481964e-171
1.51981845e-119
1.98854955e-82
1.0029071e-15
1.85869586e-09
6.56446588e-07
4.51481389e-06
2.78890692e-05
8.36998973e-05
0.000175933355
0.000276960026
0.000331482841
0.000318266366
0.000272329908
0.000223155655
0.000183166039
0.000155965234
0.000141058374
0.000136540459
0.000140493408
0.000151448733
0.000168422446
0.000190821719
0.000218338333
0.000250864815
0.000288434338
0.000331179197
0.000379302538
0.00043305945
0.000492744357
0.000558681613
0.000631220053
0.000710728684
0.000797593662
0.000892216134
0.000995010625
0.00110640388
0.00122683388
0.00135674918
0.00149660832
0.00164687931
0.00180803921
0.00198057381
0.00216497722
0.00236175167
0.00257140712
0.00279446105
0.00303143819
0.00328287022
0.00354929556
0.00383125907
0.00412931185
0.00444401093
0.00477591905
0.00512560443
0.0054936405
0.00588060564
0.00628708297
0.00671366007
0.00716092869
0.00762948452
0.00811992689
0.00863285846
0.00916888501
0.00972861509
0.0103126598
0.0109216324
0.0115561484
0.0122168245
0.0129042794
0.0136191323
0.0143620037
0.0151335143
0.0159342851
0.016764937
0.0176260906
0.0185183655
0.0194423805
0.020398753
0.0213880987
0.0224110311
0.0234681617
0.0245600989
0.0256874484
0.0268508124
0.0280507892
0.0292879734
0.0305629549
0.0318763189
0.0332286455
0.0346205094
0.0360524794
0.037525118
0.0390389813
0.0405946184
0.0421925711
0.0438333736
0.0455175521
0.0472456243
0.0490180992
0.0508354764
0.0526982465
0.0546068896
0.0565618729
0.0585636615
0.0606126911
0.0627091875
0.0648534964
0.0670465346
)
;

boundaryField
{
    inlet
    {
        type            fixedValue;
        value           uniform 0;
    }
    outlet
    {
        type            zeroGradient;
    }
    defaultFaces
    {
        type            empty;
    }
}


// ************************************************************************* //
