/*--------------------------------*- C++ -*----------------------------------*\
  =========                 |
  \\      /  F ield         | OpenFOAM: The Open Source CFD Toolbox
   \\    /   O peration     | Website:  https://openfoam.org
    \\  /    A nd           | Version:  12
     \\/     M anipulation  |
\*---------------------------------------------------------------------------*/
FoamFile
{
    format      ascii;
    class       volScalarField;
    location    "30";
    object      f15.air3;
}
// * * * * * * * * * * * * * * * * * * * * * * * * * * * * * * * * * * * * * //

dimensions      [0 0 0 0 0 0 0];

internalField   nonuniform List<scalar> 
110
(
2.38981173e-234
4.4279599e-172
4.9344192e-121
2.43613253e-83
8.40175675e-17
1.28249579e-13
1.08302035e-09
2.16604282e-07
5.86558731e-06
3.34012969e-05
9.56757944e-05
0.000178652799
0.000243714387
0.000256459545
0.000233502377
0.000199833222
0.000169271714
0.000147596818
0.000135918857
0.000133312638
0.000138420064
0.000150088002
0.000167511362
0.00019020042
0.000217907544
0.000250561577
0.000288217953
0.000331022856
0.0003791883
0.000432975113
0.000492681488
0.000558634338
0.000631184211
0.000710701297
0.000797572584
0.000892199809
0.000994997922
0.00110639395
0.00122682606
0.00135674303
0.00149660349
0.00164687554
0.00180803629
0.00198057156
0.00216497552
0.00236175041
0.00257140622
0.00279446046
0.00303143785
0.00328287008
0.00354929558
0.00383125921
0.00412931206
0.00444401119
0.00477591935
0.00512560477
0.00549364089
0.0058806061
0.00628708353
0.00671366073
0.00716092945
0.00762948533
0.00811992766
0.00863285908
0.00916888531
0.00972861489
0.0103126589
0.0109216306
0.0115561455
0.0122168204
0.0129042738
0.0136191254
0.0143619954
0.0151335048
0.0159342746
0.0167649259
0.017626079
0.0185183539
0.0194423692
0.0203987423
0.0213880888
0.0224110224
0.0234681542
0.0245600928
0.0256874438
0.0268508094
0.0280507879
0.0292879737
0.0305629568
0.0318763224
0.0332286507
0.0346205161
0.0360524875
0.0375251274
0.039038992
0.0405946302
0.042192584
0.0438333875
0.0455175668
0.0472456397
0.049018115
0.0508354928
0.0526982631
0.0546069065
0.05656189
0.0585636786
0.0606127082
0.0627092044
0.064853513
0.067046551
)
;

boundaryField
{
    inlet
    {
        type            fixedValue;
        value           uniform 0;
    }
    outlet
    {
        type            zeroGradient;
    }
    defaultFaces
    {
        type            empty;
    }
}


// ************************************************************************* //
