/*--------------------------------*- C++ -*----------------------------------*\
  =========                 |
  \\      /  F ield         | OpenFOAM: The Open Source CFD Toolbox
   \\    /   O peration     | Website:  https://openfoam.org
    \\  /    A nd           | Version:  12
     \\/     M anipulation  |
\*---------------------------------------------------------------------------*/
FoamFile
{
    format      ascii;
    class       volScalarField;
    location    "30";
    object      f6.air2;
}
// * * * * * * * * * * * * * * * * * * * * * * * * * * * * * * * * * * * * * //

dimensions      [0 0 0 0 0 0 0];

internalField   nonuniform List<scalar> 
110
(
1
1
1
1
0.952640761
0.96746705
0.957521855
0.947698393
0.938101944
0.928645576
0.919289474
0.910010397
0.900793995
0.891631509
0.882517323
0.873447571
0.864419654
0.855431865
0.846483151
0.837572802
0.828700419
0.819866078
0.811069682
0.802311199
0.793591021
0.784909553
0.776267236
0.767664592
0.759102181
0.750580602
0.742100487
0.733662492
0.725267294
0.716915589
0.708608083
0.700345497
0.692128555
0.683957992
0.675834545
0.667758947
0.659731936
0.651754245
0.643826606
0.635949743
0.628124374
0.62035121
0.612630951
0.604964288
0.5973519
0.589794453
0.582292599
0.574846975
0.567458204
0.56012689
0.55285362
0.545638965
0.538483472
0.531387673
0.524352075
0.517377168
0.510463417
0.503611264
0.496821131
0.490093415
0.483428488
0.476826698
0.470288371
0.463813804
0.457403273
0.451057026
0.444775286
0.438558252
0.432406095
0.426318961
0.420296973
0.414340227
0.408448791
0.402622713
0.396862012
0.391166685
0.385536703
0.379972013
0.374472539
0.369038182
0.363668819
0.358364305
0.353124474
0.347949137
0.342838083
0.337791085
0.33280789
0.327888231
0.323031819
0.318238346
0.31350749
0.308838909
0.304232245
0.299687125
0.295203159
0.290779945
0.286417065
0.282114088
0.277870571
0.273686059
0.269560089
0.265492172
0.261481844
0.257528972
0.253633144
0.249792976
)
;

boundaryField
{
    inlet
    {
        type            fixedValue;
        value           uniform 1;
    }
    outlet
    {
        type            zeroGradient;
    }
    defaultFaces
    {
        type            empty;
    }
}


// ************************************************************************* //
