/*--------------------------------*- C++ -*----------------------------------*\
  =========                 |
  \\      /  F ield         | OpenFOAM: The Open Source CFD Toolbox
   \\    /   O peration     | Website:  https://openfoam.org
    \\  /    A nd           | Version:  12
     \\/     M anipulation  |
\*---------------------------------------------------------------------------*/
FoamFile
{
    format      ascii;
    class       volScalarField;
    location    "30";
    object      f6.air2;
}
// * * * * * * * * * * * * * * * * * * * * * * * * * * * * * * * * * * * * * //

dimensions      [0 0 0 0 0 0 0];

internalField   nonuniform List<scalar> 
110
(
1
1
1
1
0.952982992
0.967470093
0.957522378
0.94769852
0.938101886
0.928645593
0.919289571
0.910010361
0.900793946
0.891631521
0.882517332
0.873447543
0.86441961
0.855431848
0.846483143
0.837572788
0.828700406
0.819866059
0.811069662
0.802311183
0.793591007
0.784909547
0.776267231
0.767664588
0.759102177
0.7505806
0.742100487
0.733662494
0.725267298
0.716915593
0.708608087
0.7003455
0.692128558
0.683957995
0.675834546
0.667758948
0.659731935
0.651754243
0.643826603
0.635949738
0.628124367
0.6203512
0.612630938
0.604964273
0.597351882
0.589794432
0.582292576
0.574846951
0.567458179
0.560126865
0.552853597
0.545638942
0.538483452
0.531387655
0.524352061
0.517377157
0.51046341
0.503611262
0.496821134
0.490093422
0.483428499
0.476826713
0.470288389
0.463813825
0.457403297
0.451057052
0.444775313
0.43855828
0.432406123
0.42631899
0.420297002
0.414340254
0.408448819
0.40262274
0.396862038
0.39116671
0.385536727
0.379972036
0.374472561
0.369038203
0.363668839
0.358364324
0.353124492
0.347949153
0.342838099
0.337791099
0.332807904
0.327888244
0.323031831
0.318238358
0.313507501
0.308838919
0.304232255
0.299687134
0.295203168
0.290779954
0.286417073
0.282114097
0.27787058
0.273686067
0.269560097
0.26549218
0.261481853
0.257528981
0.253633154
0.249792986
)
;

boundaryField
{
    inlet
    {
        type            fixedValue;
        value           uniform 1;
    }
    outlet
    {
        type            zeroGradient;
    }
    defaultFaces
    {
        type            empty;
    }
}


// ************************************************************************* //
