/*--------------------------------*- C++ -*----------------------------------*\
  =========                 |
  \\      /  F ield         | OpenFOAM: The Open Source CFD Toolbox
   \\    /   O peration     | Website:  https://openfoam.org
    \\  /    A nd           | Version:  12
     \\/     M anipulation  |
\*---------------------------------------------------------------------------*/
FoamFile
{
    format      ascii;
    class       volScalarField;
    location    "30";
    object      f7.air2;
}
// * * * * * * * * * * * * * * * * * * * * * * * * * * * * * * * * * * * * * //

dimensions      [0 0 0 0 0 0 0];

internalField   nonuniform List<scalar> 
110
(
6.18453071e-63
6.73460953e-50
6.37912788e-38
1.11699088e-36
0.0432155904
0.0314482074
0.0407181286
0.0496869204
0.0582812634
0.0665907155
0.0746568862
0.0825044932
0.0901488394
0.097600068
0.104865331
0.111949884
0.118857757
0.125592197
0.132155924
0.138551289
0.144780362
0.150844902
0.15674679
0.162487812
0.168069489
0.173493395
0.17876109
0.183874105
0.188833961
0.193642187
0.198300328
0.202809939
0.207172594
0.211389888
0.215463436
0.219394873
0.223185858
0.226838075
0.230353232
0.233733059
0.236979308
0.240093756
0.243078201
0.245934463
0.248664381
0.251269815
0.253752642
0.256114758
0.258358075
0.260484518
0.26249603
0.264394563
0.266182084
0.267860568
0.269432001
0.270898374
0.272261688
0.273523946
0.274687158
0.275753333
0.276724485
0.277602626
0.278389767
0.279087916
0.279699079
0.280225256
0.280668441
0.281030619
0.281313769
0.281519858
0.281650845
0.281708673
0.281695277
0.281612572
0.281462464
0.281246838
0.280967564
0.280626495
0.280225464
0.279766285
0.27925075
0.278680632
0.278057681
0.277383625
0.276660168
0.275888989
0.275071747
0.274210072
0.273305569
0.27235982
0.271374378
0.27035077
0.269290498
0.268195034
0.267065825
0.265904289
0.264711817
0.263489772
0.262239488
0.260962272
0.259659404
0.258332132
0.256981681
0.255609244
0.254215989
0.252803052
0.251371551
0.24992271
0.248457652
0.24697706
)
;

boundaryField
{
    inlet
    {
        type            fixedValue;
        value           uniform 0;
    }
    outlet
    {
        type            zeroGradient;
    }
    defaultFaces
    {
        type            empty;
    }
}


// ************************************************************************* //
