/*--------------------------------*- C++ -*----------------------------------*\
  =========                 |
  \\      /  F ield         | OpenFOAM: The Open Source CFD Toolbox
   \\    /   O peration     | Website:  https://openfoam.org
    \\  /    A nd           | Version:  12
     \\/     M anipulation  |
\*---------------------------------------------------------------------------*/
FoamFile
{
    format      ascii;
    class       volScalarField;
    location    "30";
    object      f7.air2;
}
// * * * * * * * * * * * * * * * * * * * * * * * * * * * * * * * * * * * * * //

dimensions      [0 0 0 0 0 0 0];

internalField   nonuniform List<scalar> 
110
(
3.39068507e-52
2.02561442e-40
1.9857727e-30
4.93882419e-19
0.0434541568
0.031450241
0.0407184705
0.0496869972
0.0582812509
0.0665907716
0.0746569528
0.0825044568
0.0901488396
0.0976001185
0.104865349
0.111949878
0.118857758
0.125592215
0.132155946
0.138551307
0.144780376
0.150844913
0.156746802
0.162487826
0.168069501
0.173493408
0.178761104
0.183874117
0.188833972
0.193642198
0.198300339
0.202809951
0.207172608
0.211389903
0.21546345
0.219394886
0.223185871
0.226838086
0.230353241
0.233733066
0.236979313
0.240093758
0.243078201
0.24593446
0.248664375
0.251269806
0.253752631
0.256114744
0.258358059
0.260484501
0.262496012
0.264394546
0.266182067
0.267860552
0.269431985
0.27089836
0.272261675
0.273523935
0.274687147
0.275753324
0.276724478
0.27760262
0.278389762
0.279087913
0.279699078
0.280225256
0.280668441
0.28103062
0.28131377
0.281519861
0.281650848
0.281708677
0.28169528
0.281612576
0.281462467
0.281246841
0.280967567
0.280626498
0.280225467
0.279766287
0.279250752
0.278680633
0.278057682
0.277383625
0.276660167
0.275888988
0.275071745
0.274210069
0.273305566
0.272359816
0.271374373
0.270350765
0.269290492
0.268195028
0.267065818
0.265904282
0.264711809
0.263489763
0.262239479
0.260962263
0.259659393
0.258332121
0.256981669
0.255609231
0.254215975
0.252803037
0.251371535
0.249922694
0.248457634
0.246977042
)
;

boundaryField
{
    inlet
    {
        type            fixedValue;
        value           uniform 0;
    }
    outlet
    {
        type            zeroGradient;
    }
    defaultFaces
    {
        type            empty;
    }
}


// ************************************************************************* //
