/*--------------------------------*- C++ -*----------------------------------*\
  =========                 |
  \\      /  F ield         | OpenFOAM: The Open Source CFD Toolbox
   \\    /   O peration     | Website:  https://openfoam.org
    \\  /    A nd           | Version:  12
     \\/     M anipulation  |
\*---------------------------------------------------------------------------*/
FoamFile
{
    format      ascii;
    class       volScalarField;
    location    "30";
    object      f8.air2;
}
// * * * * * * * * * * * * * * * * * * * * * * * * * * * * * * * * * * * * * //

dimensions      [0 0 0 0 0 0 0];

internalField   nonuniform List<scalar> 
110
(
5.06183234e-104
1.93788422e-80
1.93842563e-60
1.22100058e-37
0.00335902302
0.0010429041
0.00168749746
0.00248813833
0.00341482575
0.00446234264
0.00562630246
0.00690261473
0.00828728207
0.0097762942
0.0113656426
0.0130513666
0.0148295334
0.0166962243
0.0186475485
0.0206796634
0.0227887586
0.0249710066
0.0272226935
0.029540199
0.0319198675
0.034358077
0.036851269
0.0393959413
0.0419886412
0.0446259693
0.0473045814
0.0500211889
0.0527725601
0.0555555231
0.0583669658
0.0612038372
0.0640631484
0.0669419765
0.0698374584
0.0727468026
0.0756672797
0.0785962285
0.0815310561
0.0844692375
0.0874083163
0.0903459054
0.0932796874
0.0962074144
0.0991269082
0.102036061
0.104932835
0.107815262
0.110681443
0.11352955
0.116357824
0.119164573
0.121948177
0.124707082
0.127439802
0.130144916
0.132821074
0.135466987
0.138081434
0.140663256
0.143211359
0.14572471
0.148202337
0.150643331
0.153046839
0.155412068
0.157738283
0.160024804
0.162271005
0.164476315
0.166640215
0.168762238
0.170841964
0.172879025
0.174873099
0.17682391
0.178731225
0.180594858
0.182414661
0.184190529
0.185922396
0.187610232
0.189254046
0.190853881
0.192409814
0.193921953
0.19539044
0.196815445
0.198197167
0.199535832
0.200831691
0.202085023
0.203296127
0.204465326
0.205592963
0.206679403
0.207725028
0.208730238
0.209695451
0.210621097
0.211507623
0.212355491
0.21316517
0.213937075
0.214671696
0.215369696
)
;

boundaryField
{
    inlet
    {
        type            fixedValue;
        value           uniform 0;
    }
    outlet
    {
        type            zeroGradient;
    }
    defaultFaces
    {
        type            empty;
    }
}


// ************************************************************************* //
