/*--------------------------------*- C++ -*----------------------------------*\
  =========                 |
  \\      /  F ield         | OpenFOAM: The Open Source CFD Toolbox
   \\    /   O peration     | Website:  https://openfoam.org
    \\  /    A nd           | Version:  12
     \\/     M anipulation  |
\*---------------------------------------------------------------------------*/
FoamFile
{
    format      ascii;
    class       volScalarField;
    location    "30";
    object      f8.air2;
}
// * * * * * * * * * * * * * * * * * * * * * * * * * * * * * * * * * * * * * //

dimensions      [0 0 0 0 0 0 0];

internalField   nonuniform List<scalar> 
110
(
1.90461677e-125
2.26857964e-99
1.97932488e-75
6.24875534e-73
0.00326537705
0.00104200657
0.00168733585
0.00248809121
0.00341481324
0.00446233384
0.00562629078
0.00690261438
0.00828728296
0.00977628929
0.011365639
0.013051367
0.0148295353
0.0166962238
0.0186475468
0.0206796618
0.0227887567
0.0249710055
0.0272226931
0.0295401974
0.0319198661
0.0343580743
0.0368512669
0.0393959389
0.0419886387
0.0446259667
0.0473045786
0.0500211856
0.0527725567
0.0555555197
0.0583669624
0.0612038339
0.0640631463
0.0669419746
0.069837458
0.072746803
0.0756672816
0.0785962321
0.0815310611
0.0844692438
0.087408324
0.0903459144
0.0932796976
0.0962074256
0.0991269204
0.102036074
0.104932848
0.107815275
0.110681456
0.113529563
0.116357836
0.119164584
0.121948187
0.12470709
0.127439807
0.130144919
0.132821074
0.135466985
0.13808143
0.140663249
0.14321135
0.145724699
0.148202324
0.150643316
0.153046823
0.155412052
0.157738267
0.160024787
0.162270988
0.164476299
0.166640199
0.168762222
0.170841949
0.172879011
0.174873086
0.176823897
0.178731213
0.180594847
0.18241465
0.184190519
0.185922387
0.187610224
0.189254038
0.190853874
0.192409807
0.193921947
0.195390435
0.196815441
0.198197163
0.199535828
0.200831688
0.20208502
0.203296124
0.204465324
0.205592962
0.206679402
0.207725027
0.208730238
0.20969545
0.210621097
0.211507623
0.212355492
0.213165171
0.213937076
0.214671696
0.215369697
)
;

boundaryField
{
    inlet
    {
        type            fixedValue;
        value           uniform 0;
    }
    outlet
    {
        type            zeroGradient;
    }
    defaultFaces
    {
        type            empty;
    }
}


// ************************************************************************* //
