/*--------------------------------*- C++ -*----------------------------------*\
  =========                 |
  \\      /  F ield         | OpenFOAM: The Open Source CFD Toolbox
   \\    /   O peration     | Website:  https://openfoam.org
    \\  /    A nd           | Version:  12
     \\/     M anipulation  |
\*---------------------------------------------------------------------------*/
FoamFile
{
    format      ascii;
    class       volScalarField;
    location    "30";
    object      f9.air2;
}
// * * * * * * * * * * * * * * * * * * * * * * * * * * * * * * * * * * * * * //

dimensions      [0 0 0 0 0 0 0];

internalField   nonuniform List<scalar> 
110
(
2.11098495e-127
1.05638995e-103
7.61855878e-78
1.7934172e-76
0.000401773921
3.72460683e-05
6.91354894e-05
0.000120677279
0.000191574078
0.000283956057
0.000400056461
0.000542045574
0.000711990714
0.000911849228
0.00114346463
0.00140856756
0.00170877698
0.00204560104
0.00242043794
0.00283457742
0.00328920389
0.00378538434
0.00432409464
0.00490622754
0.00553256067
0.006203765
0.0069204188
0.00768301125
0.00849193945
0.0093475122
0.0102499517
0.0111993958
0.0121959009
0.0132394441
0.0143299258
0.0154671721
0.0166509377
0.0178809087
0.0191567034
0.0204778784
0.0218439284
0.02325429
0.0247083439
0.0262054182
0.0277447907
0.0293256916
0.0309473062
0.0326087776
0.0343092089
0.0360476665
0.0378231818
0.0396347544
0.0414813543
0.0433619244
0.0452753828
0.0472206256
0.0491965285
0.05120195
0.0532357326
0.055296706
0.0573836883
0.0594954888
0.0616309097
0.0637887478
0.0659677968
0.0681668491
0.0703846971
0.0726201354
0.0748719622
0.0771389808
0.0794200014
0.0817138422
0.0840193309
0.0863353061
0.0886606183
0.0909941313
0.0933347232
0.0956812877
0.0980327345
0.100387991
0.102746002
0.105105732
0.107466164
0.109826303
0.112185174
0.114541822
0.116895317
0.119244748
0.121589229
0.123927897
0.126259911
0.128584455
0.130900735
0.133207983
0.135505453
0.137792426
0.140068203
0.142332112
0.144583504
0.146821754
0.149046261
0.151256448
0.15345176
0.155631667
0.157795658
0.159943253
0.162073978
0.164187195
0.16628242
0.168359733
)
;

boundaryField
{
    inlet
    {
        type            fixedValue;
        value           uniform 0;
    }
    outlet
    {
        type            zeroGradient;
    }
    defaultFaces
    {
        type            empty;
    }
}


// ************************************************************************* //
