/*--------------------------------*- C++ -*----------------------------------*\
  =========                 |
  \\      /  F ield         | OpenFOAM: The Open Source CFD Toolbox
   \\    /   O peration     | Website:  https://openfoam.org
    \\  /    A nd           | Version:  12
     \\/     M anipulation  |
\*---------------------------------------------------------------------------*/
FoamFile
{
    format      ascii;
    class       volScalarField;
    location    "30";
    object      f9.air2;
}
// * * * * * * * * * * * * * * * * * * * * * * * * * * * * * * * * * * * * * //

dimensions      [0 0 0 0 0 0 0];

internalField   nonuniform List<scalar> 
110
(
6.11897639e-116
5.43904087e-93
2.17822563e-68
3.47351543e-41
0.000420053947
3.74380655e-05
6.91733961e-05
0.000120689604
0.000191578804
0.000283958712
0.000400058622
0.000542046235
0.000711991287
0.000911850095
0.00114346511
0.00140856787
0.0017087771
0.00204560128
0.0024204383
0.00283457788
0.00328920433
0.00378538464
0.00432409494
0.0049062277
0.00553256133
0.00620376548
0.0069204194
0.00768301197
0.00849194019
0.00934751301
0.0102499526
0.0111993969
0.0121959022
0.0132394456
0.0143299273
0.0154671736
0.0166509391
0.0178809099
0.0191567041
0.0204778789
0.0218439285
0.0232542892
0.0247083425
0.0262054162
0.0277447881
0.0293256885
0.0309473026
0.0326087734
0.0343092042
0.0360476611
0.0378231758
0.0396347478
0.0414813471
0.0433619166
0.0452753747
0.0472206172
0.0491965202
0.0512019418
0.053235725
0.0552966991
0.0573836826
0.0594954846
0.0616309072
0.0637887473
0.0659677985
0.068166853
0.0703847033
0.0726201437
0.0748719725
0.077138993
0.0794200152
0.0817138573
0.084019347
0.0863353229
0.0886606356
0.0909941489
0.093334741
0.0956813054
0.098032752
0.100388008
0.102746019
0.105105748
0.10746618
0.109826318
0.112185188
0.114541836
0.11689533
0.119244761
0.121589242
0.123927909
0.126259922
0.128584465
0.130900745
0.133207993
0.135505463
0.137792434
0.140068211
0.14233212
0.144583511
0.146821762
0.149046269
0.151256455
0.153451768
0.155631674
0.157795665
0.15994326
0.162073985
0.164187202
0.166282427
0.16835974
)
;

boundaryField
{
    inlet
    {
        type            fixedValue;
        value           uniform 0;
    }
    outlet
    {
        type            zeroGradient;
    }
    defaultFaces
    {
        type            empty;
    }
}


// ************************************************************************* //
