/*--------------------------------*- C++ -*----------------------------------*\
  =========                 |
  \\      /  F ield         | OpenFOAM: The Open Source CFD Toolbox
   \\    /   O peration     | Website:  https://openfoam.org
    \\  /    A nd           | Version:  12
     \\/     M anipulation  |
\*---------------------------------------------------------------------------*/
FoamFile
{
    format      ascii;
    class       volScalarField;
    location    "30";
    object      p;
}
// * * * * * * * * * * * * * * * * * * * * * * * * * * * * * * * * * * * * * //

dimensions      [1 -1 -2 0 0 0 0];

internalField   nonuniform List<scalar> 
110
(
107486.203
107385.454
107284.705
107183.956
107100.352
107032.797
106964.257
106895.801
106827.332
106758.881
106690.45
106622.042
106553.656
106485.293
106416.952
106348.634
106280.339
106212.067
106143.818
106075.591
106007.388
105939.207
105871.052
105802.92
105734.81
105666.721
105598.656
105530.613
105462.594
105394.598
105326.625
105258.676
105190.749
105122.846
105054.967
104987.111
104919.278
104851.469
104783.683
104715.92
104648.182
104580.467
104512.775
104445.107
104377.463
104309.843
104242.246
104174.673
104107.124
104039.599
103972.098
103904.62
103837.167
103769.737
103702.332
103634.95
103567.593
103500.26
103432.95
103365.665
103298.405
103231.168
103163.956
103096.768
103029.604
102962.465
102895.35
102828.259
102761.193
102694.152
102627.135
102560.143
102493.175
102426.232
102359.313
102292.419
102225.55
102158.706
102091.886
102025.092
101958.322
101891.577
101824.857
101758.162
101691.492
101624.847
101558.227
101491.632
101425.062
101358.518
101291.998
101225.504
101159.036
101092.592
101026.174
100959.781
100893.414
100827.072
100760.756
100694.465
100628.2
100561.961
100495.747
100429.559
100363.396
100297.26
100231.148
100165.064
100099.018
100033.003
)
;

boundaryField
{
    inlet
    {
        type            calculated;
        value           uniform 107536.577;
    }
    outlet
    {
        type            calculated;
        value           uniform 100000;
    }
    defaultFaces
    {
        type            empty;
    }
}


// ************************************************************************* //
