/*--------------------------------*- C++ -*----------------------------------*\
  =========                 |
  \\      /  F ield         | OpenFOAM: The Open Source CFD Toolbox
   \\    /   O peration     | Website:  https://openfoam.org
    \\  /    A nd           | Version:  12
     \\/     M anipulation  |
\*---------------------------------------------------------------------------*/
FoamFile
{
    format      ascii;
    class       volScalarField;
    location    "30";
    object      p_rgh;
}
// * * * * * * * * * * * * * * * * * * * * * * * * * * * * * * * * * * * * * //

dimensions      [1 -1 -2 0 0 0 0];

internalField   nonuniform List<scalar> 
110
(
96454.2203
96454.2203
96454.2198
96454.219
100090.992
99859.3313
99881.4961
99876.8111
99878.5454
99880.5172
99882.6997
99884.9126
99887.1268
99889.3275
99891.5104
99893.6742
99895.8188
99897.9437
99900.0491
99902.1377
99904.1945
99906.2437
99908.6817
99910.4335
99912.2641
99914.2027
99916.1451
99918.0669
99919.9678
99921.8487
99923.7084
99925.548
99927.3663
99929.1643
99930.9408
99932.697
99934.4316
99936.1456
99937.8386
99939.5104
99941.1609
99942.79
99944.3976
99945.9837
99947.5482
99949.0911
99950.6123
99952.1117
99953.5893
99955.045
99956.4787
99957.8904
99959.2801
99960.6476
99961.9929
99963.3159
99964.6167
99965.8951
99967.151
99968.3844
99969.5953
99970.7835
99971.949
99973.0918
99974.2117
99975.3088
99976.383
99977.4342
99978.4623
99979.4673
99980.4492
99981.4078
99982.3431
99983.255
99984.1434
99985.0083
99985.8497
99986.6675
99987.4615
99988.2318
99988.9782
99989.7008
99990.3994
99991.074
99991.7245
99992.3509
99992.9531
99993.5309
99994.0844
99994.6135
99995.1182
99995.5982
99996.0537
99996.4845
99996.8905
99997.2716
99997.6279
99997.9592
99998.2655
99998.5467
99998.8027
99999.0334
99999.2388
99999.4187
99999.5733
99999.7039
99999.8032
99999.8892
99999.984
100000
)
;

boundaryField
{
    inlet
    {
        type            fixedFluxPressure;
        gradient        uniform 0;
        value           uniform 96454.2203;
    }
    outlet
    {
        type            prghPressure;
        p               uniform 100000;
        value           uniform 100000;
        rho             rho;
    }
    defaultFaces
    {
        type            empty;
    }
}


// ************************************************************************* //
