/*--------------------------------*- C++ -*----------------------------------*\
  =========                 |
  \\      /  F ield         | OpenFOAM: The Open Source CFD Toolbox
   \\    /   O peration     | Website:  https://openfoam.org
    \\  /    A nd           | Version:  12
     \\/     M anipulation  |
\*---------------------------------------------------------------------------*/
FoamFile
{
    format      ascii;
    class       volScalarField;
    location    "30";
    object      p_rgh;
}
// * * * * * * * * * * * * * * * * * * * * * * * * * * * * * * * * * * * * * //

dimensions      [1 -1 -2 0 0 0 0];

internalField   nonuniform List<scalar> 
110
(
96454.2202
96454.2202
96454.2197
96454.2189
100090.992
99859.3312
99881.4961
99876.811
99878.5454
99880.5171
99882.6995
99884.9125
99887.1269
99889.3273
99891.5102
99893.6742
99895.8186
99897.9436
99900.0491
99902.1377
99904.1945
99906.2436
99908.6816
99910.4334
99912.264
99914.2027
99916.145
99918.0668
99919.9677
99921.8486
99923.7083
99925.5479
99927.3661
99929.1641
99930.9407
99932.6969
99934.4315
99936.1455
99937.8385
99939.5103
99941.1608
99942.7899
99944.3975
99945.9836
99947.5481
99949.091
99950.6122
99952.1116
99953.5892
99955.0449
99956.4786
99957.8903
99959.28
99960.6475
99961.9928
99963.3158
99964.6165
99965.8949
99967.1509
99968.3843
99969.5952
99970.7834
99971.9489
99973.0917
99974.2117
99975.3087
99976.3829
99977.434
99978.4621
99979.4671
99980.449
99981.4075
99982.3428
99983.2547
99984.1432
99985.0082
99985.8496
99986.6674
99987.4615
99988.2318
99988.9783
99989.7009
99990.3995
99991.0741
99991.7246
99992.351
99992.9531
99993.531
99994.0845
99994.6136
99995.1182
99995.5983
99996.0537
99996.4845
99996.8905
99997.2717
99997.6279
99997.9593
99998.2655
99998.5467
99998.8027
99999.0334
99999.2388
99999.4187
99999.5733
99999.7039
99999.8032
99999.8892
99999.984
100000
)
;

boundaryField
{
    inlet
    {
        type            fixedFluxPressure;
        gradient        uniform 0;
        value           uniform 96454.2202;
    }
    outlet
    {
        type            prghPressure;
        p               uniform 100000;
        value           uniform 100000;
        rho             rho;
    }
    defaultFaces
    {
        type            empty;
    }
}


// ************************************************************************* //
