/*--------------------------------*- C++ -*----------------------------------*\
  =========                 |
  \\      /  F ield         | OpenFOAM: The Open Source CFD Toolbox
   \\    /   O peration     | Website:  https://openfoam.org
    \\  /    A nd           | Version:  12
     \\/     M anipulation  |
\*---------------------------------------------------------------------------*/
FoamFile
{
    format      ascii;
    class       surfaceScalarField;
    location    "30";
    object      phi;
}
// * * * * * * * * * * * * * * * * * * * * * * * * * * * * * * * * * * * * * //

dimensions      [0 3 -1 0 0 0 0];

internalField   nonuniform List<scalar> 
109
(
-2.40736748e-16
2.33869451e-16
-1.59427535e-16
4.09255962e-14
0.000787721306
0.000788222271
0.000788727198
0.000789232507
0.000789738449
0.000790244894
0.000790751832
0.000791259257
0.000791767166
0.000792275556
0.000792784431
0.000793293792
0.000793803636
0.000794313963
0.000794824778
0.000795336078
0.000795847863
0.000796360126
0.000796872863
0.000797386094
0.000797899823
0.000798414046
0.000798928757
0.000799443956
0.000799959645
0.000800475823
0.000800992491
0.000801509648
0.000802027297
0.000802545436
0.000803064066
0.000803583187
0.0008041028
0.000804622906
0.000805143504
0.000805664595
0.000806186179
0.000806708257
0.000807230829
0.000807753895
0.000808277456
0.000808801512
0.000809326063
0.00080985111
0.000810376653
0.000810902692
0.000811429229
0.000811956262
0.000812483793
0.000813011822
0.00081354035
0.000814069376
0.0008145989
0.000815128924
0.000815659448
0.000816190472
0.000816721996
0.000817254021
0.000817786547
0.000818319574
0.000818853103
0.000819387134
0.000819921667
0.000820456703
0.000820992243
0.000821528285
0.000822064832
0.000822601883
0.000823139438
0.000823677497
0.000824216062
0.000824755133
0.000825294709
0.000825834791
0.00082637538
0.000826916475
0.000827458077
0.000828000187
0.000828542805
0.00082908593
0.000829629564
0.000830173707
0.000830718358
0.000831263519
0.000831809189
0.000832355369
0.000832902059
0.00083344926
0.000833996972
0.000834545194
0.000835093928
0.000835643174
0.000836192932
0.000836743202
0.000837293984
0.00083784528
0.000838397088
0.00083894941
0.000839502245
0.000840055595
0.000840609458
0.000841163836
0.000841718726
0.000842274076
0.000842829867
)
;

boundaryField
{
    inlet
    {
        type            calculated;
        value           uniform 0;
    }
    outlet
    {
        type            calculated;
        value           uniform 0.000843386223;
    }
    defaultFaces
    {
        type            empty;
    }
}


// ************************************************************************* //
