/*--------------------------------*- C++ -*----------------------------------*\
  =========                 |
  \\      /  F ield         | OpenFOAM: The Open Source CFD Toolbox
   \\    /   O peration     | Website:  https://openfoam.org
    \\  /    A nd           | Version:  12
     \\/     M anipulation  |
\*---------------------------------------------------------------------------*/
FoamFile
{
    format      ascii;
    class       surfaceScalarField;
    location    "30";
    object      phi;
}
// * * * * * * * * * * * * * * * * * * * * * * * * * * * * * * * * * * * * * //

dimensions      [0 3 -1 0 0 0 0];

internalField   nonuniform List<scalar> 
109
(
3.31141542e-16
8.02780273e-18
4.53382822e-17
4.16333634e-16
0.000787721306
0.000788222273
0.000788727196
0.000789232505
0.000789738447
0.000790244894
0.000790751833
0.000791259256
0.000791767164
0.000792275556
0.000792784431
0.00079329379
0.000793803634
0.000794313963
0.000794824777
0.000795336077
0.000795847862
0.000796360125
0.000796872863
0.000797386093
0.000797899823
0.000798414045
0.000798928756
0.000799443956
0.000799959644
0.000800475822
0.00080099249
0.000801509648
0.000802027296
0.000802545435
0.000803064065
0.000803583186
0.0008041028
0.000804622905
0.000805143503
0.000805664594
0.000806186179
0.000806708256
0.000807230828
0.000807753894
0.000808277455
0.000808801511
0.000809326062
0.000809851109
0.000810376652
0.000810902692
0.000811429228
0.000811956262
0.000812483793
0.000813011822
0.000813540349
0.000814069375
0.0008145989
0.000815128924
0.000815659447
0.000816190471
0.000816721995
0.00081725402
0.000817786546
0.000818319573
0.000818853102
0.000819387133
0.000819921667
0.000820456703
0.000820992242
0.000821528285
0.000822064831
0.000822601882
0.000823139437
0.000823677497
0.000824216062
0.000824755132
0.000825294708
0.00082583479
0.000826375379
0.000826916474
0.000827458077
0.000828000187
0.000828542804
0.00082908593
0.000829629563
0.000830173706
0.000830718357
0.000831263518
0.000831809188
0.000832355368
0.000832902059
0.000833449259
0.000833996971
0.000834545194
0.000835093928
0.000835643174
0.000836192931
0.000836743201
0.000837293984
0.000837845279
0.000838397087
0.000838949409
0.000839502245
0.000840055594
0.000840609457
0.000841163835
0.000841718725
0.000842274076
0.000842829866
)
;

boundaryField
{
    inlet
    {
        type            calculated;
        value           uniform 0;
    }
    outlet
    {
        type            calculated;
        value           uniform 0.000843386223;
    }
    defaultFaces
    {
        type            empty;
    }
}


// ************************************************************************* //
