/*--------------------------------*- C++ -*----------------------------------*\
  =========                 |
  \\      /  F ield         | OpenFOAM: The Open Source CFD Toolbox
   \\    /   O peration     | Website:  https://openfoam.org
    \\  /    A nd           | Version:  12
     \\/     M anipulation  |
\*---------------------------------------------------------------------------*/
FoamFile
{
    format      ascii;
    class       surfaceScalarField;
    location    "30";
    object      phi.air3;
}
// * * * * * * * * * * * * * * * * * * * * * * * * * * * * * * * * * * * * * //

dimensions      [0 3 -1 0 0 0 0];

internalField   nonuniform List<scalar> 
109
(
0.00314161243
0.00301343517
0.00308832022
0.00230068569
0.00243619777
0.00251419769
0.00250190361
0.00250493413
0.0025043958
0.00250415365
0.00250365422
0.00250303348
0.00250234323
0.0025016785
0.00250118154
0.00250090157
0.00250070598
0.00250047381
0.00250018309
0.0024998504
0.00249949882
0.0024990284
0.00249860815
0.00249831705
0.00249796155
0.00249757251
0.00249717787
0.00249678242
0.0024963858
0.00249598923
0.0024955927
0.00249519558
0.00249479804
0.00249440006
0.00249400167
0.00249360288
0.00249320374
0.00249280403
0.0024924039
0.00249200342
0.00249160259
0.00249120141
0.00249079988
0.00249039802
0.00248999581
0.00248959327
0.00248919039
0.00248878718
0.00248838363
0.00248797976
0.00248757557
0.00248717105
0.00248676621
0.00248636105
0.00248595555
0.00248554972
0.00248514355
0.00248473705
0.00248433022
0.00248392307
0.00248351559
0.0024831078
0.0024826997
0.00248229129
0.00248188256
0.00248147352
0.00248106415
0.00248065444
0.00248024441
0.00247983403
0.00247942333
0.00247901229
0.00247860092
0.00247818922
0.00247777719
0.00247736484
0.00247695216
0.00247653915
0.00247612582
0.00247571217
0.0024752982
0.00247488391
0.0024744693
0.00247405436
0.0024736391
0.0024732235
0.00247280756
0.00247239128
0.00247197466
0.00247155768
0.00247114034
0.00247072265
0.00247030459
0.00246988616
0.00246946736
0.00246904817
0.0024686286
0.00246820864
0.00246778829
0.00246736754
0.00246694638
0.00246652479
0.0024661029
0.00246568086
0.00246525031
0.00246483801
0.00246441075
0.00246348997
0.00246280166
)
;

boundaryField
{
    inlet
    {
        type            fixedValue;
        value           uniform -0.00246;
    }
    outlet
    {
        type            calculated;
        value           uniform 0.00246307841;
    }
    defaultFaces
    {
        type            empty;
    }
}


// ************************************************************************* //
