/*--------------------------------*- C++ -*----------------------------------*\
  =========                 |
  \\      /  F ield         | OpenFOAM: The Open Source CFD Toolbox
   \\    /   O peration     | Website:  https://openfoam.org
    \\  /    A nd           | Version:  12
     \\/     M anipulation  |
\*---------------------------------------------------------------------------*/
FoamFile
{
    format      ascii;
    class       surfaceScalarField;
    location    "30";
    object      phi.air3;
}
// * * * * * * * * * * * * * * * * * * * * * * * * * * * * * * * * * * * * * //

dimensions      [0 3 -1 0 0 0 0];

internalField   nonuniform List<scalar> 
109
(
0.00314161281
0.00301343595
0.0030883207
0.00230069004
0.00243617807
0.00251408052
0.0025017395
0.00250480101
0.00250429675
0.0025040898
0.00250361305
0.00250300019
0.00250230711
0.00250163625
0.00250113829
0.0025008662
0.00250068232
0.00250046005
0.00250017588
0.00249984712
0.00249949779
0.00249902864
0.00249860915
0.00249831844
0.00249796312
0.00249757417
0.0024971795
0.00249678398
0.00249638728
0.0024959906
0.00249559394
0.00249519672
0.00249479907
0.002494401
0.00249400252
0.00249360366
0.00249320444
0.00249280466
0.00249240448
0.00249200395
0.00249160307
0.00249120185
0.00249080029
0.00249039838
0.00248999614
0.00248959357
0.00248919067
0.00248878743
0.00248838387
0.00248797999
0.00248757578
0.00248717124
0.00248676638
0.00248636118
0.00248595566
0.00248554981
0.00248514364
0.00248473713
0.0024843303
0.00248392315
0.00248351568
0.00248310789
0.00248269978
0.00248229135
0.0024818826
0.00248147352
0.00248106411
0.00248065436
0.00248024429
0.00247983389
0.00247942317
0.00247901212
0.00247860076
0.00247818908
0.00247777708
0.00247736477
0.00247695214
0.00247653919
0.00247612592
0.00247571232
0.0024752984
0.00247488414
0.00247446955
0.00247405462
0.00247363936
0.00247322376
0.00247280782
0.00247239153
0.00247197489
0.0024715579
0.00247114055
0.00247072285
0.00247030477
0.00246988633
0.00246946751
0.00246904831
0.00246862873
0.00246820876
0.0024677884
0.00246736763
0.00246694646
0.00246652486
0.00246610296
0.00246568091
0.00246525035
0.00246483804
0.00246441077
0.00246348997
0.00246280166
)
;

boundaryField
{
    inlet
    {
        type            fixedValue;
        value           uniform -0.00246;
    }
    outlet
    {
        type            calculated;
        value           uniform 0.0024630784;
    }
    defaultFaces
    {
        type            empty;
    }
}


// ************************************************************************* //
