/*--------------------------------*- C++ -*----------------------------------*\
  =========                 |
  \\      /  F ield         | OpenFOAM: The Open Source CFD Toolbox
   \\    /   O peration     | Website:  https://openfoam.org
    \\  /    A nd           | Version:  12
     \\/     M anipulation  |
\*---------------------------------------------------------------------------*/
FoamFile
{
    format      ascii;
    class       surfaceScalarField;
    location    "30";
    object      phi.air1;
}
// * * * * * * * * * * * * * * * * * * * * * * * * * * * * * * * * * * * * * //

dimensions      [0 3 -1 0 0 0 0];

internalField   nonuniform List<scalar> 
109
(
0.00307229933
0.00299208795
0.002851162
0.00228146031
0.00238701919
0.00247061013
0.00245762047
0.00246092737
0.00246052054
0.00246052039
0.00246038325
0.0024602487
0.00246010565
0.00245996063
0.00245981399
0.00245966589
0.00245951623
0.00245936498
0.00245921134
0.0024590566
0.00245890704
0.00245865289
0.00245845484
0.00245838727
0.0024582566
0.00245809185
0.00245791989
0.002457745
0.00245756671
0.00245738493
0.00245719953
0.00245701039
0.0024568174
0.00245662046
0.00245641947
0.00245621434
0.00245600505
0.00245579132
0.00245557325
0.00245535083
0.00245512406
0.0024548929
0.00245465735
0.00245441739
0.00245417303
0.00245392428
0.00245367115
0.00245341367
0.00245315187
0.00245288578
0.00245261544
0.00245234088
0.00245206215
0.00245177929
0.00245149236
0.0024512014
0.00245090647
0.00245060762
0.00245030493
0.00244999843
0.00244968821
0.00244937432
0.00244905682
0.00244873577
0.00244841123
0.00244808325
0.0024477519
0.00244741723
0.0024470793
0.00244673817
0.00244639391
0.00244604658
0.00244569623
0.00244534293
0.00244498673
0.00244462768
0.00244426583
0.00244390124
0.00244353396
0.00244316402
0.00244279148
0.00244241639
0.00244203878
0.00244165871
0.00244127621
0.00244089132
0.0024405041
0.00244011457
0.00243972277
0.00243932874
0.00243893251
0.00243853411
0.00243813359
0.00243773097
0.00243732627
0.00243691954
0.0024365108
0.00243610008
0.00243568739
0.00243527278
0.00243485626
0.00243443783
0.00243401767
0.00243359594
0.00243316438
0.00243274958
0.00243231821
0.00243139618
0.00243070256
)
;

boundaryField
{
    inlet
    {
        type            fixedValue;
        value           uniform -0.00246;
    }
    outlet
    {
        type            calculated;
        value           uniform 0.00243097282;
    }
    defaultFaces
    {
        type            empty;
    }
}


// ************************************************************************* //
