/*--------------------------------*- C++ -*----------------------------------*\
  =========                 |
  \\      /  F ield         | OpenFOAM: The Open Source CFD Toolbox
   \\    /   O peration     | Website:  https://openfoam.org
    \\  /    A nd           | Version:  12
     \\/     M anipulation  |
\*---------------------------------------------------------------------------*/
FoamFile
{
    format      ascii;
    class       surfaceScalarField;
    location    "30";
    object      phi.air2;
}
// * * * * * * * * * * * * * * * * * * * * * * * * * * * * * * * * * * * * * //

dimensions      [0 3 -1 0 0 0 0];

internalField   nonuniform List<scalar> 
109
(
0.00311269485
0.00298972271
0.00306325852
0.00227851872
0.0024167432
0.0024938715
0.00248164553
0.00248456039
0.00248395943
0.00248373187
0.00248337331
0.00248301646
0.00248265188
0.00248228612
0.00248191959
0.00248155262
0.00248118536
0.00248081793
0.00248044964
0.002480082
0.00247972157
0.00247925811
0.00247885333
0.00247858215
0.00247825014
0.00247788675
0.0024775191
0.00247715167
0.00247678409
0.00247641647
0.00247604876
0.00247568098
0.00247531312
0.00247494518
0.00247457715
0.00247420902
0.00247384082
0.00247347233
0.00247310369
0.00247273492
0.00247236605
0.00247199704
0.00247162789
0.00247125859
0.00247088912
0.00247051947
0.00247014963
0.0024697796
0.00246940934
0.00246903886
0.00246866813
0.00246829713
0.00246792586
0.00246755428
0.00246718239
0.00246681016
0.00246643758
0.00246606464
0.0024656913
0.00246531757
0.00246494342
0.00246456884
0.00246419381
0.0024638183
0.0024634423
0.00246306578
0.00246268873
0.00246231112
0.00246193293
0.00246155416
0.00246117478
0.00246079478
0.00246041414
0.00246003286
0.0024596509
0.00245926826
0.00245888491
0.00245850084
0.00245811603
0.00245773046
0.0024573441
0.00245695695
0.00245656897
0.00245618017
0.00245579052
0.0024554
0.0024550086
0.0024546163
0.00245422308
0.00245382893
0.00245343383
0.00245303777
0.00245264072
0.00245224268
0.00245184363
0.00245144355
0.00245104243
0.00245064025
0.002450237
0.00244983266
0.00244942723
0.00244902067
0.0024486131
0.00244820466
0.00244778703
0.00244738685
0.00244697086
0.00244606266
0.00244538581
)
;

boundaryField
{
    inlet
    {
        type            fixedValue;
        value           uniform -0.00246;
    }
    outlet
    {
        type            calculated;
        value           uniform 0.00244566687;
    }
    defaultFaces
    {
        type            empty;
    }
}


// ************************************************************************* //
