/*--------------------------------*- C++ -*----------------------------------*\
  =========                 |
  \\      /  F ield         | OpenFOAM: The Open Source CFD Toolbox
   \\    /   O peration     | Website:  https://openfoam.org
    \\  /    A nd           | Version:  12
     \\/     M anipulation  |
\*---------------------------------------------------------------------------*/
FoamFile
{
    format      ascii;
    class       surfaceScalarField;
    location    "30";
    object      phi.water;
}
// * * * * * * * * * * * * * * * * * * * * * * * * * * * * * * * * * * * * * //

dimensions      [0 3 -1 0 0 0 0];

internalField   nonuniform List<scalar> 
109
(
-2.40736748e-16
2.33869451e-16
-1.59427535e-16
-0.000468885315
-3.74390406e-11
-3.84793881e-06
3.95372241e-11
-3.04877035e-07
-2.44117048e-08
-2.21890673e-08
-5.35080556e-09
-2.88854255e-09
-1.71494965e-09
-1.62721507e-09
-1.76006293e-09
-1.9801639e-09
-2.34061076e-09
-2.76231813e-09
-3.53157016e-09
-2.93564345e-09
-5.94884217e-09
-4.64288873e-08
-6.15038057e-08
-2.32161782e-08
-3.0840413e-09
1.40617352e-11
4.07477939e-12
9.59472058e-13
6.00033536e-12
6.62436189e-12
5.81891901e-12
6.46368521e-12
7.11160739e-12
8.89276431e-12
1.08059998e-11
1.10539902e-11
9.82680747e-12
-5.83759712e-11
-1.47251954e-10
-2.36685096e-10
-3.18096774e-10
-3.91423069e-10
-4.56263699e-10
-5.13939014e-10
-5.66265998e-10
-6.14117934e-10
-6.57773008e-10
-6.96849756e-10
-7.30523385e-10
-7.58145073e-10
-7.7967239e-10
-7.95849778e-10
-8.08358559e-10
-8.19534282e-10
-8.31802231e-10
-8.47204629e-10
-8.66788128e-10
-8.90335315e-10
-9.16254954e-10
-9.42153169e-10
-9.65431434e-10
-9.84155889e-10
-9.97745403e-10
-1.0071109e-09
-1.01454341e-09
-1.02286123e-09
-1.03489089e-09
-1.05255144e-09
-1.07665444e-09
-1.10692744e-09
-1.14242498e-09
-1.18197513e-09
-1.22456438e-09
-1.2694803e-09
-1.3161665e-09
-1.36399937e-09
-1.41203802e-09
-1.4590319e-09
-1.50355604e-09
-1.54431182e-09
-1.58040066e-09
-1.61151043e-09
-1.6379182e-09
-1.66033266e-09
-1.67968815e-09
-1.69700727e-09
-1.71328425e-09
-1.72944408e-09
-1.74636438e-09
-1.76491501e-09
-1.78590928e-09
-1.81010653e-09
-1.83814991e-09
-1.87056598e-09
-1.90777101e-09
-1.95008815e-09
-1.99779563e-09
-2.05117346e-09
-2.11050269e-09
-2.17592031e-09
-2.248326e-09
-2.34001582e-09
-2.30484538e-09
-2.81683966e-09
-5.2145695e-09
3.39214528e-10
-2.69659099e-08
-2.43429625e-07
-3.51364017e-07
)
;

boundaryField
{
    inlet
    {
        type            fixedValue;
        value           uniform 0;
    }
    outlet
    {
        type            calculated;
        value           uniform 3.51617242e-10;
    }
    defaultFaces
    {
        type            empty;
    }
}


// ************************************************************************* //
