/*--------------------------------*- C++ -*----------------------------------*\
  =========                 |
  \\      /  F ield         | OpenFOAM: The Open Source CFD Toolbox
   \\    /   O peration     | Website:  https://openfoam.org
    \\  /    A nd           | Version:  12
     \\/     M anipulation  |
\*---------------------------------------------------------------------------*/
FoamFile
{
    format      ascii;
    class       surfaceScalarField;
    location    "30";
    object      phi.air1;
}
// * * * * * * * * * * * * * * * * * * * * * * * * * * * * * * * * * * * * * //

dimensions      [0 3 -1 0 0 0 0];

internalField   nonuniform List<scalar> 
109
(
0.00307229932
0.00299208794
0.002851162
0.00228146026
0.00238701925
0.00247061015
0.00245762039
0.0024609274
0.00246052049
0.00246052047
0.00246038328
0.00246024865
0.00246010559
0.00245996072
0.00245981402
0.00245966583
0.00245951628
0.00245936501
0.0024592113
0.00245905653
0.00245890701
0.00245865291
0.00245845484
0.00245838728
0.00245825661
0.00245809183
0.0024579199
0.00245774501
0.00245756671
0.00245738495
0.00245719956
0.00245701042
0.00245681744
0.00245662049
0.0024564195
0.00245621437
0.00245600508
0.00245579134
0.00245557326
0.00245535085
0.00245512408
0.00245489292
0.00245465737
0.00245441741
0.00245417306
0.00245392431
0.00245367119
0.00245341371
0.0024531519
0.00245288581
0.00245261546
0.0024523409
0.00245206218
0.00245177933
0.00245149241
0.00245120146
0.00245090653
0.00245060767
0.00245030496
0.00244999845
0.00244968821
0.0024493743
0.0024490568
0.00244873575
0.00244841122
0.00244808326
0.00244775193
0.00244741729
0.00244707938
0.00244673827
0.00244639402
0.00244604669
0.00244569633
0.00244534301
0.00244498678
0.00244462769
0.0024442658
0.00244390116
0.00244353382
0.00244316384
0.00244279127
0.00244241615
0.00244203852
0.00244165844
0.00244127594
0.00244089106
0.00244050384
0.00244011432
0.00243972253
0.00243932851
0.0024389323
0.00243853392
0.0024381334
0.00243773079
0.00243732611
0.00243691938
0.00243651065
0.00243609993
0.00243568726
0.00243527265
0.00243485614
0.00243443772
0.00243401757
0.00243359584
0.00243316428
0.00243274949
0.00243231813
0.0024313961
0.0024307025
)
;

boundaryField
{
    inlet
    {
        type            fixedValue;
        value           uniform -0.00246;
    }
    outlet
    {
        type            calculated;
        value           uniform 0.00243097275;
    }
    defaultFaces
    {
        type            empty;
    }
}


// ************************************************************************* //
