/*--------------------------------*- C++ -*----------------------------------*\
  =========                 |
  \\      /  F ield         | OpenFOAM: The Open Source CFD Toolbox
   \\    /   O peration     | Website:  https://openfoam.org
    \\  /    A nd           | Version:  12
     \\/     M anipulation  |
\*---------------------------------------------------------------------------*/
FoamFile
{
    format      ascii;
    class       surfaceScalarField;
    location    "30";
    object      phi.air2;
}
// * * * * * * * * * * * * * * * * * * * * * * * * * * * * * * * * * * * * * //

dimensions      [0 3 -1 0 0 0 0];

internalField   nonuniform List<scalar> 
109
(
0.00311269479
0.00298972285
0.0030632573
0.00227852519
0.00241674961
0.00249387042
0.00248164553
0.00248456031
0.00248395934
0.00248373184
0.00248337318
0.0024830163
0.00248265176
0.00248228609
0.0024819195
0.00248155248
0.00248118534
0.00248081788
0.00248044954
0.00248008189
0.0024797215
0.00247925809
0.0024788533
0.00247858213
0.00247825013
0.00247788671
0.00247751908
0.00247715165
0.00247678408
0.00247641646
0.00247604877
0.002475681
0.00247531315
0.00247494521
0.00247457717
0.00247420904
0.00247384084
0.00247347234
0.0024731037
0.00247273493
0.00247236605
0.00247199704
0.00247162789
0.00247125859
0.00247088913
0.00247051948
0.00247014965
0.00246977961
0.00246940935
0.00246903886
0.00246866813
0.00246829713
0.00246792586
0.0024675543
0.00246718242
0.00246681019
0.00246643762
0.00246606466
0.00246569132
0.00246531757
0.00246494341
0.00246456882
0.00246419378
0.00246381828
0.0024634423
0.00246306581
0.00246268879
0.00246231121
0.00246193305
0.00246155429
0.00246117492
0.00246079492
0.00246041428
0.00246003297
0.00245965099
0.00245926831
0.00245888491
0.00245850079
0.00245811593
0.00245773031
0.00245734392
0.00245695674
0.00245656875
0.00245617994
0.00245579029
0.00245539977
0.00245500838
0.00245461609
0.00245422288
0.00245382875
0.00245343366
0.00245303761
0.00245264058
0.00245224255
0.00245184351
0.00245144343
0.00245104232
0.00245064015
0.00245023691
0.00244983259
0.00244942717
0.00244902061
0.00244861305
0.00244820462
0.00244778699
0.00244738682
0.00244697083
0.00244606265
0.0024453858
)
;

boundaryField
{
    inlet
    {
        type            fixedValue;
        value           uniform -0.00246;
    }
    outlet
    {
        type            calculated;
        value           uniform 0.00244566686;
    }
    defaultFaces
    {
        type            empty;
    }
}


// ************************************************************************* //
