/*--------------------------------*- C++ -*----------------------------------*\
  =========                 |
  \\      /  F ield         | OpenFOAM: The Open Source CFD Toolbox
   \\    /   O peration     | Website:  https://openfoam.org
    \\  /    A nd           | Version:  12
     \\/     M anipulation  |
\*---------------------------------------------------------------------------*/
FoamFile
{
    format      ascii;
    class       surfaceScalarField;
    location    "30";
    object      phi.water;
}
// * * * * * * * * * * * * * * * * * * * * * * * * * * * * * * * * * * * * * //

dimensions      [0 3 -1 0 0 0 0];

internalField   nonuniform List<scalar> 
109
(
3.31141542e-16
8.02780273e-18
4.53382822e-17
-0.00046888533
-7.39677417e-14
-3.84789382e-06
1.78620171e-12
-3.0487589e-07
-2.44396342e-08
-2.21713755e-08
-5.33995259e-09
-2.88131387e-09
-1.74494126e-09
-1.62415712e-09
-1.74710362e-09
-2.01080226e-09
-2.33664366e-09
-2.74193241e-09
-3.50975142e-09
-2.92737163e-09
-5.95332205e-09
-4.64301176e-08
-6.15139101e-08
-2.32190968e-08
-3.07598988e-09
4.27371607e-12
3.52997627e-12
2.57117279e-12
1.04732882e-12
-2.57476846e-12
-5.86605043e-12
-7.19804935e-12
-5.58675736e-12
-2.92059532e-12
-8.69971751e-13
2.22071985e-12
5.60816185e-12
-6.07375618e-11
-1.50435294e-10
-2.38073937e-10
-3.17432067e-10
-3.90056948e-10
-4.57055168e-10
-5.18054095e-10
-5.73449279e-10
-6.22947059e-10
-6.65845133e-10
-7.02234684e-10
-7.32618155e-10
-7.57783008e-10
-7.78699813e-10
-7.96431765e-10
-8.12218775e-10
-8.27384472e-10
-8.43096379e-10
-8.6008955e-10
-8.78467141e-10
-8.97693388e-10
-9.1683463e-10
-9.34933647e-10
-9.5139339e-10
-9.66256916e-10
-9.803007e-10
-9.94889708e-10
-1.01168789e-09
-1.03222732e-09
-1.05753366e-09
-1.08784754e-09
-1.12258374e-09
-1.16046126e-09
-1.1998079e-09
-1.23889663e-09
-1.27624e-09
-1.31078266e-09
-1.34198252e-09
-1.36979198e-09
-1.39458262e-09
-1.41701519e-09
-1.43786782e-09
-1.45790787e-09
-1.47773628e-09
-1.49773325e-09
-1.51804118e-09
-1.53865723e-09
-1.55954008e-09
-1.58072643e-09
-1.60240923e-09
-1.62496105e-09
-1.64889395e-09
-1.6747866e-09
-1.70321019e-09
-1.7346965e-09
-1.7697219e-09
-1.80873078e-09
-1.852158e-09
-1.90043727e-09
-1.9539718e-09
-2.01313557e-09
-2.07820986e-09
-2.14924851e-09
-2.22702002e-09
-2.32368804e-09
-2.29306105e-09
-2.80910052e-09
-5.21123798e-09
3.39054593e-10
-2.69695638e-08
-2.43437956e-07
-3.51376413e-07
)
;

boundaryField
{
    inlet
    {
        type            fixedValue;
        value           uniform 0;
    }
    outlet
    {
        type            calculated;
        value           uniform 3.37938908e-10;
    }
    defaultFaces
    {
        type            empty;
    }
}


// ************************************************************************* //
