/*--------------------------------*- C++ -*----------------------------------*\
  =========                 |
  \\      /  F ield         | OpenFOAM: The Open Source CFD Toolbox
   \\    /   O peration     | Website:  https://openfoam.org
    \\  /    A nd           | Version:  12
     \\/     M anipulation  |
\*---------------------------------------------------------------------------*/
FoamFile
{
    format      ascii;
    class       volVectorField;
    location    "30";
    object      U.air2;
}
// * * * * * * * * * * * * * * * * * * * * * * * * * * * * * * * * * * * * * //

dimensions      [0 1 -1 0 0 0 0];

internalField   nonuniform List<vector> 
110
(
(0 0.278634739 0)
(0 0.305120882 0)
(0 0.302649007 0)
(0 0.267089124 0)
(0 0.23476374 0)
(0 0.245531001 0)
(0 0.248775798 0)
(0 0.248310292 0)
(0 0.248425982 0)
(0 0.248384559 0)
(0 0.248355251 0)
(0 0.248319474 0)
(0 0.248283403 0)
(0 0.248246893 0)
(0 0.24821028 0)
(0 0.248173599 0)
(0 0.248136891 0)
(0 0.248100161 0)
(0 0.248063371 0)
(0 0.248026572 0)
(0 0.247990169 0)
(0 0.247948979 0)
(0 0.24790557 0)
(0 0.247871771 0)
(0 0.247841613 0)
(0 0.247806842 0)
(0 0.247770289 0)
(0 0.247733537 0)
(0 0.247696786 0)
(0 0.247660027 0)
(0 0.247623261 0)
(0 0.247586488 0)
(0 0.247549707 0)
(0 0.247512918 0)
(0 0.247476119 0)
(0 0.247439311 0)
(0 0.247402494 0)
(0 0.247365659 0)
(0 0.247328802 0)
(0 0.247291931 0)
(0 0.247255049 0)
(0 0.247218155 0)
(0 0.247181247 0)
(0 0.247144324 0)
(0 0.247107386 0)
(0 0.24707043 0)
(0 0.247033457 0)
(0 0.246996463 0)
(0 0.246959448 0)
(0 0.24692241 0)
(0 0.246885349 0)
(0 0.246848263 0)
(0 0.24681115 0)
(0 0.246774008 0)
(0 0.246736836 0)
(0 0.246699631 0)
(0 0.246662391 0)
(0 0.246625114 0)
(0 0.246587799 0)
(0 0.246550444 0)
(0 0.246513049 0)
(0 0.246475611 0)
(0 0.24643813 0)
(0 0.246400603 0)
(0 0.246363029 0)
(0 0.246325406 0)
(0 0.24628773 0)
(0 0.24625 0)
(0 0.246212213 0)
(0 0.246174367 0)
(0 0.246136461 0)
(0 0.246098492 0)
(0 0.24606046 0)
(0 0.246022363 0)
(0 0.245984198 0)
(0 0.245945965 0)
(0 0.245907661 0)
(0 0.245869285 0)
(0 0.245830836 0)
(0 0.245792312 0)
(0 0.245753711 0)
(0 0.245715033 0)
(0 0.245676274 0)
(0 0.245637434 0)
(0 0.245598511 0)
(0 0.245559503 0)
(0 0.245520408 0)
(0 0.245481223 0)
(0 0.245441949 0)
(0 0.245402582 0)
(0 0.24536312 0)
(0 0.245323564 0)
(0 0.245283909 0)
(0 0.245244156 0)
(0 0.245204303 0)
(0 0.245164347 0)
(0 0.245124288 0)
(0 0.245084124 0)
(0 0.245043853 0)
(0 0.245003475 0)
(0 0.244962988 0)
(0 0.244922389 0)
(0 0.244881683 0)
(0 0.244840883 0)
(0 0.24479958 0)
(0 0.24475869 0)
(0 0.244717882 0)
(0 0.244651674 0)
(0 0.244572422 0)
(0 0.244552633 0)
)
;

boundaryField
{
    inlet
    {
        type            fixedValue;
        value           uniform (0 0.246 0);
    }
    outlet
    {
        type            zeroGradient;
    }
    defaultFaces
    {
        type            empty;
    }
}

sources
{
    massSource
    {
        type            uniformFixedValue;
        uniformValue    
        {
            type            constant;
            value           (0 0 0);
        }
    }
}


// ************************************************************************* //
