/*--------------------------------*- C++ -*----------------------------------*\
  =========                 |
  \\      /  F ield         | OpenFOAM: The Open Source CFD Toolbox
   \\    /   O peration     | Website:  https://openfoam.org
    \\  /    A nd           | Version:  12
     \\/     M anipulation  |
\*---------------------------------------------------------------------------*/
FoamFile
{
    format      ascii;
    class       volVectorField;
    location    "30";
    object      U.air3;
}
// * * * * * * * * * * * * * * * * * * * * * * * * * * * * * * * * * * * * * //

dimensions      [0 1 -1 0 0 0 0];

internalField   nonuniform List<vector> 
110
(
(0 0.28008064 0)
(0 0.307752438 0)
(0 0.305087832 0)
(0 0.269450537 0)
(0 0.236843405 0)
(0 0.247512929 0)
(0 0.250791001 0)
(0 0.250327025 0)
(0 0.250454888 0)
(0 0.250419327 0)
(0 0.250385143 0)
(0 0.250330662 0)
(0 0.250265365 0)
(0 0.250197168 0)
(0 0.250138727 0)
(0 0.250100225 0)
(0 0.250077426 0)
(0 0.250057118 0)
(0 0.250031796 0)
(0 0.25000115 0)
(0 0.249967246 0)
(0 0.249926321 0)
(0 0.249881889 0)
(0 0.249846379 0)
(0 0.249814078 0)
(0 0.249776865 0)
(0 0.249737684 0)
(0 0.249698174 0)
(0 0.249658563 0)
(0 0.249618894 0)
(0 0.249579227 0)
(0 0.249539533 0)
(0 0.249499789 0)
(0 0.249460003 0)
(0 0.249420176 0)
(0 0.249380309 0)
(0 0.249340405 0)
(0 0.249300455 0)
(0 0.249260457 0)
(0 0.249220422 0)
(0 0.249180351 0)
(0 0.249140246 0)
(0 0.249100107 0)
(0 0.249059934 0)
(0 0.249019726 0)
(0 0.248979486 0)
(0 0.248939212 0)
(0 0.248898905 0)
(0 0.248858565 0)
(0 0.248818193 0)
(0 0.248777788 0)
(0 0.248737351 0)
(0 0.248696881 0)
(0 0.248656378 0)
(0 0.248615842 0)
(0 0.248575274 0)
(0 0.248534672 0)
(0 0.248494038 0)
(0 0.248453372 0)
(0 0.248412673 0)
(0 0.248371941 0)
(0 0.248331179 0)
(0 0.248290384 0)
(0 0.248249557 0)
(0 0.248208698 0)
(0 0.248167806 0)
(0 0.248126881 0)
(0 0.248085924 0)
(0 0.248044933 0)
(0 0.248003909 0)
(0 0.247962853 0)
(0 0.247921764 0)
(0 0.247880644 0)
(0 0.247839492 0)
(0 0.247798308 0)
(0 0.247757093 0)
(0 0.247715846 0)
(0 0.247674567 0)
(0 0.247633256 0)
(0 0.247591912 0)
(0 0.247550536 0)
(0 0.247509127 0)
(0 0.247467684 0)
(0 0.247426209 0)
(0 0.247384699 0)
(0 0.247343156 0)
(0 0.247301579 0)
(0 0.247259967 0)
(0 0.247218321 0)
(0 0.24717664 0)
(0 0.247134923 0)
(0 0.24709317 0)
(0 0.247051381 0)
(0 0.247009555 0)
(0 0.246967692 0)
(0 0.246925791 0)
(0 0.246883852 0)
(0 0.246841875 0)
(0 0.246799858 0)
(0 0.246757801 0)
(0 0.246715705 0)
(0 0.246673566 0)
(0 0.246631391 0)
(0 0.246589193 0)
(0 0.246546563 0)
(0 0.246504419 0)
(0 0.24646244 0)
(0 0.246395037 0)
(0 0.246314581 0)
(0 0.246294003 0)
)
;

boundaryField
{
    inlet
    {
        type            fixedValue;
        value           uniform (0 0.246 0);
    }
    outlet
    {
        type            zeroGradient;
    }
    defaultFaces
    {
        type            empty;
    }
}

sources
{
    massSource
    {
        type            uniformFixedValue;
        uniformValue    
        {
            type            constant;
            value           (0 0 0);
        }
    }
}


// ************************************************************************* //
