/*--------------------------------*- C++ -*----------------------------------*\
  =========                 |
  \\      /  F ield         | OpenFOAM: The Open Source CFD Toolbox
   \\    /   O peration     | Website:  https://openfoam.org
    \\  /    A nd           | Version:  12
     \\/     M anipulation  |
\*---------------------------------------------------------------------------*/
FoamFile
{
    format      ascii;
    class       volVectorField;
    location    "30";
    object      U.air3;
}
// * * * * * * * * * * * * * * * * * * * * * * * * * * * * * * * * * * * * * //

dimensions      [0 1 -1 0 0 0 0];

internalField   nonuniform List<vector> 
110
(
(0 0.280080622 0)
(0 0.30775238 0)
(0 0.305087769 0)
(0 0.269450295 0)
(0 0.236844173 0)
(0 0.247519773 0)
(0 0.250805065 0)
(0 0.250341887 0)
(0 0.250466497 0)
(0 0.250427472 0)
(0 0.250390393 0)
(0 0.250334385 0)
(0 0.250268836 0)
(0 0.250201087 0)
(0 0.250143002 0)
(0 0.250104155 0)
(0 0.250080377 0)
(0 0.25005899 0)
(0 0.250032845 0)
(0 0.250001674 0)
(0 0.249967461 0)
(0 0.249926361 0)
(0 0.249881827 0)
(0 0.24984626 0)
(0 0.24981393 0)
(0 0.249776703 0)
(0 0.249737519 0)
(0 0.249698015 0)
(0 0.249658411 0)
(0 0.249618752 0)
(0 0.249579096 0)
(0 0.249539414 0)
(0 0.249499681 0)
(0 0.249459905 0)
(0 0.249420087 0)
(0 0.249380228 0)
(0 0.249340331 0)
(0 0.249300388 0)
(0 0.249260396 0)
(0 0.249220366 0)
(0 0.2491803 0)
(0 0.2491402 0)
(0 0.249100064 0)
(0 0.249059895 0)
(0 0.249019691 0)
(0 0.248979454 0)
(0 0.248939183 0)
(0 0.248898878 0)
(0 0.248858541 0)
(0 0.24881817 0)
(0 0.248777767 0)
(0 0.248737331 0)
(0 0.248696863 0)
(0 0.248656363 0)
(0 0.24861583 0)
(0 0.248575263 0)
(0 0.248534664 0)
(0 0.24849403 0)
(0 0.248453364 0)
(0 0.248412664 0)
(0 0.248371933 0)
(0 0.248331169 0)
(0 0.248290375 0)
(0 0.248249549 0)
(0 0.248208693 0)
(0 0.248167804 0)
(0 0.248126883 0)
(0 0.24808593 0)
(0 0.248044943 0)
(0 0.248003922 0)
(0 0.247962868 0)
(0 0.247921781 0)
(0 0.24788066 0)
(0 0.247839507 0)
(0 0.247798321 0)
(0 0.247757101 0)
(0 0.24771585 0)
(0 0.247674565 0)
(0 0.247633249 0)
(0 0.2475919 0)
(0 0.247550519 0)
(0 0.247509106 0)
(0 0.247467661 0)
(0 0.247426183 0)
(0 0.247384673 0)
(0 0.24734313 0)
(0 0.247301553 0)
(0 0.247259942 0)
(0 0.247218297 0)
(0 0.247176617 0)
(0 0.247134901 0)
(0 0.24709315 0)
(0 0.247051362 0)
(0 0.247009538 0)
(0 0.246967676 0)
(0 0.246925776 0)
(0 0.246883839 0)
(0 0.246841862 0)
(0 0.246799847 0)
(0 0.246757792 0)
(0 0.246715696 0)
(0 0.246673559 0)
(0 0.246631385 0)
(0 0.246589188 0)
(0 0.246546559 0)
(0 0.246504416 0)
(0 0.246462438 0)
(0 0.246395036 0)
(0 0.246314581 0)
(0 0.246294004 0)
)
;

boundaryField
{
    inlet
    {
        type            fixedValue;
        value           uniform (0 0.246 0);
    }
    outlet
    {
        type            zeroGradient;
    }
    defaultFaces
    {
        type            empty;
    }
}

sources
{
    massSource
    {
        type            uniformFixedValue;
        uniformValue    
        {
            type            constant;
            value           (0 0 0);
        }
    }
}


// ************************************************************************* //
