/*--------------------------------*- C++ -*----------------------------------*\
  =========                 |
  \\      /  F ield         | OpenFOAM: The Open Source CFD Toolbox
   \\    /   O peration     | Website:  https://openfoam.org
    \\  /    A nd           | Version:  12
     \\/     M anipulation  |
\*---------------------------------------------------------------------------*/
FoamFile
{
    format      ascii;
    class       volVectorField;
    location    "30";
    object      U.air1;
}
// * * * * * * * * * * * * * * * * * * * * * * * * * * * * * * * * * * * * * //

dimensions      [0 1 -1 0 0 0 0];

internalField   nonuniform List<vector> 
110
(
(0 0.276614966 0)
(0 0.303219363 0)
(0 0.292162497 0)
(0 0.256631113 0)
(0 0.233423976 0)
(0 0.24288147 0)
(0 0.246411527 0)
(0 0.245927389 0)
(0 0.246072395 0)
(0 0.246052048 0)
(0 0.246045187 0)
(0 0.246031597 0)
(0 0.246017712 0)
(0 0.246003315 0)
(0 0.245988737 0)
(0 0.245973993 0)
(0 0.245959106 0)
(0 0.245944065 0)
(0 0.245928816 0)
(0 0.245913392 0)
(0 0.245898177 0)
(0 0.245877996 0)
(0 0.245855387 0)
(0 0.245842106 0)
(0 0.245832195 0)
(0 0.245817422 0)
(0 0.245800587 0)
(0 0.245783245 0)
(0 0.245765586 0)
(0 0.245747583 0)
(0 0.245729225 0)
(0 0.245710499 0)
(0 0.245691393 0)
(0 0.245671896 0)
(0 0.245651999 0)
(0 0.245631693 0)
(0 0.245610972 0)
(0 0.245589821 0)
(0 0.24556823 0)
(0 0.245546206 0)
(0 0.245523746 0)
(0 0.24550085 0)
(0 0.245477514 0)
(0 0.245453739 0)
(0 0.245429523 0)
(0 0.245404868 0)
(0 0.245379775 0)
(0 0.245354245 0)
(0 0.245328281 0)
(0 0.245301886 0)
(0 0.245275063 0)
(0 0.245247818 0)
(0 0.245220154 0)
(0 0.245192076 0)
(0 0.245163587 0)
(0 0.245134693 0)
(0 0.245105399 0)
(0 0.24507571 0)
(0 0.245045632 0)
(0 0.245015171 0)
(0 0.244984333 0)
(0 0.244953126 0)
(0 0.244921555 0)
(0 0.244889627 0)
(0 0.244857349 0)
(0 0.244824724 0)
(0 0.24479176 0)
(0 0.244758461 0)
(0 0.244724833 0)
(0 0.244690883 0)
(0 0.244656615 0)
(0 0.244622036 0)
(0 0.244587151 0)
(0 0.244551967 0)
(0 0.244516489 0)
(0 0.244480723 0)
(0 0.244444674 0)
(0 0.244408348 0)
(0 0.244371749 0)
(0 0.244334883 0)
(0 0.244297755 0)
(0 0.244260371 0)
(0 0.244222734 0)
(0 0.244184848 0)
(0 0.244146719 0)
(0 0.24410835 0)
(0 0.244069745 0)
(0 0.244030908 0)
(0 0.243991843 0)
(0 0.243952552 0)
(0 0.243913041 0)
(0 0.243873311 0)
(0 0.243833366 0)
(0 0.24379321 0)
(0 0.243752845 0)
(0 0.243712275 0)
(0 0.243671502 0)
(0 0.243630529 0)
(0 0.24358936 0)
(0 0.243547996 0)
(0 0.24350644 0)
(0 0.243464693 0)
(0 0.243422765 0)
(0 0.24338067 0)
(0 0.243338006 0)
(0 0.243295689 0)
(0 0.243253381 0)
(0 0.243185711 0)
(0 0.24310493 0)
(0 0.243083762 0)
)
;

boundaryField
{
    inlet
    {
        type            fixedValue;
        value           uniform (0 0.246 0);
    }
    outlet
    {
        type            zeroGradient;
    }
    defaultFaces
    {
        type            empty;
    }
}

sources
{
    massSource
    {
        type            uniformFixedValue;
        uniformValue    
        {
            type            constant;
            value           (0 0 0);
        }
    }
}


// ************************************************************************* //
