/*--------------------------------*- C++ -*----------------------------------*\
  =========                 |
  \\      /  F ield         | OpenFOAM: The Open Source CFD Toolbox
   \\    /   O peration     | Website:  https://openfoam.org
    \\  /    A nd           | Version:  12
     \\/     M anipulation  |
\*---------------------------------------------------------------------------*/
FoamFile
{
    format      ascii;
    class       volVectorField;
    location    "30";
    object      U.air2;
}
// * * * * * * * * * * * * * * * * * * * * * * * * * * * * * * * * * * * * * //

dimensions      [0 1 -1 0 0 0 0];

internalField   nonuniform List<vector> 
110
(
(0 0.278634743 0)
(0 0.305120878 0)
(0 0.302649062 0)
(0 0.267088862 0)
(0 0.234763096 0)
(0 0.245530735 0)
(0 0.248775852 0)
(0 0.248310296 0)
(0 0.248425991 0)
(0 0.248384565 0)
(0 0.248355259 0)
(0 0.248319488 0)
(0 0.248283417 0)
(0 0.2482469 0)
(0 0.248210285 0)
(0 0.24817361 0)
(0 0.248136899 0)
(0 0.248100164 0)
(0 0.248063378 0)
(0 0.248026582 0)
(0 0.247990179 0)
(0 0.247948984 0)
(0 0.247905572 0)
(0 0.247871774 0)
(0 0.247841614 0)
(0 0.247806844 0)
(0 0.247770292 0)
(0 0.247733538 0)
(0 0.247696788 0)
(0 0.247660028 0)
(0 0.247623261 0)
(0 0.247586487 0)
(0 0.247549705 0)
(0 0.247512915 0)
(0 0.247476117 0)
(0 0.247439309 0)
(0 0.247402492 0)
(0 0.247365657 0)
(0 0.247328801 0)
(0 0.247291931 0)
(0 0.247255049 0)
(0 0.247218154 0)
(0 0.247181247 0)
(0 0.247144324 0)
(0 0.247107385 0)
(0 0.247070429 0)
(0 0.247033455 0)
(0 0.246996461 0)
(0 0.246959447 0)
(0 0.24692241 0)
(0 0.246885349 0)
(0 0.246848263 0)
(0 0.24681115 0)
(0 0.246774007 0)
(0 0.246736834 0)
(0 0.246699628 0)
(0 0.246662387 0)
(0 0.246625111 0)
(0 0.246587797 0)
(0 0.246550444 0)
(0 0.24651305 0)
(0 0.246475613 0)
(0 0.246438133 0)
(0 0.246400606 0)
(0 0.24636303 0)
(0 0.246325404 0)
(0 0.246287726 0)
(0 0.246249992 0)
(0 0.246212203 0)
(0 0.246174355 0)
(0 0.246136447 0)
(0 0.246098478 0)
(0 0.246060446 0)
(0 0.24602235 0)
(0 0.245984188 0)
(0 0.245945958 0)
(0 0.245907659 0)
(0 0.245869288 0)
(0 0.245830844 0)
(0 0.245792324 0)
(0 0.245753728 0)
(0 0.245715052 0)
(0 0.245676296 0)
(0 0.245637457 0)
(0 0.245598534 0)
(0 0.245559526 0)
(0 0.24552043 0)
(0 0.245481245 0)
(0 0.245441969 0)
(0 0.2454026 0)
(0 0.245363138 0)
(0 0.24532358 0)
(0 0.245283925 0)
(0 0.24524417 0)
(0 0.245204316 0)
(0 0.245164359 0)
(0 0.245124299 0)
(0 0.245084134 0)
(0 0.245043862 0)
(0 0.245003483 0)
(0 0.244962995 0)
(0 0.244922395 0)
(0 0.244881688 0)
(0 0.244840888 0)
(0 0.244799584 0)
(0 0.244758694 0)
(0 0.244717885 0)
(0 0.244651676 0)
(0 0.244572424 0)
(0 0.244552634 0)
)
;

boundaryField
{
    inlet
    {
        type            fixedValue;
        value           uniform (0 0.246 0);
    }
    outlet
    {
        type            zeroGradient;
    }
    defaultFaces
    {
        type            empty;
    }
}

sources
{
    massSource
    {
        type            uniformFixedValue;
        uniformValue    
        {
            type            constant;
            value           (0 0 0);
        }
    }
}


// ************************************************************************* //
