/*--------------------------------*- C++ -*----------------------------------*\
  =========                 |
  \\      /  F ield         | OpenFOAM: The Open Source CFD Toolbox
   \\    /   O peration     | Website:  https://openfoam.org
    \\  /    A nd           | Version:  12
     \\/     M anipulation  |
\*---------------------------------------------------------------------------*/
FoamFile
{
    format      ascii;
    class       volVectorField;
    location    "30";
    object      U.air1;
}
// * * * * * * * * * * * * * * * * * * * * * * * * * * * * * * * * * * * * * //

dimensions      [0 1 -1 0 0 0 0];

internalField   nonuniform List<vector> 
110
(
(0 0.276614966 0)
(0 0.303219364 0)
(0 0.292162497 0)
(0 0.256631115 0)
(0 0.233423975 0)
(0 0.242881466 0)
(0 0.24641153 0)
(0 0.245927392 0)
(0 0.246072396 0)
(0 0.246052046 0)
(0 0.246045182 0)
(0 0.246031597 0)
(0 0.246017717 0)
(0 0.246003314 0)
(0 0.245988731 0)
(0 0.245973994 0)
(0 0.245959106 0)
(0 0.245944061 0)
(0 0.245928816 0)
(0 0.245913397 0)
(0 0.245898182 0)
(0 0.245877996 0)
(0 0.245855386 0)
(0 0.245842105 0)
(0 0.245832193 0)
(0 0.245817422 0)
(0 0.245800587 0)
(0 0.245783245 0)
(0 0.245765586 0)
(0 0.245747582 0)
(0 0.245729223 0)
(0 0.245710496 0)
(0 0.24569139 0)
(0 0.245671893 0)
(0 0.245651996 0)
(0 0.245631691 0)
(0 0.24561097 0)
(0 0.245589818 0)
(0 0.245568228 0)
(0 0.245546204 0)
(0 0.245523745 0)
(0 0.245500848 0)
(0 0.245477513 0)
(0 0.245453737 0)
(0 0.245429521 0)
(0 0.245404865 0)
(0 0.245379771 0)
(0 0.245354241 0)
(0 0.245328277 0)
(0 0.245301883 0)
(0 0.245275061 0)
(0 0.245247816 0)
(0 0.245220152 0)
(0 0.245192072 0)
(0 0.245163583 0)
(0 0.245134688 0)
(0 0.245105394 0)
(0 0.245075705 0)
(0 0.245045627 0)
(0 0.245015168 0)
(0 0.244984332 0)
(0 0.244953127 0)
(0 0.244921557 0)
(0 0.24488963 0)
(0 0.24485735 0)
(0 0.244824724 0)
(0 0.244791758 0)
(0 0.244758456 0)
(0 0.244724826 0)
(0 0.244690874 0)
(0 0.244656604 0)
(0 0.244622025 0)
(0 0.244587141 0)
(0 0.244551958 0)
(0 0.244516483 0)
(0 0.24448072 0)
(0 0.244444675 0)
(0 0.244408354 0)
(0 0.24437176 0)
(0 0.244334899 0)
(0 0.244297775 0)
(0 0.244260394 0)
(0 0.244222759 0)
(0 0.244184874 0)
(0 0.244146746 0)
(0 0.244108377 0)
(0 0.244069771 0)
(0 0.244030933 0)
(0 0.243991867 0)
(0 0.243952575 0)
(0 0.243913062 0)
(0 0.243873331 0)
(0 0.243833385 0)
(0 0.243793228 0)
(0 0.243752862 0)
(0 0.243712291 0)
(0 0.243671517 0)
(0 0.243630544 0)
(0 0.243589373 0)
(0 0.243548009 0)
(0 0.243506452 0)
(0 0.243464705 0)
(0 0.243422775 0)
(0 0.24338068 0)
(0 0.243338016 0)
(0 0.243295698 0)
(0 0.243253389 0)
(0 0.243185719 0)
(0 0.243104937 0)
(0 0.243083769 0)
)
;

boundaryField
{
    inlet
    {
        type            fixedValue;
        value           uniform (0 0.246 0);
    }
    outlet
    {
        type            zeroGradient;
    }
    defaultFaces
    {
        type            empty;
    }
}

sources
{
    massSource
    {
        type            uniformFixedValue;
        uniformValue    
        {
            type            constant;
            value           (0 0 0);
        }
    }
}


// ************************************************************************* //
