/*--------------------------------*- C++ -*----------------------------------*\
  =========                 |
  \\      /  F ield         | OpenFOAM: The Open Source CFD Toolbox
   \\    /   O peration     | Website:  https://openfoam.org
    \\  /    A nd           | Version:  12
     \\/     M anipulation  |
\*---------------------------------------------------------------------------*/
FoamFile
{
    format      ascii;
    class       volVectorField;
    location    "30";
    object      U.bubbles;
}
// * * * * * * * * * * * * * * * * * * * * * * * * * * * * * * * * * * * * * //

dimensions      [0 1 -1 0 0 0 0];

internalField   nonuniform List<vector> 
110
(
(0 0.278443438 0)
(0 0.305364195 0)
(0 0.299966414 0)
(0 0.264390106 0)
(0 0.233423989 0)
(0 0.242881489 0)
(0 0.246411551 0)
(0 0.245927413 0)
(0 0.246072418 0)
(0 0.24605208 0)
(0 0.246045237 0)
(0 0.246031689 0)
(0 0.246017867 0)
(0 0.246003553 0)
(0 0.245989097 0)
(0 0.245974537 0)
(0 0.245959889 0)
(0 0.24594516 0)
(0 0.245930321 0)
(0 0.245915413 0)
(0 0.245900831 0)
(0 0.245881416 0)
(0 0.245859732 0)
(0 0.24584755 0)
(0 0.245838926 0)
(0 0.24582565 0)
(0 0.245810531 0)
(0 0.245795145 0)
(0 0.245779697 0)
(0 0.245764173 0)
(0 0.245748582 0)
(0 0.245732919 0)
(0 0.245717187 0)
(0 0.245701385 0)
(0 0.245685515 0)
(0 0.245669575 0)
(0 0.245653569 0)
(0 0.245637488 0)
(0 0.24562133 0)
(0 0.245605104 0)
(0 0.245588814 0)
(0 0.24557246 0)
(0 0.245556043 0)
(0 0.245539563 0)
(0 0.245523021 0)
(0 0.245506416 0)
(0 0.24548975 0)
(0 0.245473022 0)
(0 0.245456234 0)
(0 0.245439384 0)
(0 0.245422474 0)
(0 0.245405504 0)
(0 0.245388473 0)
(0 0.24537138 0)
(0 0.245354227 0)
(0 0.245337013 0)
(0 0.245319737 0)
(0 0.2453024 0)
(0 0.245285002 0)
(0 0.245267543 0)
(0 0.245250022 0)
(0 0.24523244 0)
(0 0.245214797 0)
(0 0.245197091 0)
(0 0.245179324 0)
(0 0.245161493 0)
(0 0.245143599 0)
(0 0.245125641 0)
(0 0.245107618 0)
(0 0.245089531 0)
(0 0.245071379 0)
(0 0.245053162 0)
(0 0.245034881 0)
(0 0.245016534 0)
(0 0.244998123 0)
(0 0.244979646 0)
(0 0.244961102 0)
(0 0.244942493 0)
(0 0.244923816 0)
(0 0.244905071 0)
(0 0.244886258 0)
(0 0.244867375 0)
(0 0.244848423 0)
(0 0.2448294 0)
(0 0.244810306 0)
(0 0.244791141 0)
(0 0.244771903 0)
(0 0.244752592 0)
(0 0.244733208 0)
(0 0.244713749 0)
(0 0.244694214 0)
(0 0.244674604 0)
(0 0.244654916 0)
(0 0.24463515 0)
(0 0.244615305 0)
(0 0.24459538 0)
(0 0.244575374 0)
(0 0.244555286 0)
(0 0.244535115 0)
(0 0.24451486 0)
(0 0.24449452 0)
(0 0.244474091 0)
(0 0.244453582 0)
(0 0.244432996 0)
(0 0.244411965 0)
(0 0.244391229 0)
(0 0.244371209 0)
(0 0.244323364 0)
(0 0.2442765 0)
(0 0.244277185 0)
)
;

boundaryField
{
    inlet
    {
        type            calculated;
        value           uniform (0 0.246 0);
    }
    outlet
    {
        type            calculated;
        value           uniform (0 0.244277185 0);
    }
    defaultFaces
    {
        type            empty;
    }
}


// ************************************************************************* //
