/*--------------------------------*- C++ -*----------------------------------*\
  =========                 |
  \\      /  F ield         | OpenFOAM: The Open Source CFD Toolbox
   \\    /   O peration     | Website:  https://openfoam.org
    \\  /    A nd           | Version:  12
     \\/     M anipulation  |
\*---------------------------------------------------------------------------*/
FoamFile
{
    format      ascii;
    class       volVectorField;
    location    "30";
    object      U.bubbles;
}
// * * * * * * * * * * * * * * * * * * * * * * * * * * * * * * * * * * * * * //

dimensions      [0 1 -1 0 0 0 0];

internalField   nonuniform List<vector> 
110
(
(0 0.278443445 0)
(0 0.305364216 0)
(0 0.299966438 0)
(0 0.264390194 0)
(0 0.23342399 0)
(0 0.242881489 0)
(0 0.246411543 0)
(0 0.245927411 0)
(0 0.24607242 0)
(0 0.246052083 0)
(0 0.246045241 0)
(0 0.246031686 0)
(0 0.246017862 0)
(0 0.246003555 0)
(0 0.245989102 0)
(0 0.245974534 0)
(0 0.245959889 0)
(0 0.245945164 0)
(0 0.245930319 0)
(0 0.245915407 0)
(0 0.245900826 0)
(0 0.245881417 0)
(0 0.245859733 0)
(0 0.24584755 0)
(0 0.245838927 0)
(0 0.245825649 0)
(0 0.245810531 0)
(0 0.245795146 0)
(0 0.245779697 0)
(0 0.245764173 0)
(0 0.245748583 0)
(0 0.245732922 0)
(0 0.24571719 0)
(0 0.245701388 0)
(0 0.245685518 0)
(0 0.245669578 0)
(0 0.245653572 0)
(0 0.24563749 0)
(0 0.245621331 0)
(0 0.245605106 0)
(0 0.245588815 0)
(0 0.245572462 0)
(0 0.245556045 0)
(0 0.245539565 0)
(0 0.245523023 0)
(0 0.245506419 0)
(0 0.245489753 0)
(0 0.245473026 0)
(0 0.245456237 0)
(0 0.245439387 0)
(0 0.245422476 0)
(0 0.245405506 0)
(0 0.245388475 0)
(0 0.245371384 0)
(0 0.245354231 0)
(0 0.245337018 0)
(0 0.245319743 0)
(0 0.245302405 0)
(0 0.245285006 0)
(0 0.245267545 0)
(0 0.245250022 0)
(0 0.245232439 0)
(0 0.245214794 0)
(0 0.245197089 0)
(0 0.245179322 0)
(0 0.245161494 0)
(0 0.245143602 0)
(0 0.245125646 0)
(0 0.245107626 0)
(0 0.245089541 0)
(0 0.24507139 0)
(0 0.245053174 0)
(0 0.245034892 0)
(0 0.245016544 0)
(0 0.244998131 0)
(0 0.24497965 0)
(0 0.244961103 0)
(0 0.244942488 0)
(0 0.244923806 0)
(0 0.244905057 0)
(0 0.244886239 0)
(0 0.244867353 0)
(0 0.244848399 0)
(0 0.244829375 0)
(0 0.244810281 0)
(0 0.244791116 0)
(0 0.244771879 0)
(0 0.244752569 0)
(0 0.244733186 0)
(0 0.244713728 0)
(0 0.244694195 0)
(0 0.244674585 0)
(0 0.244654899 0)
(0 0.244635134 0)
(0 0.24461529 0)
(0 0.244595366 0)
(0 0.244575361 0)
(0 0.244555274 0)
(0 0.244535104 0)
(0 0.24451485 0)
(0 0.24449451 0)
(0 0.244474083 0)
(0 0.244453575 0)
(0 0.244432989 0)
(0 0.244411959 0)
(0 0.244391223 0)
(0 0.244371204 0)
(0 0.24432336 0)
(0 0.244276497 0)
(0 0.244277183 0)
)
;

boundaryField
{
    inlet
    {
        type            calculated;
        value           uniform (0 0.246 0);
    }
    outlet
    {
        type            calculated;
        value           uniform (0 0.244277183 0);
    }
    defaultFaces
    {
        type            empty;
    }
}


// ************************************************************************* //
