/*--------------------------------*- C++ -*----------------------------------*\
  =========                 |
  \\      /  F ield         | OpenFOAM: The Open Source CFD Toolbox
   \\    /   O peration     | Website:  https://openfoam.org
    \\  /    A nd           | Version:  12
     \\/     M anipulation  |
\*---------------------------------------------------------------------------*/
FoamFile
{
    format      ascii;
    class       volVectorField;
    location    "30";
    object      U.water;
}
// * * * * * * * * * * * * * * * * * * * * * * * * * * * * * * * * * * * * * //

dimensions      [0 1 -1 0 0 0 0];

internalField   nonuniform List<vector> 
110
(
(0 -1.20368374e-14 0)
(0 -3.43364838e-16 0)
(0 3.72209579e-15 0)
(0 -0.0234442657 0)
(0 -0.0234442676 0)
(0 -0.000192398813 0)
(0 -0.000192394964 0)
(0 -1.52418749e-05 0)
(0 -1.6464437e-05 0)
(0 -2.3300386e-06 0)
(0 -1.37699364e-06 0)
(0 -4.11967406e-07 0)
(0 -2.3017461e-07 0)
(0 -1.67108236e-07 0)
(0 -1.693639e-07 0)
(0 -1.87011341e-07 0)
(0 -2.16038733e-07 0)
(0 -2.55146444e-07 0)
(0 -3.14694414e-07 0)
(0 -3.2336068e-07 0)
(0 -4.44224281e-07 0)
(0 -2.61888648e-06 0)
(0 -5.39663465e-06 0)
(0 -4.23599919e-06 0)
(0 -1.31501097e-06 0)
(0 -1.53498978e-07 0)
(0 9.0682573e-10 0)
(0 2.51712572e-10 0)
(0 3.47990371e-10 0)
(0 6.31234862e-10 0)
(0 6.22164045e-10 0)
(0 6.14130211e-10 0)
(0 6.7876463e-10 0)
(0 8.00218585e-10 0)
(0 9.84938208e-10 0)
(0 1.0929995e-09 0)
(0 1.04403988e-09 0)
(0 -2.42745819e-09 0)
(0 -1.02813962e-08 0)
(0 -1.91968525e-08 0)
(0 -2.77390935e-08 0)
(0 -3.54759921e-08 0)
(0 -4.23843384e-08 0)
(0 -4.85101356e-08 0)
(0 -5.40102506e-08 0)
(0 -5.90191966e-08 0)
(0 -6.35945471e-08 0)
(0 -6.77311382e-08 0)
(0 -7.1368657e-08 0)
(0 -7.44334229e-08 0)
(0 -7.68908732e-08 0)
(0 -7.87761084e-08 0)
(0 -8.02104168e-08 0)
(0 -8.13946421e-08 0)
(0 -8.25668257e-08 0)
(0 -8.3950343e-08 0)
(0 -8.56996379e-08 0)
(0 -8.78561722e-08 0)
(0 -9.03295134e-08 0)
(0 -9.29204061e-08 0)
(0 -9.53792301e-08 0)
(0 -9.74793661e-08 0)
(0 -9.90950646e-08 0)
(0 -1.00242815e-07 0)
(0 -1.01082715e-07 0)
(0 -1.01870232e-07 0)
(0 -1.02887606e-07 0)
(0 -1.04372116e-07 0)
(0 -1.06460294e-07 0)
(0 -1.09179094e-07 0)
(0 -1.12467621e-07 0)
(0 -1.16220005e-07 0)
(0 -1.20326976e-07 0)
(0 -1.24702234e-07 0)
(0 -1.2928234e-07 0)
(0 -1.34008293e-07 0)
(0 -1.38801869e-07 0)
(0 -1.43553496e-07 0)
(0 -1.48129397e-07 0)
(0 -1.52393393e-07 0)
(0 -1.56235624e-07 0)
(0 -1.59595554e-07 0)
(0 -1.62471431e-07 0)
(0 -1.64912543e-07 0)
(0 -1.6700104e-07 0)
(0 -1.68834771e-07 0)
(0 -1.70514576e-07 0)
(0 -1.72136417e-07 0)
(0 -1.73790423e-07 0)
(0 -1.75563969e-07 0)
(0 -1.77541214e-07 0)
(0 -1.79800791e-07 0)
(0 -1.82412822e-07 0)
(0 -1.85435794e-07 0)
(0 -1.8891685e-07 0)
(0 -1.92892958e-07 0)
(0 -1.97394189e-07 0)
(0 -2.02448455e-07 0)
(0 -2.08083807e-07 0)
(0 -2.1432115e-07 0)
(0 -2.21212316e-07 0)
(0 -2.29417091e-07 0)
(0 -2.3224306e-07 0)
(0 -2.56084252e-07 0)
(0 -4.01570458e-07 0)
(0 -2.43767749e-07 0)
(0 -1.33133477e-06 0)
(0 -1.35197768e-05 0)
(0 -2.97396821e-05 0)
(0 -1.755062e-05 0)
)
;

boundaryField
{
    inlet
    {
        type            fixedValue;
        value           uniform (0 0 0);
    }
    outlet
    {
        type            zeroGradient;
    }
    defaultFaces
    {
        type            empty;
    }
}


// ************************************************************************* //
