/*--------------------------------*- C++ -*----------------------------------*\
  =========                 |
  \\      /  F ield         | OpenFOAM: The Open Source CFD Toolbox
   \\    /   O peration     | Website:  https://openfoam.org
    \\  /    A nd           | Version:  12
     \\/     M anipulation  |
\*---------------------------------------------------------------------------*/
FoamFile
{
    format      ascii;
    class       volVectorField;
    location    "30";
    object      U.water;
}
// * * * * * * * * * * * * * * * * * * * * * * * * * * * * * * * * * * * * * //

dimensions      [0 1 -1 0 0 0 0];

internalField   nonuniform List<vector> 
110
(
(0 1.65570771e-14 0)
(0 1.69584672e-14 0)
(0 2.66830425e-15 0)
(0 -0.0234442665 0)
(0 -0.0234442665 0)
(0 -0.000192394695 0)
(0 -0.000192394602 0)
(0 -1.52437052e-05 0)
(0 -1.64657762e-05 0)
(0 -2.33055048e-06 0)
(0 -1.3755664e-06 0)
(0 -4.11063323e-07 0)
(0 -2.31312757e-07 0)
(0 -1.68454919e-07 0)
(0 -1.68563037e-07 0)
(0 -1.87895294e-07 0)
(0 -2.17372296e-07 0)
(0 -2.53928804e-07 0)
(0 -3.12584191e-07 0)
(0 -3.21856152e-07 0)
(0 -4.44034684e-07 0)
(0 -2.61917198e-06 0)
(0 -5.39720138e-06 0)
(0 -4.23665034e-06 0)
(0 -1.31475433e-06 0)
(0 -1.53585808e-07 0)
(0 3.90184617e-10 0)
(0 3.05057453e-10 0)
(0 1.8092508e-10 0)
(0 -7.63719817e-11 0)
(0 -4.22040944e-10 0)
(0 -6.53204989e-10 0)
(0 -6.39240335e-10 0)
(0 -4.25367634e-10 0)
(0 -1.89528353e-10 0)
(0 6.7537405e-11 0)
(0 3.91444085e-10 0)
(0 -2.75647e-09 0)
(0 -1.05586428e-08 0)
(0 -1.94254615e-08 0)
(0 -2.77753002e-08 0)
(0 -3.53744507e-08 0)
(0 -4.23556058e-08 0)
(0 -4.87554632e-08 0)
(0 -5.45751687e-08 0)
(0 -5.98198169e-08 0)
(0 -6.44396096e-08 0)
(0 -6.84039909e-08 0)
(0 -7.17426419e-08 0)
(0 -7.45200581e-08 0)
(0 -7.6824141e-08 0)
(0 -7.87565789e-08 0)
(0 -8.0432527e-08 0)
(0 -8.19801624e-08 0)
(0 -8.35240425e-08 0)
(0 -8.51592964e-08 0)
(0 -8.69278346e-08 0)
(0 -8.88080265e-08 0)
(0 -9.07264009e-08 0)
(0 -9.25884138e-08 0)
(0 -9.43163518e-08 0)
(0 -9.58825153e-08 0)
(0 -9.73278808e-08 0)
(0 -9.87595204e-08 0)
(0 -1.0032888e-07 0)
(0 -1.02195761e-07 0)
(0 -1.04488049e-07 0)
(0 -1.0726906e-07 0)
(0 -1.10521564e-07 0)
(0 -1.1415225e-07 0)
(0 -1.18013458e-07 0)
(0 -1.21935226e-07 0)
(0 -1.25756831e-07 0)
(0 -1.29351133e-07 0)
(0 -1.32638259e-07 0)
(0 -1.35588725e-07 0)
(0 -1.3821873e-07 0)
(0 -1.40579891e-07 0)
(0 -1.4274415e-07 0)
(0 -1.44788784e-07 0)
(0 -1.46782208e-07 0)
(0 -1.48773477e-07 0)
(0 -1.50788722e-07 0)
(0 -1.5283492e-07 0)
(0 -1.54909865e-07 0)
(0 -1.57013326e-07 0)
(0 -1.59156783e-07 0)
(0 -1.61368514e-07 0)
(0 -1.6369275e-07 0)
(0 -1.66184028e-07 0)
(0 -1.68899839e-07 0)
(0 -1.71895334e-07 0)
(0 -1.7522092e-07 0)
(0 -1.78922634e-07 0)
(0 -1.83044439e-07 0)
(0 -1.87629763e-07 0)
(0 -1.92720453e-07 0)
(0 -1.98355368e-07 0)
(0 -2.04567271e-07 0)
(0 -2.11372918e-07 0)
(0 -2.18813427e-07 0)
(0 -2.27535403e-07 0)
(0 -2.30837455e-07 0)
(0 -2.55108079e-07 0)
(0 -4.01016925e-07 0)
(0 -2.4360917e-07 0)
(0 -1.33152546e-06 0)
(0 -1.3520376e-05 0)
(0 -2.97407185e-05 0)
(0 -1.75519237e-05 0)
)
;

boundaryField
{
    inlet
    {
        type            fixedValue;
        value           uniform (0 0 0);
    }
    outlet
    {
        type            zeroGradient;
    }
    defaultFaces
    {
        type            empty;
    }
}


// ************************************************************************* //
