/*--------------------------------*- C++ -*----------------------------------*\
  =========                 |
  \\      /  F ield         | OpenFOAM: The Open Source CFD Toolbox
   \\    /   O peration     | Website:  https://openfoam.org
    \\  /    A nd           | Version:  12
     \\/     M anipulation  |
\*---------------------------------------------------------------------------*/
FoamFile
{
    format      ascii;
    class       volScalarField;
    location    "2.48";
    object      p_rgh;
}
// * * * * * * * * * * * * * * * * * * * * * * * * * * * * * * * * * * * * * //

dimensions      [1 -1 -2 0 0 0 0];

internalField   nonuniform List<scalar> 
3829
(
0.574887
0.57467
0.574227
0.573549
0.572623
0.571434
0.569965
0.5682
0.566117
0.563696
0.560912
0.557743
0.554163
0.550147
0.545671
0.54071
0.535241
0.529243
0.522694
0.515574
0.507866
0.499556
0.490634
0.481096
0.47094
0.460174
0.448811
0.436871
0.42438
0.411372
0.397887
0.383973
0.369681
0.355071
0.340205
0.325151
0.309984
0.294784
0.279624
0.264624
0.249848
0.235372
0.221271
0.207616
0.194479
0.181925
0.170018
0.158813
0.148361
0.138707
0.129886
0.121929
0.114856
0.108682
0.10341
0.0990359
0.0955434
0.092906
0.0910871
0.0900391
0.0897057
0.0900209
0.09091
0.0922901
0.0940721
0.0961612
0.0984579
0.100859
0.103258
0.10555
0.107628
0.109389
0.110732
0.111564
0.111785
0.111327
0.110121
0.108103
0.105226
0.101453
0.0967564
0.0911269
0.0845692
0.0770887
0.0687287
0.0595304
0.049552
0.0388626
0.0275397
0.0156732
0.00336006
-0.00929566
-0.0221827
-0.0352307
-0.0482405
-0.0611393
-0.0738144
-0.0861526
-0.0980488
-0.109403
-0.12012
-0.130114
-0.13931
-0.147643
-0.155058
-0.161511
-0.16697
-0.171415
-0.174838
-0.17724
-0.178636
-0.179047
-0.178507
-0.177056
-0.174745
-0.171629
-0.167772
-0.16324
-0.158106
-0.152447
-0.146337
-0.139858
-0.133088
-0.126105
-0.118987
-0.111809
-0.104643
-0.0975608
-0.0906537
-0.0839302
-0.0774706
-0.0713268
-0.0655439
-0.0601626
-0.0552176
-0.0507374
-0.0467459
-0.0432601
-0.040292
-0.0378489
-0.0359321
-0.0345383
-0.0336585
-0.033277
-0.0333773
-0.0339421
-0.034949
-0.0363718
-0.038182
-0.0403491
-0.0428403
-0.0456219
-0.0486593
-0.0519169
-0.0553595
-0.0589514
-0.0626577
-0.0664448
-0.0702793
-0.0741296
-0.0779657
-0.0817593
-0.0854843
-0.0891165
-0.0926344
-0.0959685
-0.0991956
-0.102253
-0.105128
-0.107812
-0.110298
-0.112581
-0.114657
-0.116528
-0.118197
-0.119666
-0.120943
-0.122037
-0.122956
-0.12371
-0.124312
-0.124774
-0.125105
-0.125318
-0.125423
-0.125433
-0.125359
-0.125213
-0.125005
-0.12475
-0.12446
-0.124149
-0.12383
-0.123517
-0.123222
-0.122957
-0.122731
-0.122553
-0.12243
-0.122366
0.596453
0.596325
0.596064
0.595656
0.595085
0.594332
0.59337
0.59217
0.590699
0.588918
0.586789
0.584268
0.58131
0.577872
0.573909
0.569373
0.564214
0.558384
0.551834
0.54452
0.536408
0.527468
0.517679
0.50703
0.495522
0.483164
0.469978
0.455998
0.441268
0.425842
0.409786
0.393174
0.37609
0.358624
0.340874
0.322939
0.304932
0.28696
0.269122
0.251558
0.234371
0.21766
0.201521
0.186047
0.171321
0.157425
0.14443
0.1324
0.12139
0.111446
0.102604
0.0948897
0.0883189
0.0828948
0.0786095
0.0754415
0.0733574
0.0723102
0.0722409
0.0730793
0.0747445
0.0771448
0.0801799
0.0837404
0.0877104
0.0919684
0.0963882
0.100843
0.105202
0.109338
0.113123
0.116438
0.119134
0.121152
0.122378
0.122719
0.1221
0.120459
0.117748
0.113934
0.109
0.102945
0.0957852
0.0875688
0.0783271
0.0681232
0.0570369
0.0451601
0.032592
0.0194436
0.00583454
-0.00811044
-0.0222604
-0.0364883
-0.0506566
-0.0646364
-0.0783033
-0.0915339
-0.104215
-0.116242
-0.127513
-0.137945
-0.147461
-0.155999
-0.163509
-0.169952
-0.175303
-0.179551
-0.182693
-0.184752
-0.185743
-0.185698
-0.184659
-0.182678
-0.179814
-0.176132
-0.171702
-0.1666
-0.160905
-0.1547
-0.148066
-0.141086
-0.133846
-0.126424
-0.118902
-0.111358
-0.103864
-0.0964935
-0.0893182
-0.0823797
-0.0757404
-0.0694515
-0.0635569
-0.0580956
-0.0530996
-0.0485958
-0.0446059
-0.0411449
-0.0382219
-0.0358419
-0.0340048
-0.0327061
-0.0319388
-0.0316572
-0.0318736
-0.0325623
-0.0336971
-0.0352496
-0.0371896
-0.039485
-0.0421019
-0.0450054
-0.0481598
-0.0515289
-0.0550765
-0.0587668
-0.062564
-0.0664346
-0.0703446
-0.0742626
-0.0781584
-0.0820036
-0.0857719
-0.0894384
-0.0929794
-0.0963615
-0.0995991
-0.102665
-0.105544
-0.108228
-0.110708
-0.112981
-0.115044
-0.116899
-0.118547
-0.119995
-0.121249
-0.122318
-0.123212
-0.123942
-0.124521
-0.12496
-0.125269
-0.125461
-0.125547
-0.125539
-0.125447
-0.125283
-0.125059
-0.124787
-0.12448
-0.124153
-0.12382
-0.123494
-0.123188
-0.122914
-0.122682
-0.122499
-0.122373
-0.122308
0.625573
0.625734
0.626052
0.626515
0.627097
0.62776
0.628456
0.629122
0.629686
0.630062
0.630156
0.629867
0.629086
0.627702
0.625602
0.622682
0.618831
0.613945
0.607923
0.600678
0.592134
0.582233
0.570934
0.558219
0.544091
0.528576
0.511722
0.4936
0.4743
0.453933
0.432623
0.410509
0.387733
0.364445
0.340821
0.317048
0.293291
0.269691
0.246743
0.224357
0.202685
0.181869
0.162041
0.143323
0.125825
0.109646
0.0948724
0.0815769
0.0698179
0.0596401
0.0510724
0.0441288
0.0388069
0.0350875
0.0329332
0.0322887
0.0330832
0.0352284
0.038623
0.0431512
0.0486864
0.0550868
0.0622023
0.0698736
0.0779362
0.0862217
0.0945591
0.102775
0.110695
0.118152
0.124958
0.130999
0.136116
0.140182
0.143081
0.14471
0.144991
0.143856
0.141264
0.137198
0.13166
0.124671
0.116279
0.106542
0.0955462
0.0833886
0.0701871
0.0560733
0.0411867
0.0256786
0.0097071
-0.00656507
-0.0229696
-0.039338
-0.0555325
-0.0713903
-0.0867645
-0.101514
-0.115515
-0.128653
-0.140824
-0.151944
-0.161941
-0.170758
-0.178355
-0.184705
-0.189798
-0.193638
-0.196239
-0.197642
-0.197879
-0.197001
-0.195065
-0.19214
-0.1883
-0.183625
-0.1782
-0.172113
-0.165455
-0.158316
-0.150788
-0.142962
-0.134929
-0.126772
-0.118575
-0.110419
-0.102378
-0.0945353
-0.0869378
-0.0796451
-0.0727141
-0.066193
-0.0601224
-0.0545379
-0.0494684
-0.0449368
-0.0409606
-0.0375507
-0.0347121
-0.0324451
-0.0307447
-0.0296002
-0.0289952
-0.0289233
-0.0293508
-0.0302552
-0.0316092
-0.0333822
-0.0355421
-0.0380543
-0.0408828
-0.0439913
-0.0473424
-0.0508984
-0.0546222
-0.0584766
-0.0624257
-0.0664351
-0.0704708
-0.0745013
-0.0784963
-0.0824276
-0.0862689
-0.0899952
-0.0935832
-0.0970123
-0.100277
-0.103359
-0.106246
-0.108928
-0.111399
-0.113656
-0.115696
-0.117521
-0.119136
-0.120547
-0.121761
-0.122788
-0.12364
-0.124327
-0.124868
-0.125269
-0.125542
-0.1257
-0.125753
-0.125714
-0.125592
-0.1254
-0.125147
-0.124847
-0.124513
-0.124159
-0.123802
-0.123455
-0.123131
-0.122842
-0.122599
-0.122409
-0.122278
-0.12221
0.647724
0.648581
0.6503
0.652863
0.656224
0.660303
0.664994
0.67016
0.675633
0.681226
0.686732
0.691949
0.696661
0.700613
0.703529
0.705129
0.705148
0.703346
0.699502
0.693432
0.684986
0.674055
0.660573
0.644524
0.625942
0.604911
0.581561
0.556068
0.528647
0.499546
0.469041
0.437431
0.405026
0.372126
0.339036
0.306051
0.27345
0.241518
0.210429
0.18053
0.152031
0.125122
0.0999692
0.0767182
0.0554947
0.0364057
0.0195366
0.00495351
-0.00729826
-0.0171945
-0.0247324
-0.0299306
-0.0328301
-0.0334976
-0.0320225
-0.0285155
-0.023107
-0.0159457
-0.00719902
0.00295089
0.0143081
0.0266618
0.0397932
0.0534726
0.0674643
0.0815279
0.0954164
0.108921
0.121774
0.133799
0.144768
0.154489
0.162779
0.16948
0.174456
0.177601
0.178829
0.178084
0.175346
0.170612
0.163917
0.155319
0.144911
0.132805
0.119134
0.104053
0.0877351
0.0703716
0.0521595
0.0333047
0.0140167
-0.0054955
-0.0250245
-0.0441735
-0.0631124
-0.0814655
-0.0990703
-0.115771
-0.131433
-0.145939
-0.159183
-0.171085
-0.181582
-0.190631
-0.198208
-0.204304
-0.208928
-0.212111
-0.213908
-0.214362
-0.213533
-0.211494
-0.208325
-0.204118
-0.198967
-0.192972
-0.186234
-0.178856
-0.170945
-0.162602
-0.153928
-0.145023
-0.135983
-0.126898
-0.117855
-0.108939
-0.100224
-0.0917944
-0.0836859
-0.0759653
-0.0686855
-0.0618914
-0.0556191
-0.0498995
-0.0447569
-0.0402093
-0.0362685
-0.0329402
-0.030224
-0.0281151
-0.0266034
-0.0256726
-0.0253023
-0.025484
-0.0261793
-0.02736
-0.0289949
-0.0310504
-0.0334908
-0.0362791
-0.0393768
-0.042745
-0.0463447
-0.0501366
-0.054082
-0.0581428
-0.0622822
-0.0664654
-0.0706579
-0.0748283
-0.0789467
-0.0829852
-0.0869179
-0.0907199
-0.0943619
-0.0978418
-0.101141
-0.104244
-0.107139
-0.109819
-0.112277
-0.11451
-0.11652
-0.118308
-0.119879
-0.121241
-0.122404
-0.123378
-0.124176
-0.124807
-0.125301
-0.125654
-0.125881
-0.125996
-0.126009
-0.125932
-0.125774
-0.125545
-0.125257
-0.124921
-0.124552
-0.124165
-0.123776
-0.123402
-0.123055
-0.122749
-0.122492
-0.122292
-0.122156
-0.122086
0.634013
0.636378
0.641138
0.648261
0.657649
0.669141
0.682501
0.69743
0.713558
0.730455
0.747655
0.764679
0.780995
0.796039
0.809245
0.820073
0.82801
0.832586
0.833391
0.830086
0.822408
0.810184
0.793335
0.771886
0.745969
0.715829
0.681815
0.644362
0.603952
0.561053
0.516159
0.469838
0.422671
0.375224
0.327976
0.281322
0.235542
0.192111
0.150614
0.111349
0.0745566
0.0404451
0.0091936
-0.0190454
-0.0441447
-0.066005
-0.0845523
-0.099746
-0.111571
-0.120045
-0.125214
-0.127154
-0.125973
-0.12181
-0.114828
-0.105213
-0.0931744
-0.0789447
-0.0627749
-0.0449346
-0.0257026
-0.0053809
0.0157211
0.0372864
0.0589989
0.0805436
0.101234
0.12145
0.140538
0.15821
0.174215
0.18831
0.200279
0.209943
0.217156
0.221791
0.223774
0.223071
0.219685
0.213651
0.205052
0.194027
0.180709
0.165278
0.147939
0.128923
0.108481
0.0868823
0.0643946
0.0412957
0.0178658
-0.00562376
-0.0289029
-0.0516769
-0.0738185
-0.0950682
-0.115229
-0.134128
-0.151619
-0.167584
-0.181924
-0.194568
-0.205471
-0.214609
-0.221979
-0.227596
-0.23149
-0.23369
-0.234471
-0.233708
-0.231526
-0.228036
-0.223352
-0.217588
-0.210864
-0.203301
-0.195017
-0.186134
-0.176771
-0.167042
-0.157058
-0.146927
-0.136753
-0.126629
-0.116646
-0.106889
-0.0974461
-0.0883642
-0.0797076
-0.0715323
-0.0638877
-0.0568136
-0.0503414
-0.0444964
-0.0392971
-0.0347555
-0.0308775
-0.0276627
-0.0251047
-0.0231929
-0.0219115
-0.0212396
-0.0211481
-0.0216233
-0.0226271
-0.0241254
-0.0260827
-0.0284609
-0.0312211
-0.0343229
-0.0377252
-0.041387
-0.0452669
-0.0493238
-0.0535179
-0.0578095
-0.0621611
-0.0665374
-0.0709037
-0.0752289
-0.0794832
-0.0836396
-0.0876737
-0.0915648
-0.0952501
-0.0987898
-0.102127
-0.105251
-0.108154
-0.110829
-0.11327
-0.115476
-0.11745
-0.119193
-0.120714
-0.12202
-0.123123
-0.124037
-0.124777
-0.12536
-0.125784
-0.12608
-0.126256
-0.126323
-0.126292
-0.126173
-0.125975
-0.125707
-0.125379
-0.125003
-0.124594
-0.124168
-0.123744
-0.123339
-0.122967
-0.122641
-0.122369
-0.12216
-0.122017
-0.121945
0.547418
0.552819
0.563697
0.580008
0.601574
0.628069
0.659008
0.693742
0.731431
0.771135
0.811767
0.852149
0.89113
0.927618
0.960569
0.988998
1.01198
1.02867
1.03834
1.04043
1.03453
1.02042
0.99802
0.967472
0.929106
0.883463
0.831275
0.77346
0.71109
0.645353
0.577419
0.50842
0.439384
0.37115
0.30439
0.239724
0.177938
0.119201
0.064168
0.0131183
-0.0337243
-0.0761825
-0.114116
-0.147424
-0.176036
-0.19992
-0.219078
-0.233545
-0.243389
-0.248711
-0.249644
-0.246356
-0.239047
-0.227945
-0.213306
-0.19541
-0.174565
-0.151102
-0.125373
-0.0977496
-0.0686196
-0.0383891
-0.00747444
0.023698
0.0546946
0.0850677
0.114457
0.142478
0.168731
0.192858
0.214531
0.23346
0.249389
0.262109
0.271462
0.277329
0.279654
0.278426
0.273688
0.265537
0.254215
0.239816
0.222587
0.202799
0.180756
0.156783
0.131227
0.104449
0.0768076
0.0486645
0.0203682
-0.00773822
-0.0353173
-0.0620824
-0.0878079
-0.112228
-0.13513
-0.156327
-0.175674
-0.19306
-0.208399
-0.221641
-0.232765
-0.241778
-0.248713
-0.253624
-0.256598
-0.257756
-0.257045
-0.254729
-0.250912
-0.245719
-0.239286
-0.231753
-0.223263
-0.213954
-0.203966
-0.193435
-0.182496
-0.171274
-0.159889
-0.148456
-0.137085
-0.125871
-0.114909
-0.104294
-0.0940942
-0.0843539
-0.075146
-0.0665207
-0.0585218
-0.0511834
-0.0445308
-0.0385836
-0.0333535
-0.0288457
-0.02506
-0.0219893
-0.0196206
-0.0179371
-0.0169175
-0.016537
-0.0167532
-0.0175516
-0.0188917
-0.0207344
-0.0230391
-0.025764
-0.0288663
-0.0323027
-0.0360291
-0.0400021
-0.0441784
-0.0485152
-0.0529709
-0.0575049
-0.0620787
-0.0666562
-0.0712031
-0.0756883
-0.080083
-0.0843603
-0.088495
-0.0924599
-0.09623
-0.0998142
-0.103185
-0.106329
-0.109237
-0.111904
-0.114326
-0.116502
-0.118435
-0.12013
-0.121594
-0.12284
-0.123879
-0.124727
-0.1254
-0.125916
-0.126283
-0.126522
-0.126644
-0.126662
-0.126586
-0.126424
-0.126185
-0.125877
-0.125507
-0.125089
-0.124636
-0.124169
-0.123706
-0.123268
-0.12287
-0.122523
-0.122236
-0.122017
-0.12187
-0.121795
0.344705
0.355771
0.37809
0.411652
0.4562
0.511105
0.575355
0.647631
0.726435
0.809566
0.894523
0.978806
1.05998
1.13579
1.20419
1.26338
1.31179
1.34815
1.37137
1.38059
1.37519
1.35477
1.31929
1.26904
1.2048
1.12786
1.04013
0.944196
0.843111
0.739805
0.636158
0.53377
0.433855
0.337395
0.245062
0.156994
0.0767199
0.00249582
-0.0656152
-0.127558
-0.183261
-0.232645
-0.275648
-0.312248
-0.34247
-0.36636
-0.384026
-0.395599
-0.401249
-0.401176
-0.395622
-0.384852
-0.369165
-0.348887
-0.324375
-0.296011
-0.264208
-0.229405
-0.192069
-0.15269
-0.111769
-0.0698357
-0.0274211
0.0149242
0.0566398
0.0972482
0.136225
0.173069
0.20731
0.238506
0.266271
0.290264
0.310197
0.325841
0.337032
0.343682
0.345763
0.343314
0.336444
0.325372
0.310258
0.291436
0.269244
0.24406
0.216298
0.186389
0.154798
0.121993
0.0884279
0.0545558
0.0208174
-0.0123913
-0.0445786
-0.0756213
-0.10514
-0.132852
-0.158532
-0.181993
-0.203102
-0.221763
-0.237913
-0.251533
-0.262636
-0.271263
-0.277487
-0.281401
-0.283123
-0.282824
-0.28056
-0.276525
-0.270885
-0.263807
-0.255459
-0.246007
-0.235618
-0.224452
-0.212666
-0.200411
-0.187835
-0.175072
-0.16225
-0.149492
-0.136909
-0.1246
-0.112654
-0.10122
-0.0902563
-0.0798785
-0.0701425
-0.0610931
-0.0527675
-0.0451943
-0.0383915
-0.0323721
-0.0271409
-0.0226961
-0.0190306
-0.0161307
-0.0139767
-0.0125454
-0.0118082
-0.0117339
-0.0122809
-0.0134233
-0.0151169
-0.0173185
-0.0199836
-0.0230663
-0.0265206
-0.0302998
-0.0343574
-0.0386477
-0.0431255
-0.047746
-0.0524665
-0.057245
-0.0620419
-0.0668211
-0.071548
-0.0761923
-0.0807259
-0.0851232
-0.0893593
-0.0933962
-0.0972405
-0.100873
-0.104276
-0.107438
-0.110349
-0.113006
-0.115405
-0.117548
-0.119438
-0.121082
-0.122488
-0.12367
-0.124641
-0.12542
-0.126025
-0.126474
-0.12678
-0.126961
-0.127031
-0.126999
-0.126878
-0.126674
-0.126395
-0.126047
-0.125636
-0.125174
-0.124676
-0.124165
-0.123664
-0.123192
-0.122767
-0.122399
-0.122098
-0.12187
-0.121718
-0.121642
-0.0815383
-0.0612381
-0.0201627
0.0417425
0.124213
0.22663
0.34735
0.485465
0.635323
0.789702
0.942764
1.0905
1.22884
1.35469
1.46574
1.56029
1.63696
1.69467
1.73244
1.74947
1.7451
1.71884
1.6704
1.59975
1.50729
1.39416
1.26237
1.11724
0.966963
0.81709
0.670109
0.52739
0.39026
0.261442
0.142431
0.0347621
-0.0649948
-0.155842
-0.237558
-0.310142
-0.373686
-0.428347
-0.474312
-0.511822
-0.541121
-0.562455
-0.576075
-0.582253
-0.581275
-0.573451
-0.55912
-0.538641
-0.512401
-0.480826
-0.444372
-0.403522
-0.358806
-0.31078
-0.260031
-0.207162
-0.152807
-0.0976272
-0.0422935
0.0124894
0.0661485
0.118001
0.167416
0.213789
0.25655
0.29518
0.329234
0.358318
0.382111
0.400384
0.412971
0.41981
0.420924
0.41641
0.406461
0.39146
0.371631
0.347401
0.319249
0.287687
0.253266
0.21655
0.178122
0.138565
0.0984548
0.0583399
0.018751
-0.0197997
-0.0568794
-0.0923251
-0.12569
-0.156669
-0.185038
-0.210623
-0.233306
-0.253019
-0.269736
-0.283473
-0.294283
-0.302255
-0.307504
-0.310166
-0.31039
-0.308454
-0.304401
-0.298461
-0.290841
-0.281745
-0.271367
-0.259904
-0.247543
-0.234466
-0.220843
-0.20684
-0.192614
-0.178309
-0.164059
-0.149991
-0.136223
-0.122856
-0.109983
-0.0977035
-0.0860335
-0.0750593
-0.0648351
-0.0554002
-0.0467864
-0.0390142
-0.0320957
-0.0260359
-0.020833
-0.0164783
-0.0129576
-0.0102502
-0.00833053
-0.00716798
-0.00672702
-0.00696472
-0.00785831
-0.00935365
-0.0114066
-0.0139713
-0.0169995
-0.0204414
-0.0242477
-0.0283688
-0.0327555
-0.0373603
-0.0421361
-0.0470367
-0.0520178
-0.0570364
-0.0620517
-0.0670272
-0.0719286
-0.0767263
-0.0813936
-0.0859068
-0.0902475
-0.0943396
-0.0982582
-0.101938
-0.10537
-0.108546
-0.111458
-0.114103
-0.116479
-0.118587
-0.120433
-0.122024
-0.12337
-0.124487
-0.12539
-0.126098
-0.126634
-0.127016
-0.127262
-0.127387
-0.127404
-0.127326
-0.12716
-0.126916
-0.1266
-0.126214
-0.125763
-0.125257
-0.124714
-0.124159
-0.123617
-0.123112
-0.12266
-0.122273
-0.121959
-0.121722
-0.121567
-0.121491
-0.79104
-0.754807
-0.681342
-0.569872
-0.420155
-0.232331
-0.010779
0.248652
0.537554
0.832381
1.11717
1.38599
1.6319
1.85234
2.04567
2.20954
2.34161
2.43994
2.50296
2.52927
2.51759
2.46673
2.37585
2.24496
2.07551
1.87068
1.63302
1.37541
1.12207
0.883226
0.660506
0.454627
0.262856
0.101107
-0.0400777
-0.16518
-0.276811
-0.376455
-0.464642
-0.541545
-0.607395
-0.662487
-0.707188
-0.741889
-0.766954
-0.782745
-0.789611
-0.787905
-0.777992
-0.760254
-0.735096
-0.702951
-0.664287
-0.619619
-0.569492
-0.51449
-0.455254
-0.392459
-0.326818
-0.259061
-0.189957
-0.120293
-0.0510001
0.0173346
0.0838073
0.147641
0.20809
0.264448
0.316044
0.362272
0.402625
0.436653
0.464007
0.484453
0.497867
0.504212
0.503575
0.496159
0.482341
0.4624
0.436845
0.406235
0.371187
0.33237
0.290475
0.24621
0.200291
0.153433
0.106299
0.0595452
0.0138311
-0.029959
-0.0721088
-0.111982
-0.149129
-0.183244
-0.214123
-0.241609
-0.265617
-0.286119
-0.303125
-0.316701
-0.326949
-0.334008
-0.338044
-0.339251
-0.337885
-0.334035
-0.328006
-0.320024
-0.310315
-0.299116
-0.286649
-0.273133
-0.25878
-0.243784
-0.228331
-0.212599
-0.196752
-0.180939
-0.1653
-0.149967
-0.135062
-0.120696
-0.106948
-0.0938745
-0.081543
-0.0700201
-0.0593543
-0.0495787
-0.0407179
-0.0327856
-0.0257856
-0.0197163
-0.0145685
-0.0103266
-0.00697028
-0.00447198
-0.00279983
-0.00191695
-0.00178224
-0.00234529
-0.00357683
-0.00542237
-0.00783247
-0.0107566
-0.0141429
-0.0179379
-0.0220889
-0.0265437
-0.0312509
-0.036161
-0.0412256
-0.0463972
-0.0516301
-0.0568798
-0.0621046
-0.0672675
-0.0723345
-0.0772771
-0.0820701
-0.0866902
-0.091112
-0.095296
-0.0992662
-0.102987
-0.106445
-0.109633
-0.112543
-0.115174
-0.117525
-0.119598
-0.121399
-0.122937
-0.124225
-0.125276
-0.12611
-0.126749
-0.127217
-0.127534
-0.12772
-0.127791
-0.127759
-0.127635
-0.127428
-0.127147
-0.126796
-0.126375
-0.125886
-0.125338
-0.124749
-0.124149
-0.123567
-0.12303
-0.122553
-0.122148
-0.121821
-0.121577
-0.12142
-0.121344
-1.88822
-1.84074
-1.74271
-1.58884
-1.37521
-1.05898
-0.818471
-0.30854
0.465119
1.11661
1.53468
1.92512
2.25791
2.53973
2.77094
2.95468
3.09563
3.19814
3.26416
3.29328
3.28425
3.23519
3.14118
2.99216
2.77458
2.48374
2.06692
1.52434
1.10134
0.785927
0.519332
0.294485
0.103858
-0.0765376
-0.242986
-0.394034
-0.526551
-0.638307
-0.731991
-0.810053
-0.874216
-0.925715
-0.965444
-0.994029
-1.01196
-1.01966
-1.01751
-1.00591
-0.985232
-0.95589
-0.918326
-0.873024
-0.820517
-0.761387
-0.69627
-0.625856
-0.550892
-0.472179
-0.390548
-0.30687
-0.222045
-0.137048
-0.0528307
0.0296917
0.109565
0.185869
0.257727
0.324314
0.384854
0.438654
0.48513
0.523804
0.554307
0.576414
0.590015
0.595138
0.591955
0.580779
0.562164
0.536445
0.504308
0.46647
0.423731
0.37692
0.326895
0.274514
0.220634
0.166085
0.111636
0.0579676
0.00555612
-0.0423419
-0.0899607
-0.134241
-0.17501
-0.212048
-0.245184
-0.274298
-0.299348
-0.32035
-0.337363
-0.35051
-0.359943
-0.365859
-0.368468
-0.368002
-0.364811
-0.359011
-0.350919
-0.340814
-0.328963
-0.315628
-0.301059
-0.285497
-0.269171
-0.25229
-0.235051
-0.21764
-0.20023
-0.182971
-0.166005
-0.149466
-0.133486
-0.11821
-0.103637
-0.0898324
-0.0768928
-0.064874
-0.0538167
-0.0437467
-0.0346808
-0.0266251
-0.019576
-0.0135246
-0.00845441
-0.00434364
-0.00116558
0.00111304
0.00253067
0.00312966
0.00295488
0.00207087
0.00050599
-0.00168288
-0.00444139
-0.00771532
-0.0114491
-0.0155855
-0.0200688
-0.0248442
-0.0298584
-0.0350604
-0.0404006
-0.0458304
-0.0513028
-0.0567719
-0.0621948
-0.0675338
-0.0727554
-0.0778328
-0.0827425
-0.0874622
-0.0919625
-0.0962245
-0.100246
-0.104003
-0.107484
-0.110681
-0.113588
-0.116204
-0.11853
-0.120567
-0.122324
-0.123811
-0.125039
-0.126027
-0.126794
-0.127365
-0.127765
-0.128021
-0.12815
-0.12817
-0.128091
-0.127924
-0.127679
-0.127364
-0.126981
-0.126529
-0.126004
-0.125415
-0.124781
-0.124136
-0.123515
-0.122947
-0.122448
-0.122025
-0.121686
-0.121436
-0.121278
-0.121203
-3.34884
-3.28964
-3.16739
-2.97522
-2.70066
-2.32432
-1.8215
-1.14606
-0.153885
0.664021
1.37163
1.99009
2.52321
2.98453
3.37829
3.70566
3.96467
4.15207
4.26552
4.3038
4.26498
4.14626
3.94605
3.6652
3.30438
2.88287
2.35042
1.56091
1.04918
0.635954
0.261889
-0.0427021
-0.283562
-0.478706
-0.633927
-0.759061
-0.866168
-0.960301
-1.04137
-1.10939
-1.1647
-1.20775
-1.23899
-1.25876
-1.26741
-1.26524
-1.25257
-1.22973
-1.19708
-1.15503
-1.10403
-1.04459
-0.977298
-0.902804
-0.821827
-0.735159
-0.643661
-0.54824
-0.449877
-0.349578
-0.248402
-0.147522
-0.0479309
0.0492186
0.142836
0.231859
0.315271
0.392124
0.461536
0.522729
0.575062
0.618006
0.651179
0.67437
0.687515
0.690708
0.684229
0.66866
0.644329
0.612024
0.572533
0.526772
0.475705
0.420341
0.361708
0.30082
0.238683
0.176263
0.114451
0.0541079
-0.00390401
-0.0586151
-0.110539
-0.158754
-0.202822
-0.242485
-0.27758
-0.30802
-0.333818
-0.355035
-0.371791
-0.384264
-0.392665
-0.397245
-0.39828
-0.396075
-0.390887
-0.383027
-0.372816
-0.360558
-0.346554
-0.331093
-0.314449
-0.296883
-0.278638
-0.259936
-0.240982
-0.221969
-0.203073
-0.184448
-0.166233
-0.148558
-0.131549
-0.115521
-0.100141
-0.0856688
-0.0721797
-0.0597204
-0.0483223
-0.038003
-0.0287718
-0.0206267
-0.0135568
-0.00754602
-0.0025711
0.00139559
0.00438648
0.00644029
0.00760188
0.00791919
0.00743615
0.00624261
0.00435268
0.0018321
-0.00126179
-0.00487158
-0.00893807
-0.0134005
-0.0181999
-0.0232794
-0.0285839
-0.0340614
-0.0396615
-0.0453344
-0.0510323
-0.0567073
-0.0623153
-0.0678179
-0.0731823
-0.0783834
-0.0834
-0.0882119
-0.0927848
-0.0971159
-0.101186
-0.104976
-0.108476
-0.111679
-0.114581
-0.117182
-0.119482
-0.121485
-0.123199
-0.124635
-0.125807
-0.126733
-0.127435
-0.12794
-0.128277
-0.128472
-0.128549
-0.128521
-0.128398
-0.128192
-0.127911
-0.127565
-0.127154
-0.126674
-0.126116
-0.125488
-0.124809
-0.12412
-0.123461
-0.122864
-0.122344
-0.121907
-0.121557
-0.121301
-0.121143
-0.121072
-5.14357
-5.12023
-5.07069
-5.0025
-4.9108
-4.81201
-4.71475
-4.61736
-0.334629
-0.396504
-0.447982
-0.496123
-0.607119
-0.738235
-0.869486
-0.988912
-1.09616
-1.20287
-1.28989
-1.36081
-1.41811
-1.46295
-1.49588
-1.51714
-1.52688
-1.52523
-1.51236
-1.48844
-1.45373
-1.40852
-1.35321
-1.28824
-1.21415
-1.13158
-1.04124
-0.943936
-0.840546
-0.73206
-0.61952
-0.504038
-0.386777
-0.268951
-0.151878
-0.0367188
0.0752104
0.18266
0.284417
0.379332
0.466331
0.544415
0.612718
0.670545
0.717325
0.752666
0.776373
0.788446
0.789058
0.778547
0.757823
0.72721
0.687673
0.640249
0.586016
0.526154
0.461851
0.394307
0.324698
0.254174
0.183827
0.114642
0.0475807
-0.0160894
-0.0764575
-0.132905
-0.184864
-0.231948
-0.273926
-0.310669
-0.342139
-0.368399
-0.389571
-0.405833
-0.417422
-0.424612
-0.427706
-0.427036
-0.422966
-0.415761
-0.405816
-0.393473
-0.379074
-0.362946
-0.345405
-0.326746
-0.307246
-0.287162
-0.266725
-0.246147
-0.225624
-0.205336
-0.185436
-0.166062
-0.14733
-0.129274
-0.112763
-0.096548
-0.0814669
-0.0674896
-0.0546444
-0.0429535
-0.0324269
-0.023066
-0.0148612
-0.0077945
-0.00184221
0.00302447
0.00683893
0.00963859
0.0114673
0.0123755
0.0124198
0.0116699
0.0101461
0.00794187
0.00510462
0.00169172
-0.00223694
-0.00661866
-0.011389
-0.0164862
-0.021851
-0.0274273
-0.0331622
-0.0390048
-0.0449047
-0.0508127
-0.0566795
-0.0624591
-0.0681123
-0.0736071
-0.0789205
-0.0840341
-0.0889302
-0.0935702
-0.0979632
-0.102077
-0.105896
-0.109412
-0.112619
-0.115516
-0.118101
-0.120377
-0.122346
-0.124019
-0.125407
-0.126525
-0.127392
-0.128031
-0.128472
-0.128748
-0.128888
-0.128915
-0.128843
-0.128681
-0.128437
-0.128124
-0.12775
-0.127315
-0.126809
-0.126223
-0.125556
-0.124835
-0.124103
-0.123408
-0.122784
-0.122245
-0.121793
-0.121433
-0.121174
-0.121017
-0.120949
-6.87247
-6.85874
-6.83061
-6.79981
-6.73348
-6.69288
-6.64543
-6.55256
-0.91765
-0.969792
-1.05465
-1.14658
-1.22487
-1.2921
-1.36104
-1.43692
-1.51367
-1.57218
-1.63058
-1.68233
-1.72531
-1.75826
-1.78048
-1.79151
-1.79108
-1.77906
-1.7554
-1.72016
-1.6735
-1.61565
-1.54697
-1.46793
-1.37907
-1.28109
-1.17476
-1.06098
-0.940746
-0.815156
-0.685392
-0.552706
-0.418423
-0.283921
-0.150641
-0.0199561
0.106674
0.227838
0.342171
0.448384
0.545271
0.631722
0.706781
0.769684
0.819836
0.856839
0.880536
0.890979
0.888483
0.873678
0.846947
0.809423
0.762167
0.706361
0.643299
0.574344
0.500885
0.424301
0.345921
0.267033
0.188843
0.112408
0.0385823
-0.0300819
-0.0958433
-0.156586
-0.212003
-0.261794
-0.305771
-0.343862
-0.376078
-0.402543
-0.423439
-0.439007
-0.449547
-0.455388
-0.456892
-0.454435
-0.448443
-0.439224
-0.427201
-0.412756
-0.39626
-0.378069
-0.358521
-0.337931
-0.31659
-0.294766
-0.272696
-0.250596
-0.228665
-0.207085
-0.186008
-0.165574
-0.145905
-0.127137
-0.109623
-0.0928917
-0.0772972
-0.0628939
-0.0497143
-0.037775
-0.0270788
-0.0176196
-0.00938019
-0.00233548
0.00354457
0.00829475
0.0119532
0.0145618
0.0161688
0.0168296
0.0166067
0.0155704
0.0137628
0.0112638
0.00812804
0.00441474
0.000186088
-0.0044917
-0.00955048
-0.0149255
-0.0205559
-0.0263844
-0.0323579
-0.0384251
-0.0445351
-0.0506377
-0.0566818
-0.0626193
-0.0684102
-0.0740232
-0.0794377
-0.0846387
-0.0896073
-0.0943157
-0.0987619
-0.102915
-0.10676
-0.110289
-0.113499
-0.116389
-0.118959
-0.12121
-0.123148
-0.12478
-0.126123
-0.12719
-0.128001
-0.128581
-0.128962
-0.12918
-0.129268
-0.129249
-0.129136
-0.128938
-0.128661
-0.128317
-0.127918
-0.127462
-0.126936
-0.126322
-0.125621
-0.124858
-0.124084
-0.123354
-0.122706
-0.12215
-0.121687
-0.121317
-0.121053
-0.120899
-0.120837
-8.46101
-8.45394
-8.43857
-8.42115
-8.39288
-8.37228
-8.35225
-8.31963
-1.33534
-1.39378
-1.45966
-1.51939
-1.58579
-1.6508
-1.71633
-1.78143
-1.84275
-1.89647
-1.94416
-1.98649
-2.01865
-2.04173
-2.0545
-2.05618
-2.04624
-2.02436
-1.99035
-1.94416
-1.88584
-1.81561
-1.7338
-1.64086
-1.53741
-1.42418
-1.30201
-1.17191
-1.03497
-0.892429
-0.745596
-0.595877
-0.444755
-0.293823
-0.144557
0.00143094
0.1425
0.277087
0.403686
0.520857
0.627265
0.721689
0.803084
0.870637
0.923712
0.961903
0.985093
0.993397
0.987215
0.967411
0.934507
0.889761
0.834465
0.770016
0.69792
0.619751
0.537086
0.451484
0.364423
0.27733
0.191526
0.108189
0.0284646
-0.0463021
-0.116519
-0.181115
-0.239642
-0.291815
-0.337486
-0.376639
-0.409347
-0.435791
-0.456218
-0.470933
-0.480299
-0.484701
-0.484558
-0.48029
-0.472362
-0.461146
-0.447087
-0.430598
-0.412078
-0.391908
-0.370447
-0.348027
-0.324952
-0.301498
-0.277906
-0.254393
-0.231161
-0.208391
-0.186236
-0.164833
-0.14431
-0.124834
-0.106541
-0.0892788
-0.0732271
-0.0584513
-0.0449835
-0.0328352
-0.0220025
-0.0124715
-0.00421809
0.00278993
0.00858848
0.0132178
0.0167202
0.0191414
0.0205333
0.0209554
0.0204759
0.0191697
0.017093
0.0143182
0.0109037
0.00690989
0.00240117
-0.00255268
-0.0078796
-0.0135121
-0.0193878
-0.0254487
-0.0316418
-0.0379155
-0.0442189
-0.0505008
-0.056708
-0.0627901
-0.0687061
-0.0744252
-0.0799301
-0.0852095
-0.0902431
-0.095014
-0.0995086
-0.103697
-0.107564
-0.111104
-0.114314
-0.117197
-0.119752
-0.121981
-0.123888
-0.125484
-0.126783
-0.127803
-0.128562
-0.129085
-0.129409
-0.129573
-0.129613
-0.129551
-0.129403
-0.129171
-0.128863
-0.128492
-0.128071
-0.127598
-0.127054
-0.126416
-0.125682
-0.124878
-0.124064
-0.123302
-0.122631
-0.122061
-0.121586
-0.121209
-0.120941
-0.120789
-0.120734
-9.90019
-9.89648
-9.88824
-9.87994
-9.86443
-9.85584
-9.84315
-9.83264
-1.79005
-1.8117
-1.85509
-1.89504
-1.94296
-1.99341
-2.04599
-2.09874
-2.14916
-2.19483
-2.23463
-2.2671
-2.29319
-2.30905
-2.31409
-2.30765
-2.28918
-2.25826
-2.21458
-2.15803
-2.08859
-2.00645
-1.91194
-1.80554
-1.68788
-1.55977
-1.42214
-1.27608
-1.1228
-0.963676
-0.800153
-0.633777
-0.466153
-0.299328
-0.134439
0.0264334
0.18152
0.329108
0.46754
0.595227
0.710716
0.812676
0.899976
0.971735
1.02729
1.06624
1.08851
1.09429
1.08396
1.05888
1.01949
0.967279
0.90377
0.83057
0.7494
0.662042
0.570265
0.475801
0.380275
0.285235
0.192107
0.102169
0.0167447
-0.0633869
-0.137883
-0.205997
-0.267293
-0.321532
-0.368611
-0.408567
-0.441544
-0.467777
-0.487582
-0.501327
-0.509435
-0.512348
-0.510539
-0.504493
-0.494632
-0.481466
-0.465438
-0.446986
-0.426534
-0.404486
-0.381222
-0.357085
-0.332392
-0.307424
-0.282424
-0.257611
-0.233185
-0.209327
-0.18619
-0.163906
-0.142599
-0.122477
-0.103527
-0.085767
-0.0693073
-0.0542057
-0.0404907
-0.0281679
-0.0172267
-0.00764618
0.000605043
0.00756553
0.0132768
0.0177843
0.0211337
0.0233739
0.0245595
0.0247539
0.0240305
0.0224723
0.0201426
0.0171117
0.0134388
0.00918486
0.00441629
-0.000793415
-0.00636811
-0.0122376
-0.0183386
-0.0246125
-0.0310064
-0.0374691
-0.0439494
-0.0503956
-0.0567522
-0.0629662
-0.0689952
-0.0748094
-0.0803946
-0.085744
-0.0908355
-0.0956633
-0.100202
-0.104422
-0.108308
-0.111856
-0.115067
-0.117942
-0.120483
-0.12269
-0.124569
-0.126129
-0.127389
-0.128364
-0.129074
-0.129546
-0.129816
-0.129929
-0.129924
-0.129825
-0.129643
-0.129382
-0.129046
-0.12865
-0.128209
-0.127721
-0.127162
-0.126503
-0.125738
-0.124896
-0.124044
-0.123251
-0.12256
-0.121977
-0.121493
-0.121108
-0.120837
-0.120688
-0.120641
-11.1865
-11.1843
-11.1793
-11.175
-11.1635
-11.1636
-11.1527
-11.149
-2.12901
-2.14111
-2.17532
-2.2082
-2.24865
-2.29245
-2.33816
-2.38398
-2.42787
-2.46782
-2.50224
-2.52973
-2.5493
-2.55912
-2.55762
-2.54415
-2.51813
-2.47903
-2.42648
-2.36027
-2.28037
-2.18693
-2.08029
-1.96097
-1.82965
-1.6872
-1.53463
-1.37315
-1.20408
-1.02892
-0.849263
-0.666814
-0.483337
-0.300946
-0.121086
0.0540847
0.222631
0.382677
0.53241
0.670111
0.794194
0.903221
0.995973
1.07151
1.12914
1.16848
1.18949
1.19251
1.17822
1.14718
1.10106
1.04127
0.969509
0.887586
0.797433
0.701044
0.600374
0.497315
0.393631
0.290987
0.190887
0.0946372
0.00401492
-0.0810361
-0.1595
-0.230791
-0.294537
-0.350545