/*--------------------------------*- C++ -*----------------------------------*\
  =========                 |
  \\      /  F ield         | OpenFOAM: The Open Source CFD Toolbox
   \\    /   O peration     | Website:  https://openfoam.org
    \\  /    A nd           | Version:  12
     \\/     M anipulation  |
\*---------------------------------------------------------------------------*/
FoamFile
{
    format      ascii;
    class       volVectorField;
    location    "11.86";
    object      U;
}
// * * * * * * * * * * * * * * * * * * * * * * * * * * * * * * * * * * * * * //

dimensions      [0 1 -1 0 0 0 0];

internalField   nonuniform List<vector> 
3829
(
(8.52285e-06 -0.000338074 0)
(2.51042e-05 -0.000347023 0)
(4.25262e-05 -0.000347135 0)
(6.00148e-05 -0.00034707 0)
(7.80419e-05 -0.00034696 0)
(9.6517e-05 -0.000346768 0)
(0.000115584 -0.000346477 0)
(0.000135233 -0.000346054 0)
(0.000155542 -0.000345461 0)
(0.000176531 -0.00034467 0)
(0.000198311 -0.000343632 0)
(0.000220884 -0.000342307 0)
(0.000244152 -0.000340645 0)
(0.000268184 -0.000338586 0)
(0.000292964 -0.000336077 0)
(0.000318448 -0.00033307 0)
(0.000344559 -0.000329506 0)
(0.00037122 -0.000325335 0)
(0.000398336 -0.000320516 0)
(0.0004258 -0.000314998 0)
(0.000453485 -0.000308755 0)
(0.000481241 -0.000301751 0)
(0.000508899 -0.000293978 0)
(0.000536305 -0.000285423 0)
(0.000563238 -0.000276088 0)
(0.000589632 -0.000265999 0)
(0.000615069 -0.00025518 0)
(0.000639352 -0.000243654 0)
(0.000662527 -0.00023146 0)
(0.000684186 -0.000218683 0)
(0.000704073 -0.000205367 0)
(0.000722108 -0.000191585 0)
(0.000737967 -0.000177402 0)
(0.000751641 -0.000162909 0)
(0.000762802 -0.00014818 0)
(0.000771334 -0.000133235 0)
(0.000777324 -0.000118212 0)
(0.000780445 -0.000103127 0)
(0.000780811 -8.80562e-05 0)
(0.000778402 -7.31524e-05 0)
(0.00077305 -5.85801e-05 0)
(0.000764723 -4.4439e-05 0)
(0.00075346 -3.07957e-05 0)
(0.000739266 -1.77309e-05 0)
(0.00072221 -5.31159e-06 0)
(0.000702362 6.41896e-06 0)
(0.000679852 1.7414e-05 0)
(0.0006548 2.76352e-05 0)
(0.000627389 3.70375e-05 0)
(0.000597796 4.56048e-05 0)
(0.000566 5.32624e-05 0)
(0.0005326 6.00795e-05 0)
(0.000497628 6.58821e-05 0)
(0.000461321 7.07825e-05 0)
(0.000423822 7.46641e-05 0)
(0.000385565 7.76599e-05 0)
(0.000347058 7.959e-05 0)
(0.000308066 8.06093e-05 0)
(0.000269297 8.0632e-05 0)
(0.00023119 7.97654e-05 0)
(0.000194047 7.78789e-05 0)
(0.000157773 7.511e-05 0)
(0.000123086 7.15443e-05 0)
(9.04533e-05 6.71615e-05 0)
(5.98177e-05 6.20514e-05 0)
(3.17312e-05 5.62846e-05 0)
(6.49218e-06 4.99354e-05 0)
(-1.56287e-05 4.30394e-05 0)
(-3.45563e-05 3.57049e-05 0)
(-4.98803e-05 2.80635e-05 0)
(-6.15902e-05 2.01525e-05 0)
(-6.95467e-05 1.2144e-05 0)
(-7.34145e-05 4.17661e-06 0)
(-7.34862e-05 -3.71888e-06 0)
(-6.92978e-05 -1.12527e-05 0)
(-6.10531e-05 -1.85665e-05 0)
(-4.91512e-05 -2.53496e-05 0)
(-3.40392e-05 -3.16144e-05 0)
(-1.55891e-05 -3.70568e-05 0)
(5.81842e-06 -4.17769e-05 0)
(2.97665e-05 -4.55428e-05 0)
(5.55046e-05 -4.83857e-05 0)
(8.23195e-05 -5.00956e-05 0)
(0.000110347 -5.06824e-05 0)
(0.000138643 -5.01946e-05 0)
(0.000166564 -4.85507e-05 0)
(0.000193372 -4.57951e-05 0)
(0.000218474 -4.19014e-05 0)
(0.000241286 -3.69925e-05 0)
(0.000261173 -3.11134e-05 0)
(0.000277525 -2.44094e-05 0)
(0.000289826 -1.69938e-05 0)
(0.000297594 -9.04561e-06 0)
(0.000300416 -7.26015e-07 0)
(0.000297696 7.76258e-06 0)
(0.000289229 1.62314e-05 0)
(0.000275288 2.44847e-05 0)
(0.00025605 3.2303e-05 0)
(0.000231866 3.94873e-05 0)
(0.000203088 4.58014e-05 0)
(0.000170263 5.10771e-05 0)
(0.00013406 5.51168e-05 0)
(9.53076e-05 5.78071e-05 0)
(5.48798e-05 5.90084e-05 0)
(1.38468e-05 5.86926e-05 0)
(-2.67442e-05 5.67801e-05 0)
(-6.5758e-05 5.33791e-05 0)
(-0.000102059 4.84467e-05 0)
(-0.000134652 4.225e-05 0)
(-0.000162425 3.48104e-05 0)
(-0.000184629 2.64581e-05 0)
(-0.000200439 1.74086e-05 0)
(-0.000209385 7.95799e-06 0)
(-0.000210929 -1.55534e-06 0)
(-0.000204844 -1.08008e-05 0)
(-0.000191527 -1.94592e-05 0)
(-0.000171649 -2.7228e-05 0)
(-0.000145889 -3.37893e-05 0)
(-0.000115188 -3.88733e-05 0)
(-8.10403e-05 -4.2263e-05 0)
(-4.44233e-05 -4.37767e-05 0)
(-7.03219e-06 -4.34508e-05 0)
(2.92945e-05 -4.1149e-05 0)
(6.31322e-05 -3.707e-05 0)
(9.27933e-05 -3.13506e-05 0)
(0.00011699 -2.42401e-05 0)
(0.000134567 -1.61038e-05 0)
(0.000144593 -7.3521e-06 0)
(0.000146354 1.63163e-06 0)
(0.000139594 1.03069e-05 0)
(0.00012487 1.82801e-05 0)
(0.000103097 2.51397e-05 0)
(7.54326e-05 3.04248e-05 0)
(4.3388e-05 3.39303e-05 0)
(8.46401e-06 3.53622e-05 0)
(-2.70191e-05 3.46094e-05 0)
(-6.0521e-05 3.17505e-05 0)
(-9.03328e-05 2.69313e-05 0)
(-0.000114493 2.0544e-05 0)
(-0.000131462 1.28602e-05 0)
(-0.000140146 4.47659e-06 0)
(-0.000139443 -4.09537e-06 0)
(-0.000129436 -1.22623e-05 0)
(-0.000110988 -1.94863e-05 0)
(-8.52737e-05 -2.52767e-05 0)
(-5.41716e-05 -2.91862e-05 0)
(-1.96342e-05 -3.0938e-05 0)
(1.59449e-05 -3.03564e-05 0)
(4.96528e-05 -2.76016e-05 0)
(7.88937e-05 -2.2928e-05 0)
(0.000101732 -1.663e-05 0)
(0.000116607 -9.31548e-06 0)
(0.000122467 -1.62829e-06 0)
(0.000118847 5.80073e-06 0)
(0.000106382 1.23542e-05 0)
(8.66599e-05 1.74046e-05 0)
(6.16113e-05 2.06763e-05 0)
(3.39294e-05 2.17595e-05 0)
(6.02756e-06 2.06946e-05 0)
(-1.92054e-05 1.76599e-05 0)
(-3.92284e-05 1.30637e-05 0)
(-5.24276e-05 7.44153e-06 0)
(-5.77893e-05 1.46439e-06 0)
(-5.502e-05 -4.1489e-06 0)
(-4.49092e-05 -8.8327e-06 0)
(-2.93249e-05 -1.20535e-05 0)
(-1.02493e-05 -1.35133e-05 0)
(9.56448e-06 -1.29619e-05 0)
(2.70775e-05 -1.07423e-05 0)
(4.00508e-05 -7.12778e-06 0)
(4.70121e-05 -2.69932e-06 0)
(4.69304e-05 1.92685e-06 0)
(3.99511e-05 6.09386e-06 0)
(2.74391e-05 9.26336e-06 0)
(1.12246e-05 1.10234e-05 0)
(-6.88602e-06 1.11932e-05 0)
(-2.39894e-05 9.79582e-06 0)
(-3.74416e-05 7.16823e-06 0)
(-4.59781e-05 3.76797e-06 0)
(-4.86116e-05 1.32438e-07 0)
(-4.5548e-05 -3.14591e-06 0)
(-3.74083e-05 -5.66726e-06 0)
(-2.61498e-05 -7.09277e-06 0)
(-1.36285e-05 -7.33385e-06 0)
(-1.3216e-06 -6.45854e-06 0)
(8.51264e-06 -4.77858e-06 0)
(1.47683e-05 -2.59745e-06 0)
(1.7024e-05 -3.60642e-07 0)
(1.54732e-05 1.61147e-06 0)
(1.08442e-05 3.01301e-06 0)
(4.39315e-06 3.7501e-06 0)
(-2.91094e-06 3.77036e-06 0)
(-9.63123e-06 3.20317e-06 0)
(-1.4617e-05 2.21583e-06 0)
(-1.75889e-05 1.03209e-06 0)
(-1.81957e-05 -1.73174e-07 0)
(-1.66556e-05 -1.24601e-06 0)
(-1.32671e-05 -2.08082e-06 0)
(-8.51474e-06 -2.64375e-06 0)
(-2.93725e-06 -2.92689e-06 0)
(8.20226e-06 -5.28598e-06 0)
(2.54102e-05 -6.03296e-08 0)
(4.31074e-05 -2.10555e-06 0)
(6.13857e-05 -5.31278e-06 0)
(8.04365e-05 -9.57582e-06 0)
(0.000100412 -1.48737e-05 0)
(0.000121363 -2.11266e-05 0)
(0.000143469 -2.82625e-05 0)
(0.000166749 -3.616e-05 0)
(0.000191275 -4.4661e-05 0)
(0.000217249 -5.36412e-05 0)
(0.00024466 -6.28865e-05 0)
(0.000273531 -7.23081e-05 0)
(0.00030394 -8.16322e-05 0)
(0.000335759 -9.07434e-05 0)
(0.000368957 -9.93658e-05 0)
(0.000403431 -0.000107337 0)
(0.000438953 -0.000114422 0)
(0.000475427 -0.000120436 0)
(0.000512602 -0.000125171 0)
(0.000550226 -0.000128469 0)
(0.000588004 -0.000130173 0)
(0.000625594 -0.000130157 0)
(0.000662773 -0.000128339 0)
(0.000699056 -0.000124628 0)
(0.000734214 -0.000119024 0)
(0.000767877 -0.000111488 0)
(0.000799759 -0.000102058 0)
(0.000829512 -9.07673e-05 0)
(0.000856724 -7.77532e-05 0)
(0.000881232 -6.31066e-05 0)
(0.000902863 -4.69486e-05 0)
(0.000921211 -2.95135e-05 0)
(0.000936235 -1.09293e-05 0)
(0.000948075 8.54949e-06 0)
(0.000956249 2.87147e-05 0)
(0.000960906 4.93685e-05 0)
(0.000962135 7.02773e-05 0)
(0.000959276 9.11971e-05 0)
(0.000951848 0.000112088 0)
(0.000940041 0.00013281 0)
(0.000924434 0.000153243 0)
(0.000905205 0.000173143 0)
(0.000882381 0.000192411 0)
(0.000856263 0.000210836 0)
(0.000827053 0.000228258 0)
(0.000794917 0.000244495 0)
(0.000759999 0.000259402 0)
(0.000722607 0.000272774 0)
(0.000682777 0.000284538 0)
(0.00064093 0.00029454 0)
(0.000597177 0.000302707 0)
(0.000551756 0.000308762 0)
(0.000505216 0.000312911 0)
(0.000457784 0.000314774 0)
(0.0004096 0.00031454 0)
(0.000361258 0.000311943 0)
(0.00031299 0.000307153 0)
(0.000265253 0.000300014 0)
(0.000218281 0.000290702 0)
(0.000172501 0.000278971 0)
(0.000128812 0.000265247 0)
(8.71768e-05 0.000249353 0)
(4.80664e-05 0.000231574 0)
(1.1815e-05 0.000211903 0)
(-2.11187e-05 0.000190638 0)
(-5.06078e-05 0.000167868 0)
(-7.62661e-05 0.000143842 0)
(-9.76448e-05 0.000118819 0)
(-0.000114644 9.30805e-05 0)
(-0.000127109 6.68609e-05 0)
(-0.000134548 4.05779e-05 0)
(-0.000137218 1.44388e-05 0)
(-0.000134831 -1.10132e-05 0)
(-0.000127642 -3.54916e-05 0)
(-0.00011582 -5.87599e-05 0)
(-9.92587e-05 -8.03721e-05 0)
(-7.84845e-05 -0.00010007 0)
(-5.37289e-05 -0.000117383 0)
(-2.56728e-05 -0.000132159 0)
(5.5201e-06 -0.000143961 0)
(3.89825e-05 -0.000152801 0)
(7.40665e-05 -0.000158019 0)
(0.00010997 -0.000159978 0)
(0.000146076 -0.000158165 0)
(0.000181755 -0.000152939 0)
(0.000216082 -0.000144021 0)
(0.000248205 -0.00013177 0)
(0.000277309 -0.000116253 0)
(0.000302711 -9.77951e-05 0)
(0.000323602 -7.67253e-05 0)
(0.000339391 -5.35201e-05 0)
(0.000349476 -2.86176e-05 0)
(0.000353405 -2.6133e-06 0)
(0.000350544 2.39368e-05 0)
(0.000340748 5.03689e-05 0)
(0.000324238 7.60815e-05 0)
(0.000301223 0.00010039 0)
(0.000272042 0.00012267 0)
(0.000237189 0.000142224 0)
(0.000197363 0.000158469 0)
(0.000153417 0.000170881 0)
(0.00010638 0.000179031 0)
(5.73811e-05 0.000182573 0)
(7.67477e-06 0.000181339 0)
(-4.13151e-05 0.000175213 0)
(-8.83537e-05 0.000164302 0)
(-0.000131897 0.000148847 0)
(-0.000170793 0.000129215 0)
(-0.000203801 0.000106026 0)
(-0.000229703 7.98877e-05 0)
(-0.000247811 5.16914e-05 0)
(-0.000257389 2.23492e-05 0)
(-0.000257874 -7.26395e-06 0)
(-0.00024914 -3.58727e-05 0)
(-0.000231702 -6.27064e-05 0)
(-0.000206296 -8.66426e-05 0)
(-0.000173729 -0.00010674 0)
(-0.000135223 -0.000122285 0)
(-9.2512e-05 -0.000132488 0)
(-4.71886e-05 -0.000136883 0)
(-1.06484e-06 -0.000135373 0)
(4.36573e-05 -0.000127892 0)
(8.49476e-05 -0.000114821 0)
(0.00012104 -9.66575e-05 0)
(0.00015018 -7.43178e-05 0)
(0.000170912 -4.87579e-05 0)
(0.000182328 -2.13823e-05 0)
(0.0001835 6.6018e-06 0)
(0.000174214 3.35282e-05 0)
(0.000155366 5.83214e-05 0)
(0.000127787 7.94322e-05 0)
(9.31048e-05 9.57344e-05 0)
(5.32108e-05 0.000106373 0)
(9.81907e-06 0.000110443 0)
(-3.40033e-05 0.000107882 0)
(-7.52236e-05 9.86727e-05 0)
(-0.000111558 8.35947e-05 0)
(-0.000140842 6.328e-05 0)
(-0.000161212 3.93877e-05 0)
(-0.000171185 1.31006e-05 0)
(-0.000169737 -1.34775e-05 0)
(-0.000156973 -3.88896e-05 0)
(-0.000134013 -6.12278e-05 0)
(-0.000102245 -7.898e-05 0)
(-6.39717e-05 -9.08435e-05 0)
(-2.16527e-05 -9.59907e-05 0)
(2.15591e-05 -9.39118e-05 0)
(6.20335e-05 -8.50681e-05 0)
(9.69799e-05 -7.01965e-05 0)
(0.000123922 -5.04503e-05 0)
(0.000140786 -2.76301e-05 0)
(0.000146555 -3.57148e-06 0)
(0.000140878 1.92779e-05 0)
(0.000124461 3.94414e-05 0)
(9.94827e-05 5.49618e-05 0)
(6.82546e-05 6.46548e-05 0)
(3.39743e-05 6.7739e-05 0)
(-5.05978e-08 6.40457e-05 0)
(-3.04055e-05 5.42858e-05 0)
(-5.40621e-05 3.97027e-05 0)
(-6.90781e-05 2.20469e-05 0)
(-7.42408e-05 3.33099e-06 0)
(-6.94724e-05 -1.40562e-05 0)
(-5.58815e-05 -2.84881e-05 0)
(-3.57529e-05 -3.83016e-05 0)
(-1.14932e-05 -4.25104e-05 0)
(1.3266e-05 -4.0581e-05 0)
(3.47943e-05 -3.33663e-05 0)
(5.05738e-05 -2.19226e-05 0)
(5.87272e-05 -7.9808e-06 0)
(5.81808e-05 6.40619e-06 0)
(4.92341e-05 1.93259e-05 0)
(3.361e-05 2.90139e-05 0)
(1.36201e-05 3.42798e-05 0)
(-8.37365e-06 3.45478e-05 0)
(-2.88388e-05 3.00241e-05 0)
(-4.46278e-05 2.17213e-05 0)
(-5.42739e-05 1.11247e-05 0)
(-5.66739e-05 -9.1107e-08 0)
(-5.22362e-05 -1.01769e-05 0)
(-4.1911e-05 -1.77652e-05 0)
(-2.80338e-05 -2.20486e-05 0)
(-1.29294e-05 -2.25071e-05 0)
(1.48501e-06 -1.96405e-05 0)
(1.27089e-05 -1.43184e-05 0)
(1.95176e-05 -7.58704e-06 0)
(2.14984e-05 -6.81423e-07 0)
(1.90204e-05 5.25174e-06 0)
(1.30688e-05 9.46057e-06 0)
(5.17494e-06 1.15402e-05 0)
(-3.4621e-06 1.14867e-05 0)
(-1.11874e-05 9.65387e-06 0)
(-1.67675e-05 6.58446e-06 0)
(-1.9929e-05 2.97252e-06 0)
(-2.04022e-05 -6.3759e-07 0)
(-1.84825e-05 -3.80094e-06 0)
(-1.45907e-05 -6.2604e-06 0)
(-9.30734e-06 -7.89249e-06 0)
(-3.20055e-06 -8.69704e-06 0)
(-1.48372e-07 -0.000576693 0)
(-1.39286e-07 -0.000592221 0)
(3.25352e-07 -0.000597631 0)
(1.69792e-06 -0.000605441 0)
(4.32155e-06 -0.000615667 0)
(8.57236e-06 -0.000628151 0)
(1.49529e-05 -0.000642523 0)
(2.37443e-05 -0.000658525 0)
(3.56039e-05 -0.000675598 0)
(5.04936e-05 -0.000693422 0)
(6.88544e-05 -0.000711376 0)
(9.0349e-05 -0.000729084 0)
(0.000115233 -0.000745959 0)
(0.000143672 -0.000761375 0)
(0.000175568 -0.00077491 0)
(0.000211117 -0.000786118 0)
(0.000249851 -0.000794579 0)
(0.000291761 -0.000799821 0)
(0.000336462 -0.000801443 0)
(0.000383568 -0.000799064 0)
(0.000432556 -0.000792427 0)
(0.000482975 -0.000781245 0)
(0.000534114 -0.000765282 0)
(0.000585568 -0.000744542 0)
(0.000636533 -0.000718872 0)
(0.000686601 -0.000688497 0)
(0.000735146 -0.000653441 0)
(0.000781528 -0.000614159 0)
(0.000825184 -0.000570812 0)
(0.000865417 -0.000523972 0)
(0.000902147 -0.000474042 0)
(0.000934513 -0.000421657 0)
(0.000962216 -0.000367165 0)
(0.00098523 -0.000311218 0)
(0.00100291 -0.000254099 0)
(0.00101553 -0.000196517 0)
(0.00102307 -0.000138573 0)
(0.00102505 -8.08606e-05 0)
(0.00102253 -2.39597e-05 0)
(0.00101606 3.15894e-05 0)
(0.00100514 8.53591e-05 0)
(0.00098936 0.000137125 0)
(0.00096893 0.000186565 0)
(0.000944097 0.000233431 0)
(0.000914718 0.000277505 0)
(0.000881077 0.00031856 0)
(0.000843434 0.00035641 0)
(0.000801856 0.00039085 0)
(0.000756926 0.000421719 0)
(0.000709093 0.000448815 0)
(0.000658411 0.00047205 0)
(0.000604902 0.00049123 0)
(0.000549901 0.000506351 0)
(0.000493263 0.000517182 0)
(0.00043505 0.00052373 0)
(0.000376217 0.00052584 0)
(0.000317159 0.000523669 0)
(0.000258207 0.000517032 0)
(0.000200019 0.000506087 0)
(0.000142679 0.000490823 0)
(8.74658e-05 0.000471423 0)
(3.46949e-05 0.000447992 0)
(-1.56407e-05 0.000420754 0)
(-6.24102e-05 0.000389815 0)
(-0.000105624 0.000355553 0)
(-0.000144397 0.0003182 0)
(-0.000178702 0.000278163 0)
(-0.000207669 0.000235875 0)
(-0.000231154 0.000191785 0)
(-0.000248925 0.000146372 0)
(-0.000260494 0.000100222 0)
(-0.000265909 5.38903e-05 0)
(-0.000264536 7.95779e-06 0)
(-0.000256348 -3.68202e-05 0)
(-0.000242186 -8.00203e-05 0)
(-0.000221781 -0.000120807 0)
(-0.000195426 -0.00015873 0)
(-0.000163597 -0.000193033 0)
(-0.000126648 -0.0002233 0)
(-8.51687e-05 -0.000248774 0)
(-4.01053e-05 -0.000269039 0)
(8.40586e-06 -0.000283756 0)
(5.85198e-05 -0.000292382 0)
(0.000109754 -0.000294829 0)
(0.000161227 -0.000290807 0)
(0.000211546 -0.000280426 0)
(0.000260002 -0.000263689 0)
(0.000304934 -0.000240889 0)
(0.000345885 -0.000212353 0)
(0.000381493 -0.000178606 0)
(0.000410765 -0.000140249 0)
(0.000432958 -9.81e-05 0)
(0.000447331 -5.30239e-05 0)
(0.000453228 -6.07659e-06 0)
(0.000449998 4.17455e-05 0)
(0.000437423 8.93017e-05 0)
(0.000415835 0.000135416 0)
(0.000385469 0.00017892 0)
(0.000346749 0.000218612 0)
(0.000300288 0.000253367 0)
(0.000247206 0.00028209 0)
(0.00018866 0.00030389 0)
(0.000126033 0.000317983 0)
(6.09415e-05 0.000323829 0)
(-4.92368e-06 0.00032106 0)
(-6.97982e-05 0.000309571 0)
(-0.000131677 0.000289541 0)
(-0.000188796 0.000261499 0)
(-0.000239319 0.000226029 0)
(-0.000281642 0.000184209 0)
(-0.000314451 0.000137219 0)
(-0.000336368 8.66554e-05 0)
(-0.000347069 3.40801e-05 0)
(-0.000345369 -1.85322e-05 0)
(-0.00033142 -6.96275e-05 0)
(-0.000306118 -0.000117104 0)
(-0.000269926 -0.000159409 0)
(-0.000224561 -0.000194643 0)
(-0.000171418 -0.000221522 0)
(-0.000112619 -0.000238881 0)
(-5.07163e-05 -0.000245964 0)
(1.17346e-05 -0.000242338 0)
(7.19043e-05 -0.000228067 0)
(0.000127216 -0.000203772 0)
(0.000175005 -0.000170669 0)
(0.000213137 -0.000130052 0)
(0.000239627 -8.40754e-05 0)
(0.000253236 -3.47551e-05 0)
(0.000252907 1.5343e-05 0)
(0.000238813 6.36914e-05 0)
(0.000211955 0.000107781 0)
(0.00017329 0.000145055 0)
(0.000125426 0.000173682 0)
(7.04327e-05 0.000191774 0)
(1.12998e-05 0.000198536 0)
(-4.79847e-05 0.000192991 0)
(-0.000103405 0.000175927 0)
(-0.000152137 0.000148238 0)
(-0.00019084 0.00011153 0)
(-0.000217164 6.82532e-05 0)
(-0.000229426 2.12205e-05 0)
(-0.000226259 -2.63743e-05 0)
(-0.000208272 -7.14884e-05 0)
(-0.000176457 -0.000110924 0)
(-0.000133123 -0.000142023 0)
(-8.13869e-05 -0.000162447 0)
(-2.45706e-05 -0.000170842 0)
(3.28615e-05 -0.000166368 0)
(8.60725e-05 -0.00014979 0)
(0.000131505 -0.000122507 0)
(0.000165727 -8.68763e-05 0)
(0.000186292 -4.58795e-05 0)
(0.000191434 -3.11539e-06 0)
(0.000181394 3.76545e-05 0)
(0.000157695 7.30822e-05 0)
(0.000122541 0.000100165 0)
(7.96376e-05 0.000116512 0)
(3.31722e-05 0.000121072 0)
(-1.23378e-05 0.000113393 0)
(-5.21357e-05 9.51297e-05 0)
(-8.23815e-05 6.84105e-05 0)
(-0.000100581 3.64793e-05 0)
(-0.000105067 3.01199e-06 0)
(-9.62357e-05 -2.81101e-05 0)
(-7.59803e-05 -5.3535e-05 0)
(-4.71252e-05 -7.04671e-05 0)
(-1.31683e-05 -7.7233e-05 0)
(2.08028e-05 -7.30634e-05 0)
(4.98166e-05 -5.94522e-05 0)
(7.06694e-05 -3.84369e-05 0)
(8.08151e-05 -1.31942e-05 0)
(7.91611e-05 1.26013e-05 0)
(6.635e-05 3.54949e-05 0)
(4.47258e-05 5.23813e-05 0)
(1.75851e-05 6.12286e-05 0)
(-1.16294e-05 6.10904e-05 0)
(-3.82343e-05 5.2487e-05 0)
(-5.82227e-05 3.73292e-05 0)
(-6.97094e-05 1.83083e-05 0)
(-7.15376e-05 -1.5151e-06 0)
(-6.43687e-05 -1.91734e-05 0)
(-4.99211e-05 -3.21335e-05 0)
(-3.11169e-05 -3.91595e-05 0)
(-1.11931e-05 -3.94233e-05 0)
(6.96647e-06 -3.38887e-05 0)
(2.05969e-05 -2.41333e-05 0)
(2.82971e-05 -1.21687e-05 0)
(2.96267e-05 -1.15985e-07 0)
(2.53251e-05 1.00611e-05 0)
(1.6894e-05 1.70767e-05 0)
(6.33607e-06 2.03302e-05 0)
(-4.65992e-06 1.98459e-05 0)
(-1.41578e-05 1.6402e-05 0)
(-2.07273e-05 1.09506e-05 0)
(-2.41253e-05 4.70106e-06 0)
(-2.42619e-05 -1.38959e-06 0)
(-2.16366e-05 -6.61216e-06 0)
(-1.68524e-05 -1.05801e-05 0)
(-1.06282e-05 -1.3152e-05 0)
(-3.62994e-06 -1.44381e-05 0)
(-1.1821e-05 -7.30927e-05 0)
(-3.38326e-05 -7.55578e-05 0)
(-5.44745e-05 -8.7452e-05 0)
(-7.2498e-05 -0.000105441 0)
(-8.66951e-05 -0.000129187 0)
(-9.56439e-05 -0.000158668 0)
(-9.87063e-05 -0.000193198 0)
(-9.45045e-05 -0.000232857 0)
(-8.26198e-05 -0.000276295 0)
(-6.28271e-05 -0.000323491 0)
(-3.46947e-05 -0.000373158 0)
(1.29616e-06 -0.000424666 0)
(4.66099e-05 -0.000476557 0)
(0.00010002 -0.000527895 0)
(0.000160027 -0.00057713 0)
(0.000226402 -0.000623267 0)
(0.000298917 -0.000664857 0)
(0.000377133 -0.000701019 0)
(0.000460212 -0.000730846 0)
(0.000546855 -0.000753077 0)
(0.000636209 -0.000767276 0)
(0.000727709 -0.000772949 0)
(0.00081924 -0.000769663 0)
(0.000910055 -0.00075731 0)
(0.000998418 -0.000735659 0)
(0.00108311 -0.00070542 0)
(0.0011626 -0.000666545 0)
(0.00123591 -0.000620204 0)
(0.00130216 -0.000566683 0)
(0.00135983 -0.000507539 0)
(0.00140862 -0.000443234 0)
(0.00144869 -0.000375203 0)
(0.00147975 -0.000304277 0)
(0.00150225 -0.000231564 0)
(0.00151609 -0.000157835 0)
(0.00152196 -8.38415e-05 0)
(0.0015208 -1.03338e-05 0)
(0.00151055 6.20879e-05 0)
(0.00149123 0.000133215 0)
(0.00146334 0.000202641 0)
(0.00142853 0.000269947 0)
(0.00138783 0.000334703 0)
(0.00134136 0.000396608 0)
(0.00128973 0.000455222 0)
(0.00123333 0.00051026 0)
(0.00117257 0.000561382 0)
(0.00110775 0.000608317 0)
(0.00103917 0.000650784 0)
(0.000967223 0.000688554 0)
(0.000892318 0.000721282 0)
(0.00081492 0.000748818 0)
(0.000735471 0.000770932 0)
(0.000654218 0.000787453 0)
(0.000571677 0.000798133 0)
(0.000488392 0.000802766 0)
(0.000405143 0.000801517 0)
(0.000322409 0.000794069 0)
(0.000240403 0.000780363 0)
(0.000160257 0.000760603 0)
(8.22429e-05 0.000734665 0)
(7.27212e-06 0.000702867 0)
(-6.37301e-05 0.000665035 0)
(-0.00013085 0.000621759 0)
(-0.000193065 0.000573102 0)
(-0.000249672 0.000519635 0)
(-0.000300163 0.000461689 0)
(-0.000343811 0.000399895 0)
(-0.000380176 0.000334844 0)
(-0.000408827 0.000267123 0)
(-0.000429251 0.000197645 0)
(-0.000441113 0.000127132 0)
(-0.000444206 5.6418e-05 0)
(-0.000438157 -1.33756e-05 0)
(-0.00042326 -8.15331e-05 0)
(-0.000399803 -0.000147066 0)
(-0.00036796 -0.000208903 0)
(-0.000327987 -0.000266163 0)
(-0.000280637 -0.000317817 0)
(-0.000226309 -0.000363027 0)
(-0.000165739 -0.00040083 0)
(-0.000100486 -0.0004307 0)
(-3.1062e-05 -0.000451755 0)
(4.09844e-05 -0.000463808 0)
(0.000114138 -0.000465996 0)
(0.000187179 -0.000458568 0)
(0.000258587 -0.000441164 0)
(0.000327019 -0.000414145 0)
(0.000390696 -0.000377855 0)
(0.000448298 -0.000332755 0)
(0.000498443 -0.000279784 0)
(0.000539673 -0.000219772 0)
(0.00057086 -0.000154093 0)
(0.000590926 -8.40148e-05 0)
(0.000599229 -1.12361e-05 0)
(0.00059514 6.27082e-05 0)
(0.000578235 0.000136114 0)
(0.000548877 0.00020715 0)
(0.000507408 0.000273988 0)
(0.000454441 0.000334696 0)
(0.000390948 0.000387624 0)
(0.000318382 0.000431173 0)
(0.000238449 0.000463996 0)
(0.000153132 0.000484895 0)
(6.46202e-05 0.000493051 0)
(-2.47779e-05 0.000487893 0)
(-0.000112405 0.000469406 0)
(-0.000195608 0.000437906 0)
(-0.000272025 0.000393931 0)
(-0.000339387 0.00033881 0)
(-0.000395305 0.000274045 0)
(-0.000437685 0.000201564 0)
(-0.000465187 0.000123715 0)
(-0.000476598 4.28108e-05 0)
(-0.000471553 -3.76454e-05 0)
(-0.000449942 -0.000115684 0)
(-0.000412541 -0.000187989 0)
(-0.000360715 -0.000251987 0)
(-0.000296099 -0.000305052 0)
(-0.000221475 -0.000344983 0)
(-0.000139725 -0.000370247 0)
(-5.39984e-05 -0.000379543 0)
(3.22851e-05 -0.000372352 0)
(0.000114979 -0.00034896 0)
(0.000190032 -0.000310417 0)
(0.00025454 -0.000258274 0)
(0.000305268 -0.000195056 0)
(0.000339675 -0.000123476 0)
(0.0003564 -4.72295e-05 0)
(0.000353908 2.97855e-05 0)
(0.000332421 0.000103867 0)
(0.000293094 0.000171148 0)
(0.000238107 0.000227716 0)
(0.000170499 0.000270763 0)
(9.39787e-05 0.000297197 0)
(1.1953e-05 0.000306351 0)
(-6.99305e-05 0.000296512 0)
(-0.000145705 0.000269088 0)
(-0.00021191 0.000225398 0)
(-0.000264103 0.00016822 0)
(-0.00029883 0.000101354 0)
(-0.000313789 2.89483e-05 0)
(-0.000307877 -4.41669e-05 0)
(-0.000281569 -0.000112908 0)
(-0.00023681 -0.00017282 0)
(-0.000176541 -0.000219236 0)
(-0.00010514 -0.000249423 0)
(-2.73503e-05 -0.000260996 0)
(5.06367e-05 -0.000252675 0)
(0.000122127 -0.000226021 0)
(0.000182294 -0.00018313 0)
(0.000226704 -0.000127798 0)
(0.00025191 -6.45744e-05 0)
(0.000256134 8.23411e-07 0)
(0.000239713 6.30206e-05 0)
(0.000204681 0.000116551 0)
(0.000154636 0.000156806 0)
(9.45908e-05 0.000180419 0)
(3.02811e-05 0.000185689 0)
(-3.16477e-05 0.000172262 0)
(-8.47014e-05 0.000142794 0)
(-0.000124115 0.000100726 0)
(-0.000146351 5.1051e-05 0)
(-0.000149712 -3.94212e-07 0)
(-0.000134822 -4.80647e-05 0)
(-0.00010433 -8.63712e-05 0)
(-6.26103e-05 -0.000111332 0)
(-1.45144e-05 -0.000120498 0)
(3.27575e-05 -0.000112899 0)
(7.2442e-05 -9.07685e-05 0)
(0.000100352 -5.76366e-05 0)
(0.000113062 -1.83885e-05 0)
(0.000109456 2.13278e-05 0)
(9.06848e-05 5.60903e-05 0)
(6.01589e-05 8.12917e-05 0)
(2.25643e-05 9.38976e-05 0)
(-1.70757e-05 9.25357e-05 0)
(-5.23826e-05 7.84635e-05 0)
(-7.81598e-05 5.46576e-05 0)
(-9.19821e-05 2.53075e-05 0)
(-9.26735e-05 -4.75966e-06 0)
(-8.13355e-05 -3.11101e-05 0)
(-6.07226e-05 -5.00103e-05 0)
(-3.48624e-05 -5.95427e-05 0)
(-8.15681e-06 -5.90954e-05 0)
(1.52913e-05 -4.98918e-05 0)
(3.21362e-05 -3.45617e-05 0)
(4.07824e-05 -1.62683e-05 0)
(4.09742e-05 1.69758e-06 0)
(3.3928e-05 1.65706e-05 0)
(2.18913e-05 2.64719e-05 0)
(7.55547e-06 3.06348e-05 0)
(-6.71324e-06 2.92182e-05 0)
(-1.8519e-05 2.36367e-05 0)
(-2.63202e-05 1.53681e-05 0)
(-2.98998e-05 6.14828e-06 0)
(-2.94477e-05 -2.57862e-06 0)
(-2.57548e-05 -9.87771e-06 0)
(-1.97131e-05 -1.52116e-05 0)
(-1.22962e-05 -1.86343e-05 0)
(-4.18799e-06 -2.02527e-05 0)
(-3.99389e-05 -0.00024763 0)
(-0.000118225 -0.000282872 0)
(-0.000194185 -0.000317358 0)
(-0.000265648 -0.000368695 0)
(-0.00033143 -0.000435577 0)
(-0.000388865 -0.000518189 0)
(-0.000438025 -0.00061098 0)
(-0.000475665 -0.000714871 0)
(-0.000501199 -0.00081976 0)
(-0.000514513 -0.000927919 0)
(-0.000512357 -0.00103369 0)
(-0.000494445 -0.00113824 0)
(-0.000459321 -0.00123821 0)
(-0.000407025 -0.00133346 0)
(-0.000337703 -0.00142123 0)
(-0.000252165 -0.00150054 0)
(-0.000151605 -0.00156958 0)
(-3.93574e-05 -0.00162637 0)
(8.56925e-05 -0.0016699 0)
(0.000220199 -0.00169858 0)
(0.000359677 -0.00171047 0)
(0.000503375 -0.00170526 0)
(0.000648389 -0.00168108 0)
(0.000793229 -0.00163952 0)
(0.000932989 -0.0015784 0)
(0.00106641 -0.00150178 0)
(0.00119069 -0.00140606 0)
(0.00130387 -0.0012998 0)
(0.00140366 -0.00117737 0)
(0.0014891 -0.00104935 0)
(0.00156077 -0.000912655 0)
(0.00161684 -0.000773993 0)
(0.00165872 -0.000633113 0)
(0.00168718 -0.000493139 0)
(0.00170332 -0.000354754 0)
(0.00170761 -0.000219411 0)
(0.00170086 -8.83095e-05 0)
(0.00168467 3.73179e-05 0)
(0.001661 0.000156943 0)
(0.00162968 0.000270317 0)
(0.00159056 0.000377319 0)
(0.001544 0.000477644 0)
(0.00149029 0.000571399 0)
(0.00142986 0.000658101 0)
(0.00136313 0.000738044 0)
(0.00129054 0.00081088 0)
(0.00121262 0.00087671 0)
(0.00112969 0.000935099 0)
(0.00104213 0.000986201 0)
(0.000950745 0.00102979 0)
(0.000856066 0.00106563 0)
(0.000758174 0.00109367 0)
(0.000658197 0.00111362 0)
(0.000556001 0.00112532 0)
(0.00045315 0.0011288 0)
(0.000350214 0.00112373 0)
(0.000246821 0.00111018 0)
(0.000145054 0.00108811 0)
(4.53857e-05 0.00105755 0)
(-5.17335e-05 0.00101854 0)
(-0.000145259 0.000971294 0)
(-0.000234027 0.000915992 0)
(-0.000317309 0.000852899 0)
(-0.000394194 0.000782676 0)
(-0.000463803 0.000705677 0)
(-0.000525236 0.000622666 0)
(-0.000577705 0.000534298 0)
(-0.000620698 0.000441445 0)
(-0.000653259 0.0003451 0)
(-0.000674829 0.000246447 0)
(-0.000685285 0.000146517 0)
(-0.000683784 4.65016e-05 0)
(-0.000670209 -5.20757e-05 0)
(-0.000645017 -0.000148217 0)
(-0.000608269 -0.000240439 0)
(-0.000560256 -0.000327321 0)
(-0.000501478 -0.000407495 0)
(-0.000432735 -0.000479624 0)
(-0.000354767 -0.000542423 0)
(-0.000269095 -0.0005947 0)
(-0.000177044 -0.00063547 0)
(-7.97733e-05 -0.000663683 0)
(2.07679e-05 -0.000678803 0)
(0.000122864 -0.000680167 0)
(0.00022431 -0.000667554 0)
(0.000323459 -0.000640956 0)
(0.000417879 -0.000600615 0)
(0.000505726 -0.000547113 0)
(0.000585136 -0.000481191 0)
(0.000654029 -0.00040422 0)
(0.000710535 -0.000317462 0)
(0.000753087 -0.000222663 0)
(0.000780378 -0.000121946 0)
(0.000791389 -1.73542e-05 0)
(0.00078575 8.85228e-05 0)
(0.000762807 0.000193348 0)
(0.000722899 0.000294575 0)
(0.000666324 0.000389474 0)
(0.000594124 0.000475523 0)
(0.000507937 0.000550372 0)
(0.000409744 0.000611622 0)
(0.00030173 0.000657308 0)
(0.000186562 0.00068588 0)
(6.72624e-05 0.000696252 0)
(-5.27846e-05 0.000687618 0)
(-0.000169999 0.000659869 0)
(-0.000281293 0.000613521 0)
(-0.000383025 0.000549774 0)
(-0.000471676 0.000470145 0)
(-0.000544647 0.000377312 0)
(-0.000599253 0.000273474 0)
(-0.000633711 0.000162722 0)
(-0.00064586 4.7948e-05 0)
(-0.000635561 -6.65575e-05 0)
(-0.000603592 -0.000176804 0)
(-0.000550072 -0.000278728 0)
(-0.00047712 -0.000368425 0)
(-0.000387361 -0.000442297 0)
(-0.000284369 -0.000497383 0)
(-0.000172012 -0.000531271 0)
(-5.46855e-05 -0.000542338 0)
(6.23622e-05 -0.000529923 0)
(0.000173696 -0.000494515 0)
(0.000274701 -0.000437903 0)
(0.000360604 -0.000361674 0)
(0.000427598 -0.000270158 0)
(0.000472171 -0.000167314 0)
(0.00049167 -5.82266e-05 0)
(0.000485349 5.14695e-05 0)
(0.000453827 0.000156487 0)
(0.000398218 0.000251554 0)
(0.000321455 0.000330872 0)
(0.000227671 0.000390519 0)
(0.000122336 0.000426934 0)
(1.05555e-05 0.000437666 0)
(-0.000100629 0.000422151 0)
(-0.000202931 0.000381307 0)
(-0.00029179 0.00031768 0)
(-0.000360714 0.000235053 0)
(-0.000405777 0.000138711 0)
(-0.000424276 3.54184e-05 0)
(-0.000414089 -6.83711e-05 0)
(-0.000376703 -0.000165554 0)
(-0.000314166 -0.00024951 0)
(-0.000231299 -0.000314141 0)
(-0.000134407 -0.00035516 0)
(-2.89057e-05 -0.000369459 0)
(7.5795e-05 -0.000355651 0)
(0.000170743 -0.000316016 0)
(0.000249846 -0.000253541 0)
(0.000307017 -0.000173742 0)
(0.00033788 -8.33987e-05 0)
(0.000340158 9.55988e-06 0)
(0.000314807 9.7172e-05 0)
(0.000264636 0.000171981 0)
(0.000194631 0.000227184 0)
(0.000111995 0.000258672 0)
(2.44199e-05 0.00026377 0)
(-5.87794e-05 0.000242445 0)
(-0.000128858 0.000198456 0)
(-0.000179742 0.000137082 0)
(-0.000206729 6.5449e-05 0)
(-0.000207979 -8.03231e-06 0)
(-0.000184551 -7.5403e-05 0)
(-0.000140291 -0.000128901 0)
(-8.15066e-05 -0.000162888 0)
(-1.48933e-05 -0.000174026 0)
(4.97691e-05 -0.000161314 0)
(0.000103205 -0.000128149 0)
(0.000139879 -7.97559e-05 0)
(0.000155512 -2.3209e-05 0)
(0.000148858 3.33845e-05 0)
(0.000121872 8.22643e-05 0)
(7.93927e-05 0.000116986 0)
(2.78765e-05 0.000133547 0)
(-2.52915e-05 0.000129789 0)
(-7.15863e-05 0.000108575 0)
(-0.000104561 7.39133e-05 0)
(-0.000120963 3.20199e-05 0)
(-0.000119692 -1.03087e-05 0)
(-0.000102592 -4.66789e-05 0)
(-7.37135e-05 -7.21101e-05 0)
(-3.87023e-05 -8.39716e-05 0)
(-3.41826e-06 -8.19299e-05 0)
(2.66547e-05 -6.78156e-05 0)
(4.73231e-05 -4.55288e-05 0)
(5.68236e-05 -1.96933e-05 0)
(5.51959e-05 5.11706e-06 0)
(4.442e-05 2.51393e-05 0)
(2.7641e-05 3.79377e-05 0)
(8.45777e-06 4.26908e-05 0)
(-9.81392e-06 3.97777e-05 0)
(-2.43022e-05 3.14704e-05 0)
(-3.34162e-05 1.97619e-05 0)
(-3.70141e-05 7.21114e-06 0)
(-3.56528e-05 -4.34619e-06 0)
(-3.05246e-05 -1.36461e-05 0)
(-2.29488e-05 -2.02743e-05 0)
(-1.4104e-05 -2.43166e-05 0)
(-4.73963e-06 -2.61955e-05 0)
(-0.000109366 0.000805598 0)
(-0.000324529 0.000772943 0)
(-0.000535296 0.000716895 0)
(-0.000731003 0.000632983 0)
(-0.000910527 0.000526336 0)
(-0.00105385 0.000394939 0)
(-0.00116672 0.000253277 0)
(-0.001223 8.62812e-05 0)
(-0.00123808 -7.86332e-05 0)
(-0.00122901 -0.000274464 0)
(-0.00118071 -0.000485845 0)
(-0.00110868 -0.000713432 0)
(-0.00100829 -0.000943036 0)
(-0.00088412 -0.00117026 0)
(-0.000734664 -0.00138643 0)
(-0.000565389 -0.00158599 0)
(-0.000373092 -0.00176338 0)
(-0.000162463 -0.001914 0)
(6.65886e-05 -0.00203412 0)
(0.000311619 -0.00212011 0)
(0.000562275 -0.00216985 0)
(0.000821568 -0.00218703 0)
(0.00107972 -0.00216691 0)
(0.00133632 -0.00211422 0)
(0.00157827 -0.00202482 0)