/*--------------------------------*- C++ -*----------------------------------*\
  =========                 |
  \\      /  F ield         | OpenFOAM: The Open Source CFD Toolbox
   \\    /   O peration     | Website:  https://openfoam.org
    \\  /    A nd           | Version:  12
     \\/     M anipulation  |
\*---------------------------------------------------------------------------*/
FoamFile
{
    format      ascii;
    class       volVectorField;
    location    "400";
    object      U;
}
// * * * * * * * * * * * * * * * * * * * * * * * * * * * * * * * * * * * * * //

dimensions      [0 1 -1 0 0 0 0];

internalField   nonuniform List<vector> 
80
(
(0.00764585 0 0)
(0.0225253 0 0)
(0.0365513 0 0)
(0.0492028 0 0)
(0.0600442 0 0)
(0.0687838 0 0)
(0.0753685 0 0)
(0.0800567 0 0)
(0.0833074 0 0)
(0.0854799 0 0)
(0.0868746 0 0)
(0.085785 0 0)
(0.0839526 0 0)
(0.081366 0 0)
(0.0779939 0 0)
(0.0738203 0 0)
(0.0689516 0 0)
(0.0636289 0 0)
(0.0581734 0 0)
(0.052907 0 0)
(0.0480866 0 0)
(0.0438673 0 0)
(0.0402994 0 0)
(0.0373601 0 0)
(0.034999 0 0)
(0.0331694 0 0)
(0.0318529 0 0)
(0.0310378 0 0)
(0.0311072 0 0)
(0.0314209 0 0)
(0.0316493 0 0)
(0.0318119 0 0)
(0.0319441 0 0)
(0.032169 0 0)
(0.0324987 0 0)
(0.0328748 0 0)
(0.0331748 0 0)
(0.0333013 0 0)
(0.0333514 0 0)
(0.0334746 0 0)
(0.0337358 0 0)
(0.0340081 0 0)
(0.0338449 0 0)
(0.0336123 0 0)
(0.0335135 0 0)
(0.0334469 0 0)
(0.0332424 0 0)
(0.0329113 0 0)
(0.0325764 0 0)
(0.032304 0 0)
(0.0321003 0 0)
(0.0318632 0 0)
(0.0317466 0 0)
(0.0325431 0 0)
(0.0338413 0 0)
(0.03565 0 0)
(0.0379863 0 0)
(0.0408949 0 0)
(0.0444241 0 0)
(0.0485963 0 0)
(0.0533626 0 0)
(0.0585711 0 0)
(0.0639683 0 0)
(0.0692359 0 0)
(0.074056 0 0)
(0.0781902 0 0)
(0.0815326 0 0)
(0.0840969 0 0)
(0.0859134 0 0)
(0.086978 0 0)
(0.0855697 0 0)
(0.0833882 0 0)
(0.0801255 0 0)
(0.0754242 0 0)
(0.0688264 0 0)
(0.0600756 0 0)
(0.0492251 0 0)
(0.0365662 0 0)
(0.0225339 0 0)
(0.00764863 0 0)
)
;

boundaryField
{
    lowerWall
    {
        type            noSlip;
    }
    upperWall
    {
        type            noSlip;
    }
    front
    {
        type            cyclic;
    }
    back
    {
        type            cyclic;
    }
    defaultFaces
    {
        type            empty;
    }
}


// ************************************************************************* //
