#           v             n
     0.523599             0
     0.648652             0
     0.790112             0
     0.953116             0
      1.13449             0
      1.34047             0
      1.56672             0
      1.82069             0
      2.09677   9.73104e-08
      2.40376    1.7878e-06
      2.73462   1.69132e-05
      3.09966   8.87941e-05
      3.49026   0.000340642
      3.91837   0.000921548
      4.37366    0.00202594
      4.86986    0.00345754
       5.3948    0.00500265
      5.96412    0.00584105
      6.56366    0.00586326
      7.21112    0.00484208
      7.89023    0.00347078
      8.62085    0.00208093
      9.38447    0.00109513
      10.2033   0.000489797
      11.0564   0.000194564
      11.9684   6.66332e-05
      12.9159   2.04929e-05
      13.9262    5.5017e-06
      14.9731   3.61786e-06
