/*--------------------------------*- C++ -*----------------------------------*\
  =========                 |
  \\      /  F ield         | OpenFOAM: The Open Source CFD Toolbox
   \\    /   O peration     | Website:  https://openfoam.org
    \\  /    A nd           | Version:  12
     \\/     M anipulation  |
\*---------------------------------------------------------------------------*/
FoamFile
{
    format      ascii;
    class       volVectorField;
    location    "4.1";
    object      zeta;
}
// * * * * * * * * * * * * * * * * * * * * * * * * * * * * * * * * * * * * * //

dimensions      [0 1 0 0 0 0 0];

internalField   uniform (0 0 0);

boundaryField
{
    freeSurface
    {
        type            calculated;
        value           nonuniform List<vector> 
181
(
(0 0.00194111 0)
(0 0.0019407 0)
(0 0.00194044 0)
(0 0.00194013 0)
(0 0.00193976 0)
(0 0.00193941 0)
(0 0.00193925 0)
(0 0.00193891 0)
(0 1.09292e-05 0)
(0 1.55869e-05 0)
(0 2.28496e-05 0)
(0 3.20113e-05 0)
(0 4.53529e-05 0)
(0 6.13858e-05 0)
(0 7.99075e-05 0)
(0 0.000100611 0)
(0 0.000123079 0)
(0 0.000146997 0)
(0 0.000171981 0)
(0 0.000197663 0)
(0 0.000223624 0)
(0 0.000249423 0)
(0 0.000274647 0)
(0 0.000298967 0)
(0 0.000322011 0)
(0 0.0003435 0)
(0 0.000363094 0)
(0 0.000380495 0)
(0 0.000395425 0)
(0 0.000407633 0)
(0 0.000416864 0)
(0 0.000422927 0)
(0 0.000425676 0)
(0 0.000424962 0)
(0 0.000420706 0)
(0 0.000412854 0)
(0 0.000401373 0)
(0 0.000386291 0)
(0 0.000367702 0)
(0 0.000345703 0)
(0 0.000320473 0)
(0 0.000292217 0)
(0 0.000261179 0)
(0 0.000227659 0)
(0 0.000192033 0)
(0 0.000154686 0)
(0 0.000116015 0)
(0 7.65048e-05 0)
(0 3.66507e-05 0)
(0 -3.04818e-06 0)
(0 -4.20367e-05 0)
(0 -7.97804e-05 0)
(0 -0.000115779 0)
(0 -0.000149454 0)
(0 -0.000180314 0)
(0 -0.000207897 0)
(0 -0.000231729 0)
(0 -0.000251422 0)
(0 -0.000266646 0)
(0 -0.000277147 0)
(0 -0.000282682 0)
(0 -0.000283172 0)
(0 -0.000278594 0)
(0 -0.000269022 0)
(0 -0.000254653 0)
(0 -0.000235769 0)
(0 -0.000212712 0)
(0 -0.000185978 0)
(0 -0.000156132 0)
(0 -0.000123768 0)
(0 -8.95949e-05 0)
(0 -5.43417e-05 0)
(0 -1.88449e-05 0)
(0 1.60659e-05 0)
(0 4.95752e-05 0)
(0 8.0851e-05 0)
(0 0.000109093 0)
(0 0.0001336 0)
(0 0.00015374 0)
(0 0.000169066 0)
(0 0.000179233 0)
(0 0.000184061 0)
(0 0.00018361 0)
(0 0.000178062 0)
(0 0.000167813 0)
(0 0.000153377 0)
(0 0.000135383 0)
(0 0.0001146 0)
(0 9.18146e-05 0)
(0 6.78108e-05 0)
(0 4.34291e-05 0)
(0 1.93908e-05 0)
(0 -3.60758e-06 0)
(0 -2.49717e-05 0)
(0 -4.41961e-05 0)
(0 -6.09153e-05 0)
(0 -7.4863e-05 0)
(0 -8.58941e-05 0)
(0 -9.39692e-05 0)
(0 -9.91493e-05 0)
(0 -0.000101575 0)
(0 -0.000101448 0)
(0 -9.90296e-05 0)
(0 -9.46093e-05 0)
(0 -8.85203e-05 0)
(0 -8.10832e-05 0)
(0 -7.26184e-05 0)
(0 -6.34511e-05 0)
(0 -5.38814e-05 0)
(0 -4.41918e-05 0)
(0 -3.46292e-05 0)
(0 -2.53959e-05 0)
(0 -1.66807e-05 0)
(0 -8.62827e-06 0)
(0 -1.35996e-06 0)
(0 5.04387e-06 0)
(0 1.05331e-05 0)
(0 1.50783e-05 0)
(0 1.86777e-05 0)
(0 2.13473e-05 0)
(0 2.31213e-05 0)
(0 2.40447e-05 0)
(0 2.41787e-05 0)
(0 2.35965e-05 0)
(0 2.23744e-05 0)
(0 2.05934e-05 0)
(0 1.83395e-05 0)
(0 1.56995e-05 0)
(0 1.27604e-05 0)
(0 9.60029e-06 0)
(0 6.2954e-06 0)
(0 2.91959e-06 0)
(0 -4.6582e-07 0)
(0 -3.78937e-06 0)
(0 -6.99876e-06 0)
(0 -1.00449e-05 0)
(0 -1.28852e-05 0)
(0 -1.5485e-05 0)
(0 -1.78174e-05 0)
(0 -1.98609e-05 0)
(0 -2.16029e-05 0)
(0 -2.3035e-05 0)
(0 -2.41556e-05 0)
(0 -2.49696e-05 0)
(0 -2.54869e-05 0)
(0 -2.57219e-05 0)
(0 -2.56932e-05 0)
(0 -2.54198e-05 0)
(0 -2.4923e-05 0)
(0 -2.42266e-05 0)
(0 -2.33585e-05 0)
(0 -2.23496e-05 0)
(0 -2.12313e-05 0)
(0 -2.00317e-05 0)
(0 -1.87761e-05 0)
(0 -1.74871e-05 0)
(0 -1.61859e-05 0)
(0 -1.48925e-05 0)
(0 -1.3624e-05 0)
(0 -1.2395e-05 0)
(0 -1.12177e-05 0)
(0 -1.01056e-05 0)
(0 -9.07297e-06 0)
(0 -8.13251e-06 0)
(0 -7.29295e-06 0)
(0 -6.55697e-06 0)
(0 -5.92189e-06 0)
(0 -5.38188e-06 0)
(0 -4.93221e-06 0)
(0 -4.56999e-06 0)
(0 -4.29168e-06 0)
(0 -4.08925e-06 0)
(0 -3.94907e-06 0)
(0 -3.85704e-06 0)
(0 -3.80017e-06 0)
(0 -3.76965e-06 0)
(0 -3.75927e-06 0)
(0 -3.76311e-06 0)
(0 -3.77548e-06 0)
(0 -3.79001e-06 0)
(0 -3.79988e-06 0)
)
;
    }
    walls
    {
        type            calculated;
        value           uniform (0 0 0);
    }
    floatingObject
    {
        type            calculated;
        value           uniform (0 0 0);
    }
    frontAndBack
    {
        type            empty;
    }
}


// ************************************************************************* //
