#           v             n
     0.523599   5.91758e-07
     0.648652   2.93384e-07
     0.790112   5.11308e-07
     0.953116   9.46572e-07
      1.13449   1.77094e-06
      1.34047   3.48411e-06
      1.56672   6.85967e-06
      1.82069   1.40336e-05
      2.09677   2.83858e-05
      2.40376    5.8831e-05
      2.73462   0.000118768
      3.09966   0.000241577
      3.49026   0.000469699
      3.91837   0.000900881
      4.37366    0.00161123
      4.86986    0.00276465
       5.3948    0.00427535
      5.96412    0.00610686
      6.56366    0.00750015
      7.21112    0.00810374
      7.89023    0.00711554
      8.62085    0.00522461
      9.38447    0.00280306
      10.2033   0.000881817
      11.0564             0
      11.9684             0
      12.9159             0
      13.9262             0
      14.9731             0
