/*--------------------------------*- C++ -*----------------------------------*\
  =========                 |
  \\      /  F ield         | OpenFOAM: The Open Source CFD Toolbox
   \\    /   O peration     | Website:  https://openfoam.org
    \\  /    A nd           | Version:  12
     \\/     M anipulation  |
\*---------------------------------------------------------------------------*/
FoamFile
{
    format      ascii;
    class       volScalarField;
    location    "0.26";
    object      epsilon;
}
// * * * * * * * * * * * * * * * * * * * * * * * * * * * * * * * * * * * * * //

dimensions      [0 2 -3 0 0 0 0];

internalField   nonuniform List<scalar> 
12225
(
278.515
263.66
249.434
236.839
226.738
219.483
215.069
213.262
213.705
215.988
219.71
224.5
230.037
236.059
242.363
248.78
255.346
264.851
61.116
86.6952
97.9911
107.207
118.464
132.555
149.408
168.607
189.571
211.673
234.324
257.011
279.329
300.982
321.874
341.842
362.395
380.921
25.2776
36.183
43.3817
48.6212
53.3861
58.3357
63.7697
69.8242
76.5241
83.821
91.6249
99.8262
108.313
116.986
125.777
134.665
143.798
153.166
17.5217
21.2986
24.7145
27.6099
30.1618
32.5399
34.8663
37.2274
39.6763
42.2395
44.9244
47.7266
50.6348
53.6368
56.7235
59.9024
63.1915
66.6164
15.4878
16.7519
18.1858
19.5889
20.9094
22.1489
23.3262
24.465
25.5861
26.7047
27.8306
28.9695
30.1242
31.2961
32.4869
33.7013
34.9441
36.2119
14.9084
15.2396
15.7463
16.334
16.9476
17.5589
18.1558
18.7355
19.3
19.8524
20.3959
20.9331
21.4662
21.9969
22.527
23.0588
23.5939
24.1264
14.7451
14.7391
14.8342
15.0036
15.2215
15.4679
15.7285
15.9948
16.2619
16.5273
16.7901
17.0497
17.3062
17.5601
17.8116
18.0616
18.3105
18.5541
14.7012
14.5825
14.5116
14.4858
14.4981
14.5403
14.6043
14.6837
14.7736
14.8707
14.9724
15.0771
15.1836
15.2911
15.3994
15.5081
15.617
15.7235
14.6901
14.5373
14.407
14.3009
14.2182
14.1571
14.1145
14.0875
14.0732
14.0692
14.0735
14.0844
14.1006
14.1211
14.1451
14.1721
14.2015
14.2317
14.6874
14.5252
14.3761
14.2411
14.1204
14.0137
13.9203
13.8391
13.7688
13.7083
13.6564
13.6119
13.574
13.5418
13.5147
13.4919
13.473
13.4572
14.6868
14.5221
14.3677
14.2236
14.0896
13.9656
13.8512
13.746
13.6495
13.5611
13.4801
13.4061
13.3383
13.2764
13.2197
13.1678
13.1203
13.0771
14.6866
14.5213
14.3656
14.219
14.0812
13.9518
13.8305
13.7169
13.6105
13.5111
13.4182
13.3314
13.2504
13.1747
13.104
13.038
12.9764
12.9194
14.6865
14.521
14.3648
14.2175
14.0785
13.9473
13.8234
13.7065
13.5963
13.4922
13.3941
13.3016
13.2143
13.1319
13.0543
12.981
12.912
12.8476
14.6864
14.5208
14.3645
14.2169
14.0774
13.9456
13.8209
13.7029
13.5913
13.4855
13.3853
13.2904
13.2005
13.1153
13.0345
12.9579
12.8853
12.8172
14.6864
14.5207
14.3643
14.2165
14.0769
13.9449
13.8199
13.7016
13.5895
13.4832
13.3824
13.2868
13.196
13.1098
13.0279
12.9501
12.8762
12.8068
14.6863
14.5206
14.3641
14.2163
14.0766
13.9444
13.8194
13.7009
13.5886
13.4822
13.3812
13.2854
13.1943
13.1079
13.0257
12.9475
12.8732
12.8034
14.6863
14.5205
14.364
14.2161
14.0763
13.9441
13.8189
13.7004
13.5881
13.4815
13.3805
13.2845
13.1934
13.1068
13.0245
12.9462
12.8718
12.8018
14.6863
14.5204
14.3639
14.216
14.0761
13.9439
13.8186
13.7001
13.5877
13.4811
13.3799
13.2839
13.1927
13.1061
13.0237
12.9454
12.8709
12.8008
14.6863
14.5204
14.3639
14.2159
14.0761
13.9438
13.8185
13.6999
13.5875
13.4809
13.3797
13.2837
13.1924
13.1057
13.0233
12.9449
12.8704
12.8002
14.6863
14.5205
14.3639
14.216
14.0762
13.9439
13.8187
13.7001
13.5877
13.4811
13.38
13.284
13.1928
13.1061
13.0237
12.9453
12.8709
12.8007
14.6863
14.5205
14.364
14.2162
14.0764
13.9443
13.8192
13.7007
13.5885
13.4821
13.3812
13.2854
13.1945
13.1082
13.0262
12.9482
12.8742
12.8046
14.6863
14.5206
14.3643
14.2167
14.0773
13.9457
13.8214
13.7039
13.5928
13.4878
13.3886
13.2947
13.2059
13.1218
13.0423
12.9669
12.8956
12.8288
14.6865
14.5212
14.3659
14.2202
14.0837
13.956
13.8368
13.7256
13.6218
13.525
13.4348
13.3506
13.272
13.1986
13.13
13.0659
13.006
12.9505
14.6876
14.5264
14.3793
14.2467
14.1282
14.0231
13.9302
13.8484
13.7762
13.7126
13.6565
13.6068
13.5628
13.5237
13.489
13.4581
13.4306
13.4066
14.6976
14.5664
14.4707
14.4075
14.3715
14.3568
14.3585
14.372
14.3941
14.4224
14.4551
14.4908
14.5287
14.5681
14.6085
14.6497
14.6913
14.7334
14.7737
14.8187
14.9603
15.1591
15.3863
15.6233
15.8598
16.0905
16.3135
16.5284
16.7359
16.9365
17.1313
17.3211
17.5066
17.6884
17.8669
18.0418
15.2587
16.1151
17.0712
17.9727
18.7879
19.5239
20.1945
20.8149
21.3989
21.9574
22.4988
23.0292
23.5529
24.0727
24.5905
25.107
25.6225
26.1344
18.0414
22.0079
24.9885
27.1533
28.8884
30.405
31.8126
33.1787
34.5441
35.9314
37.3517
38.8088
40.3019
41.8269
43.3783
44.9496
46.5344
48.1198
34.024
45.6879
51.3769
54.9426
58.0812
61.2985
64.7516
68.4842
72.4806
76.6978
81.0854
85.5937
90.1763
94.7914
99.4032
103.983
108.515
112.972
163.308
157.417
151.704
146.261
141.3
136.947
133.25
130.206
127.781
125.919
124.559
123.637
123.094
122.871
122.918
123.188
123.642
124.244
0.193365
0.240262
0.398802
0.538602
0.681646
0.851986
1.05008
1.2822
1.55537
1.86464
2.19188
2.53756
2.89928
3.27397
3.65854
4.05007
4.44574
4.84286
5.23878
5.63087
6.0166
6.39346
6.75911
7.11127
7.44773
7.7662
8.06416
8.33857
8.58559
8.80032
8.97684
9.10942
9.19635
9.24703
9.28558
9.33094
9.3654
39.6951
9.29811
9.40448
9.43717
9.44408
40.5583
40.5466
42.5158
45.4655
48.6357
51.9919
55.5248
59.2312
63.1096
67.1603
71.3844
75.7836
80.3598
85.1152
90.0516
95.1711
100.475
105.966
111.645
117.512
123.569
129.815
136.252
142.877
149.691
156.691
163.877
171.246
178.794
186.52
194.418
202.485
210.717
219.107
227.651
236.342
245.174
254.14
263.232
272.444
281.766
291.19
300.708
310.311
319.987
329.729
339.524
349.364
359.235
369.128
379.029
388.928
398.811
408.669
418.494
428.283
438.045
447.812
457.558
467.174
476.657
486.001
495.193
504.217
513.058
521.701
530.13
538.328
546.282
553.975
561.394
568.524
575.352
581.865
588.05
593.895
599.391
604.525
609.289
613.674
617.673
621.277
624.482
627.282
629.672
631.65
633.212
634.358
635.088
635.402
635.302
634.791
633.873
632.551
630.832
628.723
626.23
623.363
620.13
616.542
612.609
608.342
603.755
598.86
593.669
588.198
582.46
576.47
570.244
563.796
557.142
550.299
543.282
536.105
528.788
521.345
513.792
506.147
498.411
490.635
482.791
474.95
467.19
460.375
457.171
454.512
451.869
449.215
446.551
443.874
441.179
438.444
435.624
432.616
429.187
424.732
417.773
401.855
0.743163
0.467242
0.482362
0.554189
0.660097
0.794948
0.957252
1.14789
1.36636
1.60995
1.87468
2.15787
2.45729
2.77089
3.09684
3.43349
3.77932
4.13297
4.49324
4.8591
5.2298
5.60493
5.98455
6.36933
6.76072
7.16117
7.57438
8.00576
8.46334
8.95929
9.51224
10.1489
10.8977
11.7672
12.7243
13.7554
15.0492
16.9393
17.4583
18.0445
19.4799
21.3404
23.8505
25.7184
27.2548
28.8474
30.4937
32.1946
33.9549
35.7765
37.6608
39.6094
41.6234
43.7041
45.8524
48.0691
50.3549
52.7104
55.1359
57.6318
60.1982
62.8352
65.5427
68.3205
71.1681
74.085
77.0706
80.1241
83.2445
86.4307
89.6814
92.9954
96.3709
99.8063
103.3
106.849
110.453
114.108
117.813
121.565
125.36
129.197
133.072
136.983
140.925
144.897
148.893
152.911
156.947
160.997
165.056
169.121
173.187
177.251
181.309
185.358
189.398
193.431
197.465
201.518
205.603
209.65
213.65
217.597
221.486
225.31
229.065
232.743
236.338
239.846
243.259
246.572
249.78
252.876
255.856
258.714
261.446
264.046
266.511
268.835
271.015
273.048
274.929
276.657
278.227
279.639
280.889
281.975
282.898
283.655
284.246
284.67
284.929
285.021
284.949
284.714
284.317
283.759
283.045
282.175
281.154
279.984
278.669
277.214
275.622
273.898
272.047
270.073
267.982
265.78
263.472
261.063
258.56
255.968
253.294
250.542
247.722
244.836
241.894
238.901
235.853
232.781
229.651
226.527
223.453
220.614
218.445
216.47
214.535
212.612
210.695
208.784
206.881
204.983
203.087
201.187
199.258
197.288
195.153
193.903
1.49006
0.787921
0.730731
0.780506
0.872375
0.996335
1.14953
1.33055
1.53766
1.76842
2.02011
2.29025
2.57678
2.87802
3.1927
3.51983
3.85872
4.20889
4.57014
4.94254
5.32648
5.72279
6.13274
6.55823
7.00183
7.46688
7.95761
8.47922
9.03813
9.64227
10.3012
11.0251
11.8198
12.678
13.5779
14.5094
15.4913
16.537
17.5576
18.6131
19.7911
21.0504
22.3874
23.7313
25.0549
26.4054
27.7971
29.2361
30.7255
32.2663
33.8591
35.5042
37.2022
38.9533
40.7581
42.6167
44.5294
46.4965
48.5181
50.5943
52.725
54.9102
57.1496
59.4432
61.7905
64.1911
66.6444
69.15
71.707
74.3147
76.9721
79.6781
82.4318
85.2318
88.0768
90.9654
93.8959
96.8667
99.8761
102.922
106.003
109.116
112.26
115.432
118.63
121.851
125.093
128.353
131.629
134.917
138.216
141.522
144.834
148.149
151.466
154.785
158.104
161.426
164.752
168.083
171.401
174.689
177.941
181.15
184.312
187.422
190.476
193.467
196.392
199.244
202.021
204.716
207.325
209.844
212.269
214.594
216.817
218.933
220.939
222.83
224.605
226.259
227.791
229.198
230.477
231.626
232.645
233.531
234.283
234.9
235.383
235.731
235.943
236.021
235.966
235.777
235.456
235.006
234.428
233.723
232.896
231.947
230.881
229.7
228.409
227.009
225.506
223.904
222.206
220.416
218.541
216.583
214.548
212.44
210.265
208.025
205.73
203.38
200.982
198.544
196.051
193.551
191.026
188.498
185.998
183.602
181.438
179.384
177.37
175.377
173.399
171.435
169.489
167.564
165.665
163.805
161.999
160.312
158.83
158.35
2.3868
1.1615
1.01535
1.03151
1.10944
1.22652
1.37542
1.55279
1.75619
1.98323
2.23153
2.49888
2.78344
3.08376
3.39883
3.72799
4.07095
4.42769
4.79849
5.1839
5.58478
6.00233
6.43809
6.89399
7.37232
7.87577
8.40731
8.97024
9.56808
10.2045
10.8833
11.6076
12.3783
13.192
14.0425
14.927
15.8489
16.8118
17.8132
18.8589
19.9583
21.1091
22.3078
23.5441
24.8107
26.1128
27.4555
28.8425
30.2763
31.7583
33.2891
34.8696
36.5
38.181
39.9129
41.6961
43.5309
45.4176
47.3565
49.3478
51.3917
53.4883
55.6375
57.8394
60.0939
62.4008
64.7597
67.1704
69.6322
72.1448
74.7073
77.319
79.979
82.6863
85.4397
88.2379
91.0797
93.9635
96.8876
99.8504
102.85
105.885
108.952
112.05
115.176
118.329
121.505
124.702
127.919
131.151
134.398
137.656
140.923
144.198
147.478
150.763
154.05
157.339
160.626
163.903
167.157
170.381
173.568
176.714
179.813
182.86
185.85
188.778
191.638
194.427
197.139
199.769
202.313
204.767
207.125
209.384
211.539
213.587
215.525
217.348
219.053
220.638
222.101
223.437
224.647
225.727
226.676
227.492
228.176
228.726
229.141
229.422
229.57
229.584
229.465
229.215
228.835
228.327
227.693
226.935
226.056
225.058
223.946
222.721
221.388
219.951
218.413
216.778
215.051
213.236
211.338
209.361
207.308
205.188
203.004
200.755
198.457
196.105
193.707
191.281
188.819
186.339
183.842
181.34
178.854
176.425
174.102
171.849
169.634
167.444
165.276
163.129
161.009
158.922
156.878
154.896
153.01
151.295
149.866
149.189
3.28273
1.54505
1.29631
1.27873
1.34264
1.45306
1.59821
1.77284
1.9738
2.1986
2.44501
2.71108
2.99515
3.29595
3.61262
3.94467
4.29196
4.65465
5.03316
5.4282
5.84069
6.27181
6.72299
7.19585
7.69223
8.21411
8.76359
9.34282
9.95398
10.5992
11.2806
11.9999
12.7579
13.5546
14.3888
15.2602
16.1701
17.12
18.1117
19.1468
20.2276
21.3544
22.5264
23.7411
24.997
26.2948
27.6365
29.024
30.4589
31.9426
33.476
35.0599
36.6952
38.3826
40.1226
41.916
43.7634
45.6653
47.6222
49.6347
51.7032
53.8281
56.0097
58.2483
60.544
62.8969
65.307
67.7742
70.2982
72.8787
75.5151
78.2069
80.9532
83.7533
86.606
89.5101
92.4643
95.4671
98.5169
101.612
104.75
107.929
111.148
114.403
117.692
121.013
124.364
127.741
131.142
134.563
138.004
141.46
144.928
148.408
151.895
155.387
158.882
162.376
165.86
169.326
172.764
176.169
179.535
182.855
186.125
189.338
192.49
195.573
198.584
201.516
204.365
207.125
209.791
212.357
214.821
217.176
219.419
221.545
223.55
225.432
227.186
228.809
230.3
231.654
232.871
233.949
234.885
235.679
236.33
236.837
237.2
237.419
237.495
237.429
237.222
236.874
236.39
235.769
235.015
234.13
233.118
231.981
230.724
229.349
227.861
226.264
224.563
222.762
220.866
218.877
216.805
214.653
212.421
210.123
207.761
205.327
202.853
200.332
197.77
195.175
192.55
189.905
187.244
184.579
181.923
179.301
176.737
174.222
171.742
169.29
166.866
164.471
162.112
159.797
157.539
155.363
153.305
151.441
149.865
148.838
4.12344
1.89608
1.55605
1.50776
1.55842
1.66214
1.80319
1.97464
2.17264
2.39453
2.63817
2.90176
3.18383
3.48325
3.79928
4.1315
4.47981
4.84443
5.22581
5.62463
6.04178
6.47836
6.93562
7.41498
7.91799
8.44627
9.00153
9.58552
10.2
10.8467
11.5273
12.2435
12.9966
13.7875
14.6169
15.4854
16.394
17.3438
18.336
19.372
20.4528
21.5794
22.752
23.9705
25.2348
26.5457
27.9043
29.312
30.77
32.2797
33.8422
35.4587
37.1303
38.858
40.6429
42.4858
44.3879
46.35
48.3731
50.458
52.6055
54.8164
57.0913
59.4308
61.8355
64.3057
66.8416
69.4435
72.1113
74.8448
77.6438
80.5078
83.4361
86.4278
89.482
92.5974
95.7727
99.0062
102.296
105.641
109.037
112.484
115.978
119.518
123.099
126.72
130.377
134.067
137.787
141.534
145.305
149.095
152.902
156.722
160.551
164.387
168.224
172.057
175.873
179.663
183.422
187.143
190.82
194.445
198.013
201.517
204.951
208.309
211.584
214.771
217.863
220.854
223.74
226.514
229.171
231.706
234.114
236.392
238.533
240.536
242.395
244.109
245.673
247.086
248.345
249.448
250.394
251.182
251.812
252.282
252.593
252.745
252.739
252.576
252.259
251.788
251.167
250.397
249.482
248.424
247.228
245.898
244.437
242.85
241.142
239.315
237.378
235.335
233.19
230.946
228.617
226.203
223.701
221.136
218.507
215.815
213.075
210.288
207.461
204.6
201.712
198.802
195.879
192.95
190.028
187.128
184.265
181.44
178.649
175.889
173.163
170.474
167.83
165.24
162.722
160.3
158.012
155.924
154.104
152.696
4.84427
2.20678
1.78692
1.71083
1.74884
1.84559
1.98185
2.14919
2.3431
2.56072
2.79993
3.05906
3.33679
3.63212
3.94439
4.27324
4.61862
4.98075
5.36009
5.75729
6.17321
6.60889
7.0655
7.54437
8.04692
8.57468
9.12922
9.71219
10.3252
10.97
11.6483
12.3617
13.1117
13.8997
14.727
15.5947
16.5039
17.4558
18.4515
19.4921
20.579
21.713
22.8953
24.1264
25.4073
26.739
28.1226
29.5594
31.051
32.5987
34.2041
35.8686
37.5937
39.3809
41.2316
43.1472
45.1291
47.1788
49.2976
51.4867
53.7475
56.0811
58.4886
60.971
63.529
66.1636
68.8752
71.6643
74.5311
77.4757
80.498
83.5975
86.7738
90.026
93.353
96.7536
100.226
103.769
107.38
111.057
114.798
118.599
122.458
126.373
130.338
134.352
138.41
142.509
146.645
150.814
155.012
159.234
163.477
167.736
172.006
176.282
180.561
184.825
189.066
193.278
197.451
201.581
205.658
209.677
213.628
217.507
221.304
225.013
228.627
232.139
235.542
238.83
241.996
245.034
247.938
250.703
253.324
255.794
258.11
260.268
262.262
264.091
265.751
267.239
268.553
269.692
270.654
271.438
272.044
272.471
272.719
272.791
272.686
272.406
271.955
271.333
270.544
269.592
268.48
267.211
265.789
264.22
262.51
260.662
258.681
256.571
254.344
252.003
249.552
246.991
244.345
241.611
238.792
235.902
232.945
229.926
226.854
223.735
220.576
217.383
214.164
210.924
207.671
204.413
201.161
197.925
194.718
191.543
188.402
185.298
182.232
179.212
176.246
173.345
170.527
167.819
165.255
162.89
160.769
158.973
5.45926
2.47637
1.98573
1.88391
1.90944
1.99865
2.1292
2.29129
2.47979
2.69162
2.92465
3.17729
3.44836
3.73697
4.04256
4.36485
4.70383
5.05974
5.43306
5.82445
6.23477
6.66504
7.11641
7.59019
8.08779
8.61068
9.16046
9.73873
10.3472
10.9874
11.6613
12.3704
13.1165
13.9011
14.7257
15.5919
16.5009
17.4541
18.453
19.4987
20.5928
21.7366
22.9315
24.1787
25.4797
26.8359
28.2489
29.7202
31.2516
32.845
34.5022
36.2251
38.0156
39.8758
41.8075
43.8127
45.8933
48.0513
50.2884
52.6066
55.0076
57.4929
60.0643
62.723
65.4703
68.3075
71.2354
74.2548
77.3661
80.5697
83.8655
87.2533
90.7326
94.3026
97.9621
101.71
105.543
109.462
113.462
117.541
121.697
125.925
130.223
134.587
139.014
143.498
148.035
152.622
157.253
161.924
166.629
171.364
176.123
180.9
185.69
190.486
195.282
200.053
204.795
209.5
214.16
218.767
223.313
227.789
232.188
236.5
240.717
244.831
248.835
252.72
256.479
260.105
263.589
266.927
270.11
273.133
275.99
278.676
281.184
283.511
285.653
287.606
289.366
290.932
292.3
293.47
294.44
295.21
295.778
296.146
296.314
296.284
296.056
295.634
295.019
294.216
293.227
292.058
290.713
289.194
287.506
285.657
283.655
281.503
279.206
276.763
274.2
271.515
268.714
265.802
262.792
259.69
256.501
253.236
249.9
246.501
243.047
239.546
236.003
232.428
228.826
225.205
221.573
217.937
214.307
210.692
207.102
203.544
200.022
196.54
193.105
189.722
186.403
183.16
180.011
176.982
174.104
171.424
168.963
166.775
5.96386
2.70229
2.15046
2.02498
2.03812
2.11911
2.24294
2.39859
2.58036
2.78496
3.01022
3.25462
3.51708
3.79684
4.09342
4.40664
4.73656
5.08346
5.44785
5.83043
6.23207
6.65379
7.09678
7.56234
8.05186
8.56686
9.10892
9.67968
10.2808
10.9141
11.5812
12.284
13.0243
13.8038
14.6242
15.4873
16.3947
17.3481
18.3492
19.3996
20.5011
21.6553
22.8642
24.1296
25.4532
26.8371
28.2832
29.7937
31.3708
33.0167
34.734
36.5249
38.3921
40.3379
42.365
44.4759
46.6732
48.9593
51.3366
53.8077
56.3747
59.0398
61.8053
64.6728
67.6442
70.721
73.9046
77.1958
80.5955
84.1042
87.722
91.4487
95.2837
99.2261
103.275
107.428
111.683
116.038
120.491
125.037
129.674
134.397
139.202
144.085
149.041
154.066
159.153
164.298
169.495
174.738
180.021
185.338
190.683
196.048
201.427
206.814
212.182
217.521
222.822
228.077
233.278
238.416
243.48
248.461
253.35
258.136
262.811
267.365
271.79
276.077
280.217
284.203
288.025
291.677
295.153
298.444
301.545
304.449
307.152
309.647
311.931
314
315.851
317.482
318.89
320.074
321.033
321.766
322.274
322.557
322.617
322.455
322.074
321.477
320.666
319.645
318.421
316.998
315.381
313.573
311.578
309.409
307.073
304.576
301.924
299.121
296.181
293.112
289.919
286.61
283.196
279.684
276.082
272.399
268.643
264.822
260.944
257.018
253.051
249.051
245.027
240.986
236.935
232.882
228.837
224.808
220.805
216.835
212.905
209.02
205.188
201.418
197.721
194.11
190.603
187.225
184.004
180.976
178.151
175.567
6.35807
2.88383
2.28072
2.13384
2.13473
2.20688
2.32302
2.4711
2.64496
2.84109
3.05727
3.29205
3.54443
3.81376
4.09967
4.40207
4.72108
5.05705
5.41054
5.78227
6.17314
6.5842
7.01665
7.47179
7.95104
8.45594
8.98808
9.54913
10.1409
10.765
11.4235
12.1182
12.8511
13.624
14.439
15.298
16.2031
17.1562
18.1595
19.2149
20.3248
21.4912
22.7164
24.0029
25.353
26.7692
28.2542
29.8106
31.4413
33.1491
34.9371
36.8083
38.7659
40.813
42.953
45.189
47.5242
49.9618
52.5049
55.1566
57.9196
60.7969
63.7909
66.9041
70.1387
73.4965
76.9793
80.5883
84.3246
88.1886
92.1805
96.3002
100.547
104.92
109.417
114.036
118.775
123.631
128.6
133.678
138.862
144.145
149.524
154.992
160.545
166.175
171.877
177.645
183.472
189.351
195.275
201.237
207.229
213.243
219.271
225.295
231.286
237.237
243.142
248.989
254.768
260.471
266.084
271.599
277.003
282.285
287.436
292.445
297.303
301.999
306.526
310.873
315.032
318.996
322.756
326.306
329.639
332.748
335.628
338.273
340.677
342.839
344.755
346.423
347.841
349.009
349.924
350.589
351.001
351.163
351.078
350.747
350.175
349.363
348.315
347.036
345.536
343.818
341.888
339.753
337.418
334.893
332.187
329.307
326.26
323.055
319.702
316.211
312.588
308.844
304.988
301.03
296.977
292.84
288.628
284.35
280.014
275.63
271.205
266.749
262.271
257.777
253.277
248.778
244.29
239.82
235.379
230.975
226.615
222.307
218.059
213.881
209.785
205.785
201.9
198.151
194.563
191.165
187.958
184.975
6.64622
3.02219
2.3777
2.21183
2.20077
2.26357
2.37119
2.51075
2.67571
2.86238
3.06852
3.29271
3.53403
3.79192
4.06613
4.35663
4.66363
4.98752
5.32892
5.68857
6.06742
6.46653
6.88711
7.3305
7.79813
8.29156
8.81245
9.36252
9.94361
10.5576
11.2065
11.8924
12.6174
13.3836
14.1934
15.049
15.9528
16.9074
17.9151
18.9785
20.1004
21.2835
22.5306
23.8447
25.2289
26.6864
28.2204
29.8343
31.5316
33.3161
35.1914
37.1613
39.2298
41.4009
43.6785
46.0667
48.5693
51.1904
53.9337
56.8028
59.8013
62.9325
66.1995
69.6051
73.152
76.8423
80.678
84.6606
88.7911
93.0701
97.4976
102.073
106.796
111.664
116.676
121.829
127.119
132.543
138.097
143.776
149.574
155.486
161.504
167.623
173.835
180.135
186.513
192.964
199.48
206.052
212.672
219.333
226.024
232.736
239.458
246.146
252.791
259.384
265.916
272.375
278.751
285.032
291.205
297.26
303.181
308.958
314.579
320.034
325.312
330.403
335.297
339.984
344.456
348.704
352.721
356.498
360.029
363.309
366.329
369.083
371.568
373.78
375.718
377.38
378.764
379.869
380.695
381.244
381.514
381.508
381.23
380.684
379.872
378.801
377.473
375.896
374.077
372.023
369.741
367.237
364.52
361.599
358.484
355.183
351.705
348.06
344.258
340.309
336.223
332.01
327.68
323.243
318.709
314.089
309.392
304.628
299.807
294.938
290.031
285.094
280.137
275.168
270.196
265.23
260.277
255.349
250.452
245.597
240.792
236.045
231.367
226.767
222.258
217.855
213.575
209.439
205.468
201.685
198.085
194.701
6.83649
3.12019
2.44385
2.2615
2.23898
2.29212
2.3906
2.52094
2.67628
2.85283
3.04832
3.26138
3.49115
3.73717
3.99924
4.27743
4.57201
4.88342
5.21232
5.5595
5.92592
6.31268
6.72103
7.15234
7.60809
8.0899
8.59951
9.13876
9.70961
10.3141
10.9545
11.6329
12.3519
13.114
13.9216
14.7777
15.6849
16.6463
17.6649
18.7439
19.8866
21.0965
22.377
23.7318
25.1649
26.6801
28.2815
29.9733
31.76
33.646
35.636
37.7346
39.9466
42.2769
44.7303
47.3117
50.0258
52.8773
55.8707
59.0104
62.3001
65.7438
69.345
73.1067
77.0319
81.123
85.382
89.8102
94.4086
99.1775
104.117
109.225
114.501
119.942
125.546
131.308
137.226
143.293
149.506
155.857
162.34
168.949
175.673
182.506
189.44
196.466
203.576
210.762
218.016
225.327
232.688
240.088
247.518
254.967
262.381
269.746
277.053
284.292
291.451
298.517
305.478
312.323
319.038
325.611
332.023
338.262
344.319
350.181
355.838
361.279
366.493
371.471
376.204
380.682
384.898
388.845
392.516
395.907
399.008
401.81
404.312
406.513
408.41
410.003
411.289
412.27
412.946
413.318
413.388
413.158
412.633
411.817
410.714
409.332
407.674
405.75
403.565
401.128
398.448
395.533
392.392
389.035
385.472
381.713
377.768
373.648
369.364
364.927
360.348
355.637
350.806
345.865
340.827
335.7
330.497
325.227
319.901
314.529
309.121
303.687
298.235
292.776
287.319
281.872
276.443
271.044
265.682
260.367
255.108
249.916
244.799
239.769
234.84
230.025
225.342
220.809
216.445
212.27
208.272
204.489
6.94035
3.18192
2.48253
2.28625
2.25295
2.29641
2.38545
2.50617
2.65154
2.81771
3.0024
3.2043
3.4226
3.6569
3.9071
4.17331
4.45586
4.75526
5.0722
5.40752
5.76225
6.13752
6.53466
6.9551
7.40044
7.8724
8.37287
8.90386
9.46753
10.0662
10.7023
11.3786
12.0977
12.8625
13.6763
14.5422
15.4637
16.4443
17.4877
18.598
19.7792
21.0356
22.3716
23.7918
25.301
26.9039
28.6056
30.4114
32.3266
34.3567
36.5073
38.7841
41.1929
43.7393
46.4292
49.2682
52.2619
55.4159
58.7351
62.2245
65.8881
69.7296
73.7527
77.9607
82.3564
86.9421
91.7194
96.6893
101.852
107.207
112.754
118.49
124.414
130.52
136.806
143.266
149.896
156.688
163.637
170.735
177.974
185.348
192.841
200.444
208.151
215.95
223.835
231.794
239.819
247.9
256.027
264.189
272.377
280.527
288.619
296.642
304.587
312.439
320.188
327.818
335.317
342.672
349.873
356.906
363.743
370.376
376.795
382.989
388.946
394.656
400.108
405.292
410.199
414.821
419.149
423.177
426.898
430.307
433.396
436.16
438.597
440.704
442.479
443.923
445.035
445.816
446.267
446.39
446.189
445.667
444.828
443.679
442.224
440.471
438.427
436.1
433.497
430.629
427.505
424.134
420.526
416.693
412.644
408.392
403.948
399.323
394.529
389.577
384.48
379.25
373.897
368.435
362.874
357.226
351.503
345.714
339.873
333.988
328.071
322.132
316.18
310.226
304.278
298.346
292.439
286.566
280.737
274.962
269.25
263.611
258.056
252.596
247.246
242.018
236.93
231.998
227.24
222.67
218.277
214.1
6.97198
3.2124
2.49775
2.29006
2.24692
2.28103
2.36072
2.47191
2.60748
2.76358
2.93796
3.12935
3.33702
3.56063
3.80013
4.05572
4.32779
4.61691
4.92385
5.24955
5.59511
5.96179
6.35103
6.76444
7.20377
7.67097
8.16818
8.6977
9.26202
9.86386
10.5061
11.1919
11.9245
12.7075
13.5446
14.4399
15.3974
16.4216
17.5173
18.6892
19.9426
21.2829
22.7156
24.2464
25.8813
27.6261
29.4868
31.4699
33.5819
35.8294
38.219
40.7575
43.4516
46.3078
49.3328
52.5329
55.9143
59.483
63.245
67.2053
71.3671
75.7327
80.3057
85.089
90.085
95.2952
100.72
106.36
112.213
118.279
124.554
131.034
137.717
144.596
151.665
158.919
166.349
173.949
181.709
189.621
197.679
205.877
214.185
222.598
231.109
239.706
248.382
257.126
265.927
274.778
283.665
292.578
301.438
310.228
318.936
327.549
336.054
344.438
352.687
360.787
368.724
376.483
384.054
391.42
398.563
405.473
412.135
418.541
424.677
430.534
436.101
441.369
446.329
450.972
455.292
459.281
462.935
466.246
469.211
471.825
474.086
475.992
477.542
478.736
479.576
480.062
480.197
479.984
479.428
478.532
477.303
475.747
473.871
471.682
469.188
466.4
463.325
459.974
456.358
452.486
448.371
444.024
439.457
434.681
429.709
424.554
419.227
413.742
408.111
402.346
396.461
390.466
384.375
378.2
371.953
365.644
359.286
352.89
346.465
340.024
333.576
327.131
320.698
314.288
307.909
301.571
295.283
289.056
282.899
276.823
270.838
264.957
259.193
253.56
248.073
242.749
237.601
232.645
227.865
223.305
6.94787
3.21723
2.49385
2.27733
2.22565
2.25127
2.32236
2.42483
2.5516
2.69883
2.86439
3.04704
3.24614
3.46144
3.69296
3.94101
4.20608
4.48887
4.7903
5.11146
5.45364
5.81833
6.20723
6.62222
7.06542
7.53915
8.04599
8.58873
9.17045
9.79444
10.4643
11.1839
11.9575
12.7895
13.6847
14.6481
15.6848
16.8006
18.0014
19.2934
20.6833
22.1779
23.7846
25.5106
27.3636
29.3495
31.4759
33.7503
36.1806
38.7745
41.5397
44.4836
47.6136
50.9368
54.4598
58.1893
62.1314
66.2922
70.6778
75.296
80.1445
85.22
90.5273
96.0684
101.844
107.854
114.097
120.571
127.273
134.198
141.342
148.7
156.263
164.026
171.979
180.115
188.424
196.895
205.519
214.286
223.185
232.204
241.328
250.546
259.846
269.219
278.655
288.145
297.679
307.251
316.821
326.315
335.722
345.029
354.22
363.283
372.203
380.966
389.558
397.966
406.174
414.17
421.94
429.47
436.747
443.756
450.487
456.929
463.069
468.9
474.411
479.593
484.438
488.939
493.089
496.882
500.314
503.379
506.074
508.397
510.344
511.916
513.113
513.935
514.385
514.464
514.176
513.526
512.518
511.158
509.453
507.41
505.036
502.341
499.334
496.024
492.422
488.538
484.384
479.972
475.313
470.42
465.305
459.981
454.462
448.759
442.887
436.858
430.686
424.383
417.963
411.438
404.821
398.125
391.361
384.541
377.678
370.782
363.865
356.937
350.008
343.089
336.19
329.319
322.486
315.702
308.975
302.315
295.733
289.239
282.843
276.558
270.398
264.375
258.505
252.803
247.281
241.953
236.802
231.877
6.88348
3.20172
2.47498
2.25227
2.19384
2.2125
2.27663
2.37226
2.49244
2.63346
2.7933
2.97084
3.16556
3.37737
3.60646
3.85332
4.11866
4.40347
4.70895
5.03655
5.38798
5.76517
6.17036
6.60601
7.07492
7.58017
8.12514
8.7136
9.34963
10.0377
10.7824
11.5892
12.4636
13.412
14.4408
15.5565
16.7657
18.0758
19.4948
21.031
22.6931
24.49
26.4311
28.5268
30.7892
33.2186
35.8243
38.6162
41.6031
44.7931
48.1942
51.8136
55.658
59.7337
64.0461
68.6002
73.4003
78.45
83.7522
89.3089
95.1189
101.18
107.491
114.051
120.856
127.902
135.186
142.701
150.442
158.4
166.57
174.94
183.503
192.249
201.167
210.246
219.475
228.843
238.338
247.948
257.661
267.466
277.35
287.301
297.308
307.364
317.457
327.585
337.726
347.801
357.774
367.633
377.364
386.954
396.389
405.655
414.738
423.625
432.302
440.757
448.975
456.945
464.654
472.089
479.238
486.09
492.634
498.858
504.755
510.315
515.529
520.39
524.89
529.025
532.787
536.172
539.177
541.797
544.031
545.877
547.334
548.401
549.081
549.376
549.286
548.818
547.974
546.76
545.181
543.246
540.96
538.332
535.371
532.087
528.488
524.587
520.393
515.919
511.176
506.177
500.933
495.459
489.767
483.871
477.783
471.518
465.089
458.509
451.792
444.951
437.999
430.949
423.815
416.608
409.342
402.027
394.676
387.3
379.91
372.517
365.131
357.763
350.421
343.115
335.855
328.65
321.509
314.443
307.461
300.574
293.793
287.128
280.595
274.205
267.973
261.913
256.038
250.358
244.858
239.59
6.81178
3.17601
2.44971
2.22451
2.16302
2.17872
2.24037
2.33427
2.45372
2.59523
2.75696
2.93806
3.13827
3.3578
3.59725
3.85753
4.1399
4.44591
4.77749
5.13686
5.52663
5.94976
6.40961
6.90995
7.455
8.04941
8.69821
9.40715
10.1826
11.0313
11.9594
12.9749
14.0864
15.3036
16.6377
18.0968
19.6865
21.4186
23.3041
25.3538
27.5787
29.9895
32.597
35.4115
38.443
41.6981
45.1847
48.9104
52.882
57.1055
61.586
66.3274
71.3328
76.6042
82.1426
87.9482
94.02
100.356
106.955
113.811
120.921
128.277
135.874
143.705
151.762
160.038
168.523
177.21
186.087
195.146
204.375
213.764
223.303
232.979
242.781
252.699
262.719
272.831
283.024
293.286
303.607
313.976
324.383
334.822
345.279
355.756
366.235
376.634
386.904
397.044
407.04
416.877
426.545
436.029
445.318
454.398
463.259
471.887
480.271
488.399
496.26
503.843
511.137
518.13
524.813
531.175
537.209
542.903
548.251
553.245
557.878
562.143
566.035
569.548
572.679
575.423
577.779
579.743
581.315
582.493
583.279
583.673
583.677
583.295
582.528
581.383
579.865
577.978
575.73
573.128
570.181
566.896
563.284
559.355
555.118
550.585
545.767
540.677
535.327
529.728
523.895
517.84
511.577
505.118
498.479
491.671
484.709
477.606
470.376
463.032
455.587
448.053
440.445
432.774
425.052
417.291
409.502
401.698
393.888
386.083
378.293
370.527
362.796
355.109
347.473
339.9
332.398
324.976
317.644
310.412
303.291
296.293
289.43
282.715
276.162
269.783
263.591
257.597
251.785
246.21
6.75555
3.14879
2.42669
2.20436
2.14589
2.16558
2.23274
2.3341
2.46335
2.61738
2.79482
2.99534
3.21931
3.46769
3.74195
4.04407
4.37649
4.74217
5.14463
5.58795
6.07673
6.61633
7.2127
7.87237
8.60299
9.41286
10.3096
11.3034
12.4065
13.6317
14.983
16.4747
18.1203
19.9335
21.9279
24.1158
26.5089
29.1195
31.9598
35.0411
38.374
41.9678
45.8306
49.9693
54.3889
59.0925
64.0819
69.3576
74.919
80.7641
86.8897
93.2914
99.9637
106.9
114.094
121.537
129.221
137.137
145.276
153.628
162.183
170.93
179.86
188.962
198.225
207.64
217.194
226.879
236.684
246.599
256.613
266.717
276.9
287.153
297.466
307.828
318.232
328.67
339.133
349.61
360.1
370.592
381.072
391.571
402.03
412.376
422.571
432.618
442.501
452.213
461.743
471.079
480.212
489.129
497.822
506.279
514.491
522.447
530.136
537.55
544.679
551.513
558.043
564.26
570.155
575.72
580.948
585.831
590.362
594.535
598.345
601.785
604.852
607.541
609.85
611.775