/*--------------------------------*- C++ -*----------------------------------*\
  =========                 |
  \\      /  F ield         | OpenFOAM: The Open Source CFD Toolbox
   \\    /   O peration     | Website:  https://openfoam.org
    \\  /    A nd           | Version:  12
     \\/     M anipulation  |
\*---------------------------------------------------------------------------*/
FoamFile
{
    format      ascii;
    class       volScalarField;
    location    "0.26";
    object      nut;
}
// * * * * * * * * * * * * * * * * * * * * * * * * * * * * * * * * * * * * * //

dimensions      [0 2 -1 0 0 0 0];

internalField   nonuniform List<scalar> 
12225
(
4.04768e-05
3.83178e-05
3.62504e-05
3.44199e-05
3.29519e-05
3.18976e-05
3.12561e-05
3.09935e-05
3.10578e-05
3.13897e-05
3.19306e-05
3.26266e-05
3.34315e-05
3.43066e-05
3.52227e-05
3.61554e-05
3.71095e-05
3.84909e-05
0.000281048
0.000209266
0.000176267
0.00015744
0.000146272
0.000139688
0.000135794
0.000133431
0.000131916
0.000130859
0.000130045
0.000129358
0.00012874
0.000128162
0.000127623
0.00012708
0.000126683
0.000125737
0.000556048
0.000419908
0.000349816
0.000304738
0.000272451
0.000247988
0.000228773
0.000213309
0.000200682
0.000190283
0.000181669
0.000174504
0.000168516
0.000163486
0.000159239
0.00015559
0.000152452
0.000149395
0.000740308
0.000625822
0.000544118
0.000485002
0.000439776
0.000403657
0.000373851
0.000348617
0.000326869
0.000307911
0.000291267
0.000276591
0.000263613
0.000252105
0.000241869
0.00023269
0.000224413
0.000216758
0.000817069
0.000759142
0.000700547
0.00064858
0.000603902
0.000565591
0.000532483
0.000503526
0.000477895
0.000454982
0.00043434
0.000415634
0.000398608
0.00038305
0.000368781
0.000355618
0.000343417
0.000332082
0.0008421
0.000819688
0.000789925
0.000757608
0.000725557
0.000695169
0.000666974
0.000641029
0.000617191
0.000595259
0.00057503
0.000556318
0.000538957
0.000522802
0.000507723
0.000493591
0.000480304
0.00046791
0.000849261
0.000841808
0.000829742
0.000814189
0.000796483
0.000777765
0.000758855
0.000740264
0.000722281
0.000705051
0.000688634
0.000673039
0.000658245
0.000644214
0.000630899
0.000618247
0.000606218
0.000594937
0.00085112
0.000848748
0.000844481
0.000838237
0.000830247
0.000820898
0.000810603
0.000799728
0.000788562
0.000777324
0.000766168
0.000755202
0.000744495
0.00073409
0.000724009
0.000714263
0.000704865
0.000695967
0.00085156
0.000850665
0.00084917
0.000846887
0.000843742
0.00083976
0.000835036
0.000829697
0.00082388
0.000817712
0.000811308
0.000804761
0.000798149
0.000791533
0.000784958
0.000778462
0.000772082
0.000765954
0.000851652
0.000851133
0.000850468
0.000849564
0.000848347
0.000846773
0.000844827
0.000842521
0.000839886
0.000836961
0.000833794
0.00083043
0.000826912
0.000823281
0.000819571
0.000815816
0.000812047
0.000808363
0.000851668
0.00085123
0.000850778
0.000850278
0.000849698
0.000849007
0.000848183
0.000847212
0.000846089
0.000844816
0.000843401
0.000841856
0.000840197
0.000838438
0.000836596
0.000834687
0.000832732
0.000830787
0.000851669
0.000851245
0.000850835
0.000850429
0.000850014
0.000849575
0.000849101
0.00084858
0.000848003
0.000847366
0.000846665
0.000845902
0.000845079
0.0008442
0.00084327
0.000842295
0.000841285
0.000840273
0.000851668
0.000851244
0.000850843
0.000850459
0.000850088
0.000849726
0.000849365
0.000849001
0.000848629
0.000848243
0.000847841
0.000847421
0.00084698
0.000846519
0.000846038
0.000845538
0.000845024
0.000844514
0.000851667
0.000851242
0.000850839
0.000850458
0.000850096
0.000849751
0.000849421
0.000849102
0.000848793
0.000848491
0.000848195
0.000847902
0.000847611
0.000847321
0.000847032
0.000846742
0.000846454
0.000846181
0.000851666
0.000851239
0.000850835
0.000850452
0.00085009
0.000849746
0.000849419
0.000849108
0.000848812
0.000848528
0.000848257
0.000847996
0.000847746
0.000847505
0.000847272
0.000847048
0.000846832
0.000846638
0.000851665
0.000851236
0.000850831
0.000850447
0.000850083
0.000849737
0.000849409
0.000849098
0.000848801
0.000848519
0.000848251
0.000847994
0.00084775
0.000847517
0.000847294
0.000847082
0.000846881
0.000846703
0.000851664
0.000851235
0.000850828
0.000850442
0.000850077
0.00084973
0.000849401
0.000849088
0.00084879
0.000848507
0.000848237
0.00084798
0.000847735
0.000847502
0.000847279
0.000847066
0.000846866
0.000846688
0.000851663
0.000851234
0.000850826
0.00085044
0.000850073
0.000849725
0.000849395
0.000849081
0.000848782
0.000848498
0.000848227
0.000847969
0.000847722
0.000847488
0.000847264
0.00084705
0.000846848
0.000846669
0.000851663
0.000851233
0.000850825
0.000850439
0.000850072
0.000849724
0.000849393
0.000849078
0.000848779
0.000848494
0.000848222
0.000847963
0.000847716
0.000847481
0.000847256
0.000847041
0.000846838
0.000846658
0.000851664
0.000851234
0.000850826
0.00085044
0.000850074
0.000849726
0.000849396
0.000849081
0.000848782
0.000848497
0.000848225
0.000847965
0.000847717
0.00084748
0.000847253
0.000847037
0.000846831
0.000846648
0.000851664
0.000851235
0.000850829
0.000850443
0.000850078
0.00084973
0.000849399
0.000849082
0.000848779
0.000848489
0.000848209
0.00084794
0.000847679
0.000847427
0.000847182
0.000846944
0.000846715
0.000846505
0.000851665
0.000851237
0.00085083
0.000850442
0.000850068
0.000849706
0.000849351
0.000848999
0.000848647
0.000848293
0.000847934
0.000847569
0.000847198
0.000846818
0.000846432
0.000846038
0.00084564
0.00084525
0.000851664
0.000851228
0.000850794
0.000850348
0.00084987
0.000849345
0.000848761
0.00084811
0.000847388
0.000846592
0.000845727
0.000844795
0.000843804
0.000842759
0.000841669
0.000840541
0.000839384
0.000838222
0.000851634
0.000851073
0.000850343
0.000849363
0.000848079
0.000846467
0.00084453
0.000842291
0.000839784
0.00083705
0.000834132
0.000831071
0.000827905
0.000824668
0.000821388
0.000818091
0.000814801
0.000811566
0.000851287
0.000849596
0.000846721
0.000842577
0.000837262
0.000830978
0.00082397
0.000816468
0.00080867
0.000800733
0.000792777
0.000784894
0.000777148
0.000769585
0.000762233
0.000755114
0.000748241
0.000741667
0.000848318
0.000839425
0.00082616
0.000810016
0.000792355
0.000774222
0.000756314
0.000739034
0.000722581
0.000707035
0.000692407
0.000678669
0.000665776
0.000653673
0.000642304
0.000631614
0.000621554
0.000612137
0.000828548
0.000788842
0.000746032
0.000705698
0.000669457
0.000637491
0.000609432
0.000584722
0.000562823
0.00054328
0.000525724
0.000509856
0.000495434
0.000482264
0.000470188
0.000459074
0.000448817
0.000439369
0.000730725
0.000627344
0.000554503
0.000501053
0.00046031
0.000428337
0.00040262
0.000381453
0.000363691
0.000348559
0.000335511
0.00032415
0.000314177
0.000305364
0.00029753
0.00029053
0.000284246
0.000278595
0.000439249
0.00033847
0.000287933
0.000256866
0.000236359
0.000222507
0.00021299
0.000206309
0.000201503
0.000197957
0.000195269
0.000193175
0.000191498
0.000190115
0.000188946
0.000187932
0.000187036
0.000186209
7.16431e-05
6.90587e-05
6.65522e-05
6.41646e-05
6.19883e-05
6.00784e-05
5.84565e-05
5.71213e-05
5.60572e-05
5.52404e-05
5.46438e-05
5.42396e-05
5.40011e-05
5.39034e-05
5.39239e-05
5.40425e-05
5.42418e-05
5.45055e-05
2.11898e-07
5.47313e-06
9.06892e-06
1.22267e-05
1.54467e-05
1.92725e-05
2.3711e-05
2.89002e-05
3.49935e-05
4.18749e-05
4.91329e-05
5.67757e-05
6.4747e-05
7.29762e-05
8.13926e-05
8.99296e-05
9.85238e-05
0.000107115
0.000115643
0.000124051
0.000132283
0.000140285
0.000148005
0.000155397
0.000162412
0.000169003
0.000175117
0.000180691
0.000185645
0.000189877
0.000193264
0.000195688
0.000197118
0.000197762
0.000198139
0.000198655
0.000198932
4.72739e-05
0.000196588
0.000198371
0.000198589
0.00019826
4.74265e-05
4.73835e-05
4.80992e-05
4.91463e-05
5.02213e-05
5.13079e-05
5.24005e-05
5.34958e-05
5.45919e-05
5.56875e-05
5.67818e-05
5.78741e-05
5.89639e-05
6.0051e-05
6.11349e-05
6.22155e-05
6.32923e-05
6.43653e-05
6.54339e-05
6.6498e-05
6.75571e-05
6.86111e-05
6.96594e-05
7.07018e-05
7.17377e-05
7.27669e-05
7.37889e-05
7.48032e-05
7.58094e-05
7.68072e-05
7.77959e-05
7.87752e-05
7.97445e-05
8.07036e-05
8.16518e-05
8.25888e-05
8.3514e-05
8.44271e-05
8.53277e-05
8.62153e-05
8.70894e-05
8.79498e-05
8.8796e-05
8.96276e-05
9.04442e-05
9.12455e-05
9.2031e-05
9.28005e-05
9.35534e-05
9.42896e-05
9.50085e-05
9.57098e-05
9.63932e-05
9.70586e-05
9.77059e-05
9.83357e-05
9.89492e-05
9.95492e-05
0.000100134
0.000100697
0.000101238
0.000101758
0.000102256
0.000102732
0.000103186
0.000103617
0.000104025
0.000104409
0.00010477
0.000105107
0.00010542
0.000105708
0.000105972
0.000106211
0.000106424
0.000106613
0.000106776
0.000106913
0.000107025
0.000107111
0.000107172
0.000107207
0.000107216
0.0001072
0.000107158
0.000107091
0.000106999
0.000106881
0.000106738
0.000106571
0.000106379
0.000106163
0.000105923
0.000105659
0.000105372
0.000105062
0.000104729
0.000104374
0.000103998
0.0001036
0.000103181
0.000102742
0.000102284
0.000101806
0.000101309
0.000100794
0.000100262
9.97133e-05
9.91482e-05
9.85676e-05
9.79721e-05
9.73625e-05
9.67395e-05
9.61036e-05
9.54559e-05
9.47968e-05
9.41272e-05
9.3448e-05
9.27591e-05
9.20633e-05
9.13588e-05
9.06499e-05
8.99416e-05
8.92897e-05
8.88687e-05
8.84815e-05
8.8094e-05
8.77044e-05
8.73128e-05
8.6919e-05
8.65225e-05
8.61222e-05
8.57148e-05
8.52936e-05
8.48433e-05
8.43234e-05
8.36348e-05
8.23346e-05
8.1439e-07
2.31156e-05
5.10604e-05
7.16224e-05
8.65443e-05
9.73047e-05
0.000106173
0.000114526
0.000123044
0.000132004
0.000141448
0.000151302
0.000161468
0.000171847
0.000182348
0.000192886
0.000203382
0.00021376
0.000223945
0.000233863
0.000243441
0.000252605
0.000261277
0.000269371
0.000276784
0.00028339
0.00028902
0.00029345
0.000296375
0.000297405
0.000296106
0.000292172
0.000285776
0.000278005
0.000270776
0.000265027
0.000257613
0.000244674
0.000254449
0.000265957
0.000264852
0.000262924
0.000257204
0.000260076
0.000267495
0.000274203
0.000280769
0.000287692
0.000294912
0.000302365
0.000310001
0.000317791
0.000325715
0.000333759
0.000341915
0.000350177
0.000358539
0.000366999
0.000375554
0.000384203
0.000392942
0.000401771
0.000410687
0.000419689
0.000428773
0.000437938
0.00044718
0.000456497
0.000465884
0.000475339
0.000484857
0.000494434
0.000504064
0.000513743
0.000523466
0.000533227
0.000543021
0.000552841
0.000562683
0.000572539
0.000582405
0.000592275
0.000602142
0.000612001
0.000621847
0.000631674
0.000641477
0.000651252
0.000660994
0.000670698
0.000680361
0.000689977
0.000699542
0.000709049
0.00071849
0.000727851
0.000737111
0.000746234
0.000755164
0.000763737
0.000771703
0.000779499
0.00078717
0.00079472
0.000802143
0.000809434
0.000816588
0.000823599
0.000830461
0.00083717
0.000843719
0.000850103
0.000856319
0.00086236
0.000868222
0.000873901
0.000879392
0.000884691
0.000889794
0.000894698
0.0008994
0.000903895
0.000908182
0.000912257
0.000916118
0.000919763
0.000923191
0.000926398
0.000929384
0.000932147
0.000934687
0.000937003
0.000939095
0.000940962
0.000942605
0.000944025
0.000945222
0.000946197
0.000946951
0.000947488
0.000947807
0.000947912
0.000947806
0.00094749
0.000946969
0.000946246
0.000945324
0.000944208
0.000942902
0.00094141
0.000939738
0.000937891
0.000935872
0.000933691
0.000931351
0.000928857
0.00092622
0.000923443
0.000920534
0.000917507
0.00091435
0.000911101
0.000907753
0.000904273
0.000900565
0.000896072
0.000889542
0.000882326
0.000874892
0.000867354
0.00085975
0.000852098
0.000844405
0.000836676
0.000828901
0.000821059
0.000813074
0.000804834
0.000795351
0.00077696
1.63287e-06
3.78642e-05
8.20824e-05
0.000115471
0.000139612
0.00015759
0.000171838
0.000184101
0.000195506
0.0002067
0.00021799
0.000229476
0.000241148
0.000252946
0.000264792
0.000276604
0.000288299
0.000299797
0.000311022
0.000321899
0.000332359
0.000342333
0.000351757
0.000360562
0.000368677
0.000376022
0.000382507
0.000388033
0.000392503
0.000395843
0.000398066
0.000399374
0.000400297
0.000401732
0.000404633
0.000409247
0.000415111
0.000421789
0.00043132
0.00044202
0.000451955
0.000462879
0.000474434
0.000487325
0.00050158
0.000516232
0.000531185
0.000546484
0.000562113
0.000578041
0.00059424
0.000610685
0.00062736
0.000644251
0.000661347
0.00067864
0.000696125
0.000713796
0.000731648
0.000749677
0.000767879
0.000786249
0.000804782
0.000823474
0.000842318
0.000861308
0.000880437
0.000899698
0.000919081
0.000938579
0.000958182
0.000977879
0.000997659
0.00101751
0.00103743
0.00105739
0.00107739
0.00109741
0.00111745
0.00113748
0.0011575
0.0011775
0.00119745
0.00121735
0.00123719
0.00125696
0.00127663
0.00129621
0.00131568
0.00133502
0.00135423
0.00137329
0.00139218
0.00141089
0.00142939
0.00144766
0.00146565
0.00148333
0.00150064
0.00151728
0.00153347
0.00154937
0.001565
0.00158038
0.00159548
0.00161031
0.00162484
0.00163907
0.00165299
0.00166659
0.00167984
0.00169275
0.00170531
0.0017175
0.00172931
0.00174074
0.00175177
0.0017624
0.00177262
0.00178243
0.0017918
0.00180075
0.00180926
0.00181733
0.00182495
0.00183212
0.00183884
0.0018451
0.00185089
0.00185622
0.00186109
0.00186549
0.00186942
0.00187288
0.00187588
0.00187841
0.00188048
0.00188208
0.00188323
0.00188392
0.00188416
0.00188396
0.00188332
0.00188224
0.00188073
0.0018788
0.00187646
0.00187372
0.00187058
0.00186706
0.00186316
0.00185889
0.00185427
0.00184931
0.00184402
0.00183841
0.0018325
0.00182631
0.00181984
0.00181313
0.00180617
0.00179899
0.00179161
0.00178394
0.00177583
0.00176677
0.00175588
0.00174402
0.00173169
0.00171909
0.00170631
0.00169339
0.00168036
0.00166722
0.00165395
0.00164048
0.00162661
0.00161183
0.00159419
0.00156509
2.61556e-06
4.87498e-05
0.000104878
0.000148031
0.000180119
0.000204384
0.00022351
0.000239502
0.000253751
0.000267144
0.000280195
0.00029316
0.000306134
0.000319125
0.000332094
0.000344981
0.00035772
0.000370247
0.000382502
0.000394433
0.000405996
0.000417155
0.000427886
0.000438172
0.000448005
0.000457384
0.000466321
0.000474842
0.000482998
0.000490887
0.000498675
0.000506631
0.000515149
0.000524698
0.000535666
0.000548147
0.000562002
0.000577058
0.000593299
0.000610453
0.000628277
0.000647006
0.000666575
0.000686908
0.000707936
0.00072945
0.000751355
0.000773617
0.000796217
0.000819139
0.000842369
0.000865895
0.000889705
0.00091379
0.00093814
0.00096275
0.000987613
0.00101272
0.00103807
0.00106366
0.00108947
0.0011155
0.00114175
0.0011682
0.00119485
0.00122169
0.0012487
0.00127587
0.0013032
0.00133066
0.00135824
0.00138593
0.00141372
0.00144158
0.0014695
0.00149745
0.00152544
0.00155342
0.00158139
0.00160933
0.00163722
0.00166504
0.00169278
0.0017204
0.00174791
0.00177528
0.00180249
0.00182952
0.00185636
0.001883
0.0019094
0.00193555
0.00196144
0.00198703
0.0020123
0.00203722
0.00206176
0.00208589
0.00210949
0.00213247
0.002155
0.00217715
0.00219893
0.00222035
0.00224138
0.00226203
0.00228227
0.00230208
0.00232147
0.0023404
0.00235886
0.00237685
0.00239434
0.00241133
0.00242779
0.00244373
0.00245912
0.00247396
0.00248823
0.00250193
0.00251504
0.00252756
0.00253948
0.00255079
0.00256148
0.00257155
0.002581
0.00258981
0.00259799
0.00260552
0.00261241
0.00261866
0.00262427
0.00262922
0.00263354
0.00263721
0.00264023
0.00264262
0.00264437
0.0026455
0.00264599
0.00264587
0.00264513
0.00264379
0.00264185
0.00263933
0.00263623
0.00263256
0.00262834
0.00262357
0.00261828
0.00261248
0.00260617
0.00259938
0.00259213
0.00258442
0.0025763
0.00256776
0.00255884
0.00254955
0.00253993
0.00252996
0.00251966
0.00250897
0.00249776
0.00248568
0.00247227
0.00245793
0.00244299
0.00242766
0.00241206
0.00239625
0.00238026
0.00236411
0.00234778
0.00233116
0.00231399
0.00229556
0.00227373
0.00224186
3.59736e-06
5.76395e-05
0.000123026
0.000174531
0.000213462
0.000243182
0.000266593
0.000285911
0.000302726
0.000318111
0.000332743
0.000347015
0.000361125
0.000375155
0.000389117
0.000402991
0.00041674
0.000430327
0.000443719
0.000456892
0.000469837
0.000482554
0.000495059
0.000507381
0.000519562
0.000531656
0.000543732
0.000555876
0.000568194
0.000580822
0.00059393
0.000607727
0.000622446
0.000638315
0.00065549
0.000673999
0.000693768
0.000714678
0.000736605
0.000759417
0.000783031
0.000807446
0.000832612
0.000858443
0.000884853
0.000911748
0.000939062
0.000966759
0.000994817
0.00102322
0.00105197
0.00108104
0.00111043
0.00114013
0.00117014
0.00120045
0.00123105
0.00126193
0.00129309
0.00132452
0.0013562
0.00138814
0.00142031
0.00145271
0.00148533
0.00151815
0.00155116
0.00158434
0.00161768
0.00165116
0.00168476
0.00171846
0.00175225
0.00178609
0.00181998
0.00185388
0.00188778
0.00192165
0.00195548
0.00198923
0.0020229
0.00205644
0.00208985
0.0021231
0.00215617
0.00218904
0.00222169
0.0022541
0.00228624
0.0023181
0.00234966
0.00238089
0.00241177
0.00244229
0.00247241
0.00250211
0.00253137
0.00256017
0.00258832
0.00261593
0.00264305
0.00266974
0.00269599
0.00272181
0.00274717
0.00277208
0.0027965
0.00282042
0.00284383
0.00286671
0.00288904
0.0029108
0.00293199
0.00295258
0.00297256
0.00299192
0.00301064
0.0030287
0.00304611
0.00306283
0.00307887
0.00309421
0.00310884
0.00312276
0.00313595
0.00314841
0.00316014
0.00317111
0.00318134
0.00319081
0.00319952
0.00320747
0.00321466
0.00322108
0.00322674
0.00323164
0.00323577
0.00323914
0.00324176
0.00324363
0.00324475
0.00324513
0.00324478
0.00324371
0.00324192
0.00323942
0.00323623
0.00323236
0.00322782
0.00322263
0.00321679
0.00321033
0.00320327
0.00319562
0.00318739
0.00317862
0.00316932
0.00315952
0.00314924
0.0031385
0.00312732
0.00311571
0.00310368
0.00309119
0.00307814
0.00306435
0.00304957
0.00303397
0.00301776
0.00300109
0.00298409
0.00296682
0.00294934
0.00293166
0.00291378
0.00289562
0.00287689
0.00285691
0.00283378
0.00280306
4.51864e-06
6.48428e-05
0.00013805
0.000196664
0.000241536
0.000276076
0.000303329
0.000325667
0.000344834
0.000362056
0.000378146
0.000393617
0.000408767
0.000423754
0.00043865
0.000453479
0.000468242
0.000482932
0.000497547
0.00051209
0.000526581
0.000541048
0.000555538
0.000570105
0.00058482
0.000599761
0.000615018
0.00063069
0.000646889
0.000663735
0.000681359
0.000699897
0.00071948
0.000740213
0.000762152
0.000785292
0.000809576
0.000834917
0.000861215
0.000888374
0.000916324
0.000945014
0.000974393
0.00100439
0.00103494
0.00106598
0.00109745
0.00112933
0.0011616
0.00119423
0.00122723
0.00126057
0.00129425
0.00132827
0.00136261
0.00139728
0.00143225
0.00146752
0.00150309
0.00153893
0.00157505
0.00161142
0.00164805
0.0016849
0.00172198
0.00175925
0.00179671
0.00183434
0.00187212
0.00191003
0.00194804
0.00198614
0.00202431
0.00206251
0.00210073
0.00213894
0.00217712
0.00221525
0.00225329
0.00229122
0.00232902
0.00236666
0.00240412
0.00244137
0.0024784
0.00251518
0.00255168
0.00258788
0.00262378
0.00265933
0.00269453
0.00272935
0.00276377
0.00279778
0.00283134
0.00286444
0.00289706
0.00292916
0.00296063
0.00299155
0.00302199
0.00305195
0.00308144
0.00311046
0.00313898
0.003167
0.0031945
0.00322145
0.00324785
0.00327366
0.00329889
0.0033235
0.00334748
0.00337081
0.00339348
0.00341547
0.00343677
0.00345736
0.00347723
0.00349636
0.00351474
0.00353236
0.00354921
0.00356527
0.00358054
0.00359502
0.00360869
0.00362154
0.00363356
0.00364476
0.00365513
0.00366466
0.00367335
0.0036812
0.00368821
0.00369439
0.00369971
0.0037042
0.00370785
0.00371068
0.00371267
0.00371385
0.00371421
0.00371376
0.00371252
0.0037105
0.0037077
0.00370413
0.00369981
0.00369476
0.00368899
0.00368251
0.00367535
0.00366752
0.00365904
0.00364993
0.00364022
0.00362993
0.00361909
0.00360771
0.00359582
0.00358343
0.00357055
0.00355716
0.00354322
0.0035286
0.00351321
0.0034971
0.0034804
0.00346322
0.00344567
0.00342783
0.00340975
0.00339147
0.00337301
0.0033543
0.00333513
0.00331491
0.00329215
0.00326399
5.30855e-06
7.0877e-05
0.000150523
0.000215153
0.000265195
0.000304028
0.00033477
0.000359898
0.000381272
0.000400236
0.000417719
0.000434338
0.000450485
0.000466393
0.000482195
0.000497963
0.000513736
0.00052954
0.000545398
0.000561339
0.000577402
0.000593635
0.000610098
0.000626859
0.000643998
0.000661597
0.000679746
0.000698535
0.000718058
0.000738408
0.000759674
0.00078194
0.000805271
0.000829711
0.000855274
0.000881936
0.000909647
0.000938337
0.00096793
0.000998348
0.00102953
0.00106141
0.00109394
0.00112706
0.00116072
0.00119487
0.00122947
0.0012645
0.00129992
0.00133572
0.0013719
0.00140843
0.00144531
0.00148254
0.0015201
0.00155798
0.00159618
0.00163468
0.00167348
0.00171256
0.0017519
0.00179151
0.00183135
0.00187142
0.00191171
0.00195218
0.00199283
0.00203364
0.00207458
0.00211564
0.00215679
0.00219801
0.00223927
0.00228056
0.00232184
0.00236309
0.00240428
0.0024454
0.0024864
0.00252727
0.00256798
0.0026085
0.0026488
0.00268887
0.00272868
0.00276819
0.0028074
0.00284628
0.00288481
0.00292297
0.00296074
0.0029981
0.00303503
0.00307151
0.00310754
0.00314308
0.00317813
0.00321258
0.00324645
0.0032798
0.00331266
0.00334504
0.00337694
0.00340834
0.00343923
0.0034696
0.00349943
0.0035287
0.00355739
0.00358548
0.00361295
0.00363978
0.00366596
0.00369146
0.00371628
0.00374039
0.00376378
0.00378642
0.00380831
0.00382943
0.00384976
0.0038693
0.00388802
0.00390592
0.003923
0.00393923
0.00395462
0.00396914
0.0039828
0.00399558
0.00400749
0.00401851
0.00402864
0.00403788
0.00404624
0.00405371
0.00406028
0.00406595
0.00407074
0.00407465
0.00407768
0.00407983
0.00408111
0.00408152
0.00408109
0.00407982
0.00407771
0.00407478
0.00407104
0.00406652
0.0040612
0.00405512
0.0040483
0.00404074
0.00403249
0.00402355
0.00401394
0.00400371
0.00399285
0.00398141
0.00396939
0.00395682
0.00394371
0.00393006
0.00391584
0.003901
0.0038855
0.00386935
0.00385264
0.00383546
0.00381789
0.00380001
0.00378189
0.00376359
0.00374513
0.00372651
0.00370757
0.00368786
0.00366625
0.00364091
5.98249e-06
7.57627e-05
0.000160652
0.000230364
0.000284907
0.000327571
0.000361497
0.000389224
0.00041269
0.000433331
0.00045217
0.000469916
0.000487042
0.000503851
0.000520537
0.000537218
0.000553972
0.000570853
0.000587908
0.000605184
0.000622733
0.000640613
0.000658889
0.000677632
0.000696919
0.000716825
0.000737428
0.000758803
0.000781022
0.00080415
0.000828245
0.000853351
0.0008795
0.000906703
0.000934953
0.000964218
0.000994453
0.0010256
0.00105759
0.00109037
0.00112387
0.00115804
0.00119284
0.0012282
0.00126409
0.00130047
0.0013373
0.00137456
0.00141222
0.00145026
0.00148868
0.00152746
0.00156659
0.00160605
0.00164585
0.00168597
0.00172639
0.00176712
0.00180813
0.00184942
0.00189096
0.00193276
0.00197479
0.00201703
0.00205948
0.00210211
0.00214491
0.00218785
0.00223092
0.00227409
0.00231735
0.00236066
0.00240402
0.00244738
0.00249073
0.00253404
0.00257728
0.00262043
0.00266346
0.00270634
0.00274904
0.00279155
0.00283383
0.00287585
0.00291759
0.00295903
0.00300014
0.0030409
0.0030813
0.0031213
0.0031609
0.00320008
0.00323881
0.00327709
0.0033149
0.00335222
0.00338902
0.00342524
0.00346094
0.00349614
0.00353086
0.00356511
0.00359887
0.00363215
0.00366492
0.00369716
0.00372886
0.00375999
0.00379054
0.00382048
0.0038498
0.00387847
0.00390648
0.0039338
0.00396043
0.00398633
0.0040115
0.00403592
0.00405956
0.00408241
0.00410445
0.00412568
0.00414607
0.00416562
0.00418432
0.00420215
0.00421911
0.00423519
0.00425037
0.00426465
0.00427801
0.00429046
0.004302
0.00431262
0.00432231
0.00433109
0.00433893
0.00434584
0.00435183
0.0043569
0.00436106
0.00436431
0.00436663
0.00436806
0.0043686
0.00436828
0.00436706
0.00436497
0.00436203
0.00435827
0.00435367
0.00434827
0.00434208
0.00433513
0.00432743
0.00431899
0.00430986
0.00430003
0.00428955
0.00427843
0.0042667
0.00425436
0.00424145
0.00422796
0.00421389
0.00419923
0.00418395
0.00416808
0.00415168
0.00413481
0.00411755
0.00409997
0.00408215
0.00406418
0.0040461
0.00402793
0.00400959
0.00399076
0.0039706
0.00394788
6.53545e-06
7.9586e-05
0.000168634
0.000242578
0.000301005
0.000347072
0.000383894
0.000414035
0.000439484
0.000461741
0.000481905
0.000500758
0.000518845
0.000536533
0.00055407
0.000571618
0.000589289
0.000607165
0.000625311
0.000643788
0.000662656
0.000681976
0.000701812
0.000722232
0.000743303
0.000765089
0.000787654
0.000811056
0.000835345
0.000860565
0.00088675
0.000913922
0.000942091
0.000971251
0.00100138
0.00103246
0.00106443
0.00109725
0.00113086
0.0011652
0.00120024
0.00123591
0.00127217
0.00130898
0.0013463
0.0013841
0.00142234
0.00146099
0.00150005
0.00153949
0.00157929
0.00161944
0.00165994
0.00170077
0.00174191
0.00178337
0.00182513
0.00186717
0.0019095
0.00195209
0.00199493
0.00203801
0.00208132
0.00212484
0.00216856
0.00221247
0.00225653
0.00230074
0.00234508
0.00238952
0.00243405
0.00247865
0.00252329
0.00256794
0.00261259
0.00265721
0.00270176
0.00274623
0.00279059
0.00283481
0.00287886
0.00292271
0.00296634
0.00300972
0.00305281
0.0030956
0.00313807
0.00318018
0.00322192
0.00326327
0.00330421
0.00334472
0.0033848
0.00342442
0.00346357
0.00350224
0.00354039
0.00357803
0.00361519
0.00365189
0.00368814
0.00372393
0.00375926
0.00379411
0.00382847
0.0038623
0.0038956
0.00392834
0.0039605
0.00399206
0.004023
0.00405329
0.00408292
0.00411187
0.00414011
0.00416763
0.00419441
0.00422043
0.00424567
0.00427011
0.00429373
0.00431652
0.00433847
0.00435956
0.00437978
0.00439913
0.00441759
0.00443515
0.00445179
0.00446752
0.0044823
0.00449616
0.00450908
0.00452106
0.0045321
0.0045422
0.00455134
0.00455952
0.00456675
0.00457304
0.00457842
0.00458284
0.00458631
0.00458885
0.00459047
0.00459119
0.004591
0.00458991
0.00458794
0.00458511
0.00458143
0.00457691
0.00457158
0.00456544
0.00455852
0.00455084
0.00454242
0.00453327
0.00452343
0.00451292
0.00450174
0.00448994
0.00447752
0.00446449
0.00445088
0.00443666
0.00442187
0.0044065
0.00439061
0.00437426
0.00435752
0.00434046
0.00432318
0.00430575
0.00428826
0.00427076
0.00425322
0.00423542
0.00421672
0.00419626
6.96744e-06
8.24423e-05
0.000174663
0.000252048
0.000313777
0.000362829
0.00040226
0.000434621
0.000461929
0.000485727
0.000507167
0.000527093
0.000546107
0.000564633
0.000582965
0.000601306
0.000619797
0.000638544
0.000657627
0.000677118
0.000697079
0.000717572
0.000738658
0.000760396
0.000782841
0.000806048
0.000830064
0.000854933
0.000880687
0.000907355
0.000934953
0.000963489
0.000992959
0.00102335
0.00105464
0.00108679
0.00111978
0.00115354
0.00118803
0.00122321
0.00125904
0.00129546
0.00133243
0.00136993
0.0014079
0.00144633
0.00148519
0.00152445
0.0015641
0.0016041
0.00164447
0.00168517
0.0017262
0.00176754
0.0018092
0.00185116
0.00189341
0.00193594
0.00197875
0.00202181
0.00206514
0.0021087
0.0021525
0.00219651
0.00224074
0.00228515
0.00232975
0.0023745
0.00241941
0.00246444
0.00250958
0.00255482
0.00260012
0.00264546
0.00269083
0.0027362
0.00278153
0.00282681
0.00287201
0.00291709
0.00296203
0.0030068
0.00305137
0.0030957
0.00313977
0.00318355
0.00322701
0.00327013
0.00331289
0.00335527
0.00339724
0.0034388
0.00347993
0.00352061
0.00356084
0.0036006
0.00363991
0.00367879
0.00371723
0.00375526
0.00379287
0.00383005
0.00386679
0.00390306
0.00393886
0.00397416
0.00400893
0.00404315
0.0040768
0.00410987
0.00414231
0.00417412
0.00420527
0.00423574
0.00426551
0.00429455
0.00432286
0.00435041
0.00437717
0.00440313
0.00442827
0.00445256
0.00447601
0.00449859
0.00452029
0.00454111
0.00456103
0.00458005
0.00459814
0.00461529
0.0046315
0.00464675
0.00466105
0.0046744
0.00468682
0.00469827
0.00470874
0.00471823
0.00472675
0.00473431
0.00474092
0.00474656
0.00475125
0.00475499
0.00475779
0.00475967
0.00476062
0.00476065
0.00475979
0.00475804
0.00475542
0.00475194
0.00474761
0.00474246
0.0047365
0.00472976
0.00472224
0.00471397
0.00470498
0.00469527
0.00468488
0.00467383
0.00466212
0.00464979
0.00463684
0.0046233
0.00460916
0.00459447
0.00457926
0.00456359
0.00454753
0.00453114
0.00451453
0.0044978
0.00448103
0.00446432
0.00444766
0.00443091
0.00441359
0.00439503
7.28321e-06
8.44324e-05
0.000178934
0.000259023
0.000323493
0.000375118
0.000416855
0.000451224
0.000480241
0.000505473
0.000528111
0.000549045
0.000568923
0.000588216
0.000607255
0.000626278
0.000645454
0.000664906
0.000684728
0.000704997
0.00072578
0.000747134
0.000769114
0.000791771
0.00081515
0.000839294
0.000864237
0.00089001
0.000916633
0.000944121
0.000972479
0.00100171
0.00103179
0.00106272
0.00109446
0.00112699
0.00116026
0.00119424
0.00122889
0.00126416
0.00130003
0.00133643
0.00137335
0.00141075
0.0014486
0.00148687
0.00152554
0.00156459
0.001604
0.00164376
0.00168385
0.00172427
0.00176501
0.00180606
0.00184742
0.00188907
0.00193102
0.00197325
0.00201577
0.00205857
0.00210163
0.00214496
0.00218855
0.00223238
0.00227646
0.00232076
0.00236528
0.00241001
0.00245492
0.00250002
0.00254527
0.00259066
0.00263618
0.00268179
0.00272748
0.00277322
0.00281898
0.00286473
0.00291045
0.00295611
0.00300167
0.00304709
0.00309235
0.00313741
0.00318224
0.00322681
0.00327108
0.00331503
0.00335864
0.00340187
0.00344472
0.00348716
0.00352919
0.00357079
0.00361195
0.00365275
0.00369317
0.00373323
0.00377291
0.00381221
0.00385112
0.00388964
0.00392774
0.0039654
0.0040026
0.00403931
0.00407551
0.00411118
0.00414629
0.00418082
0.00421474
0.00424802
0.00428066
0.00431262
0.00434388
0.00437442
0.00440423
0.00443328
0.00446155
0.004489
0.00451563
0.00454141
0.00456634
0.00459039
0.00461356
0.00463584
0.00465722
0.00467771
0.00469726
0.00471584
0.00473347
0.00475014
0.00476584
0.00478058
0.00479436
0.00480717
0.004819
0.00482984
0.0048397
0.00484859
0.00485651
0.00486346
0.00486945
0.00487447
0.00487854
0.00488167
0.00488387
0.00488514
0.00488549
0.00488494
0.00488351
0.00488119
0.00487802
0.004874
0.00486916
0.0048635
0.00485705
0.00484982
0.00484184
0.00483312
0.00482369
0.00481356
0.00480276
0.0047913
0.00477921
0.0047665
0.00475319
0.00473933
0.00472493
0.00471007
0.00469481
0.00467922
0.0046634
0.00464747
0.00463152
0.00461565
0.00459991
0.0045842
0.00456813
0.00455116
7.49172e-06
8.56631e-05
0.000181647
0.000263753
0.00033042
0.000384197
0.000427919
0.000464049
0.000494587
0.000521105
0.00054482
0.000566651
0.000587285
0.000607225
0.000626838
0.000646387
0.000666063
0.000686003
0.000706313
0.000727074
0.000748351
0.0007702
0.000792669
0.000815799
0.000839628
0.000864186
0.000889498
0.000915582
0.00094245
0.000970107
0.000998552
0.00102778
0.00105776
0.0010885
0.00111995
0.0011521
0.0011849
0.00121832
0.00125233
0.0012869
0.00132198
0.00135756
0.00139359
0.00143005
0.00146692
0.00150417
0.0015418
0.00157978
0.0016181
0.00165676
0.00169574