/*--------------------------------*- C++ -*----------------------------------*\
  =========                 |
  \\      /  F ield         | OpenFOAM: The Open Source CFD Toolbox
   \\    /   O peration     | Website:  https://openfoam.org
    \\  /    A nd           | Version:  12
     \\/     M anipulation  |
\*---------------------------------------------------------------------------*/
FoamFile
{
    format      ascii;
    class       volScalarField;
    location    "0.26";
    object      p;
}
// * * * * * * * * * * * * * * * * * * * * * * * * * * * * * * * * * * * * * //

dimensions      [0 2 -2 0 0 0 0];

internalField   nonuniform List<scalar> 
12225
(
-1.11386
-3.39688
-4.55941
-4.86768
-5.03608
-5.19596
-5.32075
-5.4094
-5.47928
-5.54062
-5.59522
-5.6429
-5.684
-5.71783
-5.74332
-5.7502
-5.74815
-5.64156
-4.58136
-5.28349
-5.37378
-5.23883
-5.1989
-5.26635
-5.34731
-5.41341
-5.47071
-5.52445
-5.57441
-5.61946
-5.65931
-5.69309
-5.7204
-5.73427
-5.74749
-5.73316
-4.78611
-4.68317
-4.84001
-4.96224
-5.06975
-5.19224
-5.30075
-5.38367
-5.45118
-5.51139
-5.56596
-5.61469
-5.65772
-5.69482
-5.72641
-5.74944
-5.7781
-5.81132
-4.64881
-4.5707
-4.84684
-5.02567
-5.12026
-5.21758
-5.31292
-5.39074
-5.45565
-5.51423
-5.56795
-5.61647
-5.65993
-5.69848
-5.73316
-5.76404
-5.80277
-5.8556
-4.65577
-4.67305
-4.9132
-5.06321
-5.13939
-5.22428
-5.31412
-5.39046
-5.45475
-5.51286
-5.56646
-5.61537
-5.65985
-5.70047
-5.7387
-5.77626
-5.82169
-5.88176
-4.71745
-4.75994
-4.93779
-5.06863
-5.14676
-5.22949
-5.31603
-5.39115
-5.4551
-5.51297
-5.56659
-5.61599
-5.66157
-5.70418
-5.74552
-5.78786
-5.83729
-5.89918
-4.77719
-4.81673
-4.95319
-5.07551
-5.15804
-5.23795
-5.31986
-5.393
-5.45639
-5.51396
-5.56755
-5.61739
-5.66399
-5.70834
-5.75215
-5.79767
-5.84911
-5.90994
-4.83032
-4.86524
-4.9756
-5.08833
-5.17103
-5.24712
-5.32429
-5.39525
-5.45797
-5.5152
-5.5687
-5.61893
-5.66642
-5.7122
-5.75784
-5.80524
-5.85719
-5.91553
-4.8801
-4.91185
-5.0027
-5.1036
-5.18381
-5.25646
-5.32943
-5.39805
-5.45988
-5.51665
-5.56998
-5.62047
-5.66865
-5.71547
-5.76226
-5.81049
-5.86189
-5.91722
-4.92744
-4.95608
-5.03131
-5.12031
-5.19682
-5.26638
-5.33551
-5.40157
-5.46223
-5.51839
-5.57143
-5.62198
-5.67057
-5.718
-5.76531
-5.81357
-5.86377
-5.91601
-4.97219
-4.99749
-5.06033
-5.13848
-5.21049
-5.27693
-5.34246
-5.40585
-5.46508
-5.52047
-5.57305
-5.62345
-5.67214
-5.71975
-5.76706
-5.81476
-5.86338
-5.91268
-5.01067
-5.03302
-5.0869
-5.15625
-5.22362
-5.28704
-5.34949
-5.4104
-5.46814
-5.52266
-5.57467
-5.62472
-5.67322
-5.72066
-5.76757
-5.81441
-5.86142
-5.90825
-5.04634
-5.06615
-5.11272
-5.17432
-5.23698
-5.29733
-5.35687
-5.41536
-5.47152
-5.52504
-5.57634
-5.62589
-5.67399
-5.72099
-5.76726
-5.81304
-5.85842
-5.90301
-5.08383
-5.10114
-5.14097
-5.19502
-5.25245
-5.30924
-5.36564
-5.42145
-5.47571
-5.52793
-5.57828
-5.62704
-5.67443
-5.72067
-5.76595
-5.81037
-5.8539
-5.89621
-5.1219
-5.13681
-5.17068
-5.21774
-5.26971
-5.32256
-5.37564
-5.4286
-5.48067
-5.53128
-5.58036
-5.62801
-5.67436
-5.71948
-5.76343
-5.80621
-5.84777
-5.88781
-5.1586
-5.17135
-5.20024
-5.24119
-5.28789
-5.33667
-5.38637
-5.43641
-5.48609
-5.53481
-5.58231
-5.62855
-5.67351
-5.71718
-5.75954
-5.80051
-5.84004
-5.87792
-5.19105
-5.20206
-5.22705
-5.26308
-5.3052
-5.35021
-5.39672
-5.44396
-5.49123
-5.53791
-5.58364
-5.62823
-5.67156
-5.71357
-5.75416
-5.79326
-5.83081
-5.86667
-5.21489
-5.22469
-5.24707
-5.27975
-5.3186
-5.36072
-5.40469
-5.44964
-5.49483
-5.53963
-5.58362
-5.62653
-5.66819
-5.7085
-5.74734
-5.78465
-5.82037
-5.85443
-5.22316
-5.23251
-5.25396
-5.28548
-5.32315
-5.36412
-5.4069
-5.45064
-5.49461
-5.53818
-5.58089
-5.62247
-5.66275
-5.70161
-5.73897
-5.77477
-5.80898
-5.8416
-5.20807
-5.21812
-5.24109
-5.2747
-5.31446
-5.35701
-5.40083
-5.44523
-5.48958
-5.53326
-5.57581
-5.61702
-5.65676
-5.69495
-5.73154
-5.76651
-5.79986
-5.83161
-5.18179
-5.19297
-5.21873
-5.25643
-5.30014
-5.34565
-5.39164
-5.43777
-5.48343
-5.52792
-5.5709
-5.61226
-5.65198
-5.68999
-5.72628
-5.76088
-5.7938
-5.82512
-5.14678
-5.15915
-5.18916
-5.23359
-5.28304
-5.33211
-5.38078
-5.42939
-5.47702
-5.52277
-5.56647
-5.60826
-5.64817
-5.68621
-5.7224
-5.7568
-5.78949
-5.82054
-5.10612
-5.1187
-5.15405
-5.20859
-5.26566
-5.31859
-5.37009
-5.4214
-5.47108
-5.51816
-5.56273
-5.6051
-5.64535
-5.68353
-5.71972
-5.75404
-5.78659
-5.81749
-5.06224
-5.0738
-5.11615
-5.18272
-5.24735
-5.30492
-5.36074
-5.41533
-5.46675
-5.51471
-5.55993
-5.6028
-5.64333
-5.6816
-5.71777
-5.75201
-5.78446
-5.81522
-5.01536
-5.02311
-5.08412
-5.16385
-5.22892
-5.28851
-5.35031
-5.40979
-5.46344
-5.51238
-5.55829
-5.60163
-5.64239
-5.68069
-5.71679
-5.75093
-5.78326
-5.81396
-4.96739
-4.94373
-5.05449
-5.16337
-5.22387
-5.27788
-5.34121
-5.40346
-5.45862
-5.50849
-5.55522
-5.59916
-5.64024
-5.67869
-5.71484
-5.74897
-5.78128
-5.81192
-4.95807
-4.81373
-4.97272
-5.13885
-5.22327
-5.28419
-5.34888
-5.40991
-5.46352
-5.51251
-5.55875
-5.60225
-5.64287
-5.68088
-5.71662
-5.75036
-5.78235
-5.81279
-5.10347
-4.81965
-4.85435
-4.98473
-5.10422
-5.21112
-5.30506
-5.38068
-5.44277
-5.49784
-5.5484
-5.59479
-5.63737
-5.67675
-5.71345
-5.74786
-5.78049
-5.81198
-5.04027
-5.53994
-5.55001
-5.39068
-5.30961
-5.33371
-5.38772
-5.43698
-5.48192
-5.5263
-5.56975
-5.61097
-5.64961
-5.68587
-5.71995
-5.75194
-5.78212
-5.81232
-1.70158
-3.57213
-4.64335
-4.93633
-5.07107
-5.20771
-5.31949
-5.39933
-5.46212
-5.51796
-5.56906
-5.61552
-5.65789
-5.69694
-5.73306
-5.76627
-5.79624
-5.82119
-6.7189
-6.71888
-6.71919
-6.71981
-6.72064
-6.72162
-6.72277
-6.72411
-6.72565
-6.72743
-6.72946
-6.73177
-6.73441
-6.7374
-6.7408
-6.74463
-6.74894
-6.75376
-6.75913
-6.7651
-6.7717
-6.77896
-6.78694
-6.79568
-6.80521
-6.8156
-6.82689
-6.83913
-6.85238
-6.86668
-6.88205
-6.89844
-6.91586
-6.93465
-6.95518
-6.9777
-7.00325
-7.02819
-7.04056
-7.06253
-7.09905
-7.1327
-7.16909
-7.18976
-7.20335
-7.22786
-7.25528
-7.28404
-7.31389
-7.34449
-7.37563
-7.40717
-7.43894
-7.47085
-7.50276
-7.53456
-7.56614
-7.59738
-7.62817
-7.65838
-7.68788
-7.71654
-7.74424
-7.77082
-7.79613
-7.82003
-7.84235
-7.86294
-7.88163
-7.89824
-7.9126
-7.92452
-7.93383
-7.94034
-7.94386
-7.94421
-7.94119
-7.93461
-7.92429
-7.91003
-7.89165
-7.86897
-7.8418
-7.80996
-7.77328
-7.7316
-7.68473
-7.63252
-7.57482
-7.51148
-7.44234
-7.36729
-7.28619
-7.19893
-7.10539
-7.00548
-6.89917
-6.78648
-6.66738
-6.54164
-6.40908
-6.2694
-6.12281
-5.96935
-5.80905
-5.64194
-5.46804
-5.2874
-5.10007
-4.90612
-4.70566
-4.49878
-4.2856
-4.06626
-3.84091
-3.60972
-3.37287
-3.13056
-2.88299
-2.63039
-2.373
-2.11105
-1.84482
-1.57456
-1.30056
-1.0231
-0.742472
-0.458983
-0.172935
0.115359
0.405587
0.697429
0.990568
1.28468
1.57946
1.87458
2.16973
2.46461
2.75889
3.05229
3.34452
3.63529
3.92432
4.21134
4.49611
4.77837
5.05788
5.33443
5.6078
5.87779
6.14421
6.4069
6.66568
6.92041
7.17095
7.41718
7.65898
7.89624
8.12889
8.35684
8.58002
8.79836
9.01184
9.22042
9.42408
9.62278
9.81636
10.0047
10.1877
10.3655
10.538
10.7053
10.8673
11.0242
11.176
11.323
11.466
11.6065
11.7535
11.9075
-6.71789
-6.71809
-6.71846
-6.71899
-6.71952
-6.72005
-6.72062
-6.72134
-6.72229
-6.72352
-6.72505
-6.72691
-6.72912
-6.73171
-6.73469
-6.7381
-6.74198
-6.74634
-6.75123
-6.75668
-6.76273
-6.76941
-6.77678
-6.78486
-6.79371
-6.80336
-6.81383
-6.82516
-6.83732
-6.85029
-6.86404
-6.87859
-6.89406
-6.91044
-6.92748
-6.94512
-6.96198
-6.97721
-7.00691
-7.03632
-7.05424
-7.07527
-7.09353
-7.12374
-7.16529
-7.1995
-7.2306
-7.26138
-7.29226
-7.32337
-7.35474
-7.38634
-7.41809
-7.44991
-7.48171
-7.51339
-7.54486
-7.57599
-7.60669
-7.63682
-7.66628
-7.69493
-7.72263
-7.74925
-7.77463
-7.79864
-7.82111
-7.84189
-7.8608
-7.87767
-7.89233
-7.9046
-7.9143
-7.92124
-7.92524
-7.9261
-7.92365
-7.91768
-7.90801
-7.89445
-7.87682
-7.85493
-7.82859
-7.79764
-7.7619
-7.72119
-7.67535
-7.62423
-7.56766
-7.5055
-7.43762
-7.36387
-7.28413
-7.19828
-7.10621
-7.00782
-6.90298
-6.7916
-6.67354
-6.54856
-6.4167
-6.27832
-6.13323
-5.98135
-5.82268
-5.65721
-5.48497
-5.30599
-5.12033
-4.92805
-4.72925
-4.52403
-4.31249
-4.09479
-3.87105
-3.64146
-3.40618
-3.16541
-2.91935
-2.66823
-2.41228
-2.15173
-1.88686
-1.61791
-1.34517
-1.06892
-0.78946
-0.507076
-0.222077
0.065228
0.354525
0.645499
0.937833
1.23121
1.52531
1.81981
2.11442
2.4088
2.70267
2.99572
3.28766
3.5782
3.86706
4.15398
4.4387
4.72097
5.00055
5.27721
5.55075
5.82096
6.08765
6.35064
6.60977
6.86489
7.11585
7.36253
7.60481
7.84259
8.07577
8.30427
8.52802
8.74697
8.96106
9.17026
9.37455
9.57387
9.76807
9.95702
10.1407
10.3192
10.4924
10.6604
10.8233
10.981
11.1338
11.282
11.427
11.5695
11.72
11.868
-6.71481
-6.7157
-6.71663
-6.7175
-6.71814
-6.71861
-6.71906
-6.71962
-6.72039
-6.72141
-6.72274
-6.72441
-6.72642
-6.72883
-6.73164
-6.73488
-6.7386
-6.74282
-6.74756
-6.75288
-6.7588
-6.76535
-6.77259
-6.78054
-6.78924
-6.79872
-6.80902
-6.82016
-6.83216
-6.84502
-6.85876
-6.87341
-6.88915
-6.90613
-6.92428
-6.94334
-6.9631
-6.9838
-7.008
-7.0334
-7.05611
-7.07911
-7.10205
-7.12758
-7.15722
-7.18719
-7.21717
-7.2474
-7.27787
-7.30859
-7.33953
-7.37065
-7.4019
-7.43321
-7.4645
-7.49567
-7.52664
-7.5573
-7.58755
-7.61727
-7.64633
-7.67463
-7.70202
-7.72836
-7.75352
-7.77734
-7.79968
-7.82036
-7.83923
-7.85611
-7.87084
-7.88323
-7.8931
-7.90027
-7.90456
-7.90577
-7.90372
-7.89822
-7.88908
-7.87611
-7.85913
-7.83795
-7.81239
-7.78228
-7.74743
-7.70768
-7.66287
-7.61282
-7.5574
-7.49644
-7.42981
-7.35737
-7.27899
-7.19456
-7.10394
-7.00704
-6.90375
-6.79392
-6.67741
-6.55432
-6.42443
-6.28787
-6.1446
-5.99457
-5.83777
-5.6742
-5.50388
-5.32683
-5.14311
-4.95278
-4.75593
-4.55265
-4.34306
-4.12728
-3.90546
-3.67776
-3.44436
-3.20544
-2.9612
-2.71186
-2.45765
-2.19881
-1.9356
-1.66826
-1.39708
-1.12234
-0.844324
-0.563327
-0.279652
0.00639406
0.2945
0.584353
0.875636
1.16803
1.46123
1.75491
2.04876
2.34247
2.63574
2.92826
3.21975
3.50991
3.79848
4.08517
4.36974
4.65192
4.93149
5.20821
5.48186
5.75224
6.01917
6.28245
6.54192
6.79743
7.04882
7.29598
7.53878
7.77711
8.01087
8.23999
8.46437
8.68395
8.89869
9.10853
9.31343
9.51333
9.70818
9.89791
10.0824
10.2618
10.4359
10.6048
10.7686
10.9273
11.0813
11.231
11.3779
11.5222
11.6753
11.8132
-6.70998
-6.71153
-6.71337
-6.71495
-6.71607
-6.71686
-6.71754
-6.71825
-6.71909
-6.72015
-6.72148
-6.72312
-6.72511
-6.72748
-6.73026
-6.73347
-6.73715
-6.74133
-6.74603
-6.7513
-6.75717
-6.76367
-6.77084
-6.77872
-6.78733
-6.79672
-6.8069
-6.8179
-6.82975
-6.84247
-6.85609
-6.87063
-6.88618
-6.90283
-6.92064
-6.93955
-6.9595
-6.9807
-7.00333
-7.02702
-7.05094
-7.07529
-7.1003
-7.12643
-7.15395
-7.18237
-7.21138
-7.24086
-7.27072
-7.30091
-7.33136
-7.36201
-7.3928
-7.42367
-7.45452
-7.48529
-7.51587
-7.54617
-7.57608
-7.60549
-7.63428
-7.66234
-7.68952
-7.7157
-7.74073
-7.76447
-7.78675
-7.80743
-7.82632
-7.84328
-7.85812
-7.87067
-7.88074
-7.88816
-7.89274
-7.89428
-7.89261
-7.88753
-7.87886
-7.86641
-7.84998
-7.82941
-7.8045
-7.77508
-7.74097
-7.702
-7.65801
-7.60884
-7.55432
-7.49432
-7.42868
-7.35726
-7.27994
-7.19659
-7.10709
-7.01133
-6.90919
-6.80055
-6.68533
-6.56351
-6.43504
-6.29991
-6.15806
-6.00948
-5.85415
-5.69205
-5.52321
-5.34766
-5.16545
-4.97663
-4.78128
-4.57951
-4.37142
-4.15714
-3.93681
-3.71058
-3.47863
-3.24114
-2.99831
-2.75036
-2.49751
-2.24
-1.97808
-1.712
-1.44204
-1.16847
-0.891591
-0.611682
-0.329047
-0.0439915
0.243176
0.532142
0.822593
1.11421
1.40669
1.69971
1.99295
2.28612
2.5789
2.87099
3.16211
3.45197
3.74028
4.02678
4.3112
4.5933
4.87284
5.14958
5.42331
5.69381
5.9609
6.2244
6.48412
6.73993
6.99165
7.23918
7.48238
7.72113
7.95534
8.18492
8.4098
8.6299
8.84518
9.05555
9.26097
9.46135
9.65666
9.84689
10.032
10.2119
10.3866
10.5562
10.7206
10.8802
11.035
11.1856
11.3333
11.4777
11.6298
11.7556
-6.70448
-6.70677
-6.70965
-6.71212
-6.71388
-6.71517
-6.71623
-6.71725
-6.71834
-6.71959
-6.72108
-6.72286
-6.72497
-6.72745
-6.73033
-6.73364
-6.73742
-6.74169
-6.74649
-6.75185
-6.75781
-6.7644
-6.77166
-6.77962
-6.78833
-6.7978
-6.80809
-6.8192
-6.83118
-6.84405
-6.85784
-6.87258
-6.88833
-6.90512
-6.92299
-6.94194
-6.96195
-6.98304
-7.00521
-7.02829
-7.0521
-7.07663
-7.10194
-7.12815
-7.15527
-7.18312
-7.21156
-7.2405
-7.26987
-7.29959
-7.32962
-7.35987
-7.39029
-7.4208
-7.45133
-7.48178
-7.51208
-7.54211
-7.57178
-7.60098
-7.6296
-7.6575
-7.68456
-7.71064
-7.7356
-7.7593
-7.78158
-7.80228
-7.82123
-7.83827
-7.85323
-7.86592
-7.87617
-7.8838
-7.88861
-7.89042
-7.88904
-7.88429
-7.87598
-7.86391
-7.8479
-7.82777
-7.80334
-7.77442
-7.74084
-7.70244
-7.65904
-7.61048
-7.55661
-7.49728
-7.43234
-7.36166
-7.28509
-7.20252
-7.11381
-7.01887
-6.91757
-6.80983
-6.69556
-6.57471
-6.44723
-6.31309
-6.17224
-6.02466
-5.87033
-5.70925
-5.54143
-5.3669
-5.18571
-4.99792
-4.8036
-4.60285
-4.39578
-4.18251
-3.96318
-3.73795
-3.50699
-3.27047
-3.0286
-2.78159
-2.52966
-2.27305
-2.012
-1.74678
-1.47765
-1.20488
-0.928774
-0.649608
-0.367684
-0.0833075
0.203215
0.491571
0.781449
1.07253
1.36451
1.65706
1.94989
2.24267
2.53511
2.8269
3.11776
3.40739
3.69552
3.98187
4.26619
4.54822
4.82772
5.10447
5.37823
5.64881
5.91601
6.17964
6.43954
6.69554
6.94749
7.19526
7.43872
7.67777
7.9123
8.14222
8.36745
8.58792
8.80356
9.0143
9.22006
9.42075
9.61635
9.80688
9.99228
10.1725
10.3476
10.5176
10.6825
10.8424
10.9976
11.1485
11.2962
11.4395
11.5888
11.7029
-6.69931
-6.70232
-6.70619
-6.70954
-6.712
-6.71385
-6.7154
-6.71683
-6.71827
-6.71983
-6.7216
-6.72363
-6.72598
-6.72869
-6.73179
-6.73532
-6.7393
-6.74379
-6.7488
-6.75438
-6.76056
-6.76737
-6.77486
-6.78306
-6.79201
-6.80174
-6.81228
-6.82367
-6.83593
-6.84909
-6.86318
-6.87823
-6.89427
-6.91132
-6.92939
-6.94847
-6.96856
-6.98962
-7.01163
-7.0345
-7.05814
-7.08255
-7.10771
-7.13367
-7.16039
-7.18778
-7.21578
-7.24429
-7.27325
-7.30261
-7.33229
-7.36223
-7.39235
-7.4226
-7.45288
-7.48311
-7.51321
-7.54307
-7.57259
-7.60166
-7.63017
-7.658
-7.685
-7.71105
-7.73601
-7.75972
-7.78204
-7.80279
-7.82183
-7.83898
-7.85405
-7.86689
-7.87731
-7.88511
-7.89012
-7.89216
-7.89102
-7.88652
-7.87848
-7.86671
-7.85101
-7.83121
-7.80712
-7.77856
-7.74536
-7.70736
-7.66437
-7.61625
-7.56283
-7.50397
-7.43952
-7.36934
-7.2933
-7.21127
-7.12313
-7.02876
-6.92807
-6.82096
-6.70736
-6.58718
-6.46038
-6.32691
-6.18674
-6.03983
-5.88618
-5.72577
-5.55863
-5.38477
-5.20426
-5.01714
-4.8235
-4.62343
-4.41703
-4.20443
-3.98576
-3.76119
-3.53088
-3.295
-3.05377
-2.80738
-2.55607
-2.30006
-2.0396
-1.77495
-1.50638
-1.23416
-0.958574
-0.679915
-0.398479
-0.114569
0.171508
0.45944
0.748916
1.03962
1.33124
1.62347
1.91599
2.20849
2.50068
2.79224
3.0829
3.37235
3.66033
3.94657
4.23079
4.51275
4.79221
5.06894
5.34271
5.61332
5.88057
6.14428
6.40427
6.66038
6.91247
7.1604
7.40404
7.64329
7.87803
8.10817
8.33363
8.55433
8.7702
8.98116
9.18713
9.38803
9.58384
9.77456
9.96017
10.1406
10.316
10.4861
10.6512
10.8114
10.9667
11.1175
11.2647
11.4063
11.5525
11.6562
-6.69545
-6.69901
-6.70368
-6.7078
-6.71091
-6.71333
-6.71537
-6.71723
-6.71907
-6.721
-6.72311
-6.72546
-6.72812
-6.73112
-6.73451
-6.73833
-6.74261
-6.74738
-6.75269
-6.75856
-6.76504
-6.77217
-6.77997
-6.78848
-6.79774
-6.80779
-6.81865
-6.83036
-6.84293
-6.8564
-6.87079
-6.88612
-6.9024
-6.91964
-6.93785
-6.95702
-6.97713
-6.99815
-7.02005
-7.04279
-7.06632
-7.0906
-7.11562
-7.14137
-7.16782
-7.19491
-7.2226
-7.25081
-7.2795
-7.30859
-7.33803
-7.36776
-7.39769
-7.42776
-7.45789
-7.488
-7.51799
-7.54777
-7.57723
-7.60626
-7.63475
-7.66257
-7.68959
-7.71567
-7.74068
-7.76446
-7.78685
-7.8077
-7.82685
-7.84411
-7.85933
-7.87231
-7.88287
-7.89084
-7.89603
-7.89824
-7.89729
-7.89299
-7.88515
-7.87359
-7.85811
-7.83854
-7.81468
-7.78637
-7.75343
-7.71568
-7.67297
-7.62513
-7.572
-7.51345
-7.44931
-7.37946
-7.30376
-7.22208
-7.13431
-7.04033
-6.94003
-6.83334
-6.72016
-6.60041
-6.47404
-6.341
-6.20125
-6.05476
-5.90152
-5.74153
-5.5748
-5.40137
-5.22127
-5.03457
-4.84134
-4.64169
-4.4357
-4.22352
-4.00527
-3.78111
-3.55121
-3.31575
-3.07492
-2.82894
-2.57802
-2.32241
-2.06233
-1.79807
-1.52987
-1.25801
-0.982788
-0.704476
-0.423378
-0.139794
0.145968
0.433597
0.722782
1.01321
1.30457
1.59655
1.88883
2.18112
2.4731
2.76448
3.05496
3.34427
3.63211
3.91823
4.20235
4.48423
4.76362
5.0403
5.31404
5.58463
5.85188
6.11561
6.37564
6.6318
6.88396
7.13198
7.37572
7.61507
7.84993
8.0802
8.3058
8.52664
8.74265
8.95375
9.15986
9.3609
9.55685
9.74771
9.93346
10.1141
10.2895
10.4598
10.6251
10.7852
10.9405
11.091
11.2372
11.3769
11.5202
11.6148
-6.69329
-6.69728
-6.70256
-6.70729
-6.71096
-6.71388
-6.71638
-6.71867
-6.72091
-6.72321
-6.72567
-6.72836
-6.73135
-6.73467
-6.73839
-6.74252
-6.74712
-6.75222
-6.75786
-6.76406
-6.77087
-6.77832
-6.78645
-6.7953
-6.80489
-6.81526
-6.82644
-6.83846
-6.85133
-6.86508
-6.87972
-6.89528
-6.91175
-6.92914
-6.94745
-6.96667
-6.98679
-7.00777
-7.0296
-7.05225
-7.07567
-7.09985
-7.12476
-7.15036
-7.17665
-7.20356
-7.23106
-7.2591
-7.28762
-7.31656
-7.34587
-7.37548
-7.40532
-7.43532
-7.4654
-7.49547
-7.52545
-7.55523
-7.58471
-7.61377
-7.64231
-7.6702
-7.69729
-7.72347
-7.74857
-7.77246
-7.79497
-7.81595
-7.83522
-7.85261
-7.86796
-7.88108
-7.89178
-7.89989
-7.90521
-7.90756
-7.90675
-7.90259
-7.89489
-7.88346
-7.86812
-7.84868
-7.82497
-7.79679
-7.76399
-7.72639
-7.68382
-7.63613
-7.58316
-7.52477
-7.4608
-7.39112
-7.31561
-7.23413
-7.14656
-7.05279
-6.95272
-6.84626
-6.73331
-6.6138
-6.48765
-6.35484
-6.2153
-6.06903
-5.916
-5.75622
-5.5897
-5.41648
-5.2366
-5.05011
-4.85711
-4.65767
-4.45191
-4.23996
-4.02194
-3.79801
-3.56835
-3.33312
-3.09253
-2.84679
-2.59611
-2.34073
-2.08091
-1.81688
-1.54892
-1.27731
-1.00232
-0.724245
-0.443379
-0.160025
0.125511
0.41292
0.701889
0.992105
1.28326
1.57504
1.86714
2.15924
2.45105
2.74226
3.03259
3.32175
3.60946
3.89545
4.17946
4.46124
4.74054
5.01713
5.29081
5.56135
5.82856
6.09226
6.35227
6.60843
6.8606
7.10863
7.35241
7.5918
7.82672
8.05705
8.28272
8.50363
8.71972
8.93089
9.13708
9.33821
9.53426
9.72521
9.91104
10.0917
10.2673
10.4376
10.6029
10.7629
10.918
11.0679
11.2131
11.3507
11.4915
11.5782
-6.69314
-6.69738
-6.70307
-6.70825
-6.71235
-6.71569
-6.71858
-6.72125
-6.72384
-6.72649
-6.72928
-6.73229
-6.73559
-6.73923
-6.74325
-6.7477
-6.75261
-6.75802
-6.76396
-6.77048
-6.7776
-6.78537
-6.79381
-6.80295
-6.81284
-6.8235
-6.83496
-6.84723
-6.86035
-6.87432
-6.88917
-6.90489
-6.92151
-6.93901
-6.95739
-6.97665
-6.99677
-7.01774
-7.03953
-7.06212
-7.08548
-7.10959
-7.13443
-7.15996
-7.18616
-7.21298
-7.2404
-7.26836
-7.29682
-7.32571
-7.35498
-7.38458
-7.41442
-7.44444
-7.47455
-7.50468
-7.53472
-7.56458
-7.59415
-7.62332
-7.65197
-7.67998
-7.7072
-7.73351
-7.75874
-7.78277
-7.80541
-7.82652
-7.84592
-7.86345
-7.87892
-7.89215
-7.90296
-7.91118
-7.9166
-7.91904
-7.91831
-7.91422
-7.90658
-7.89522
-7.87993
-7.86054
-7.83686
-7.80873
-7.77596
-7.73839
-7.69586
-7.64821
-7.59528
-7.53692
-7.473
-7.40338
-7.32792
-7.2465
-7.159
-7.06531
-6.96532
-6.85893
-6.74605
-6.6266
-6.50052
-6.36776
-6.22828
-6.08206
-5.92909
-5.76936
-5.6029
-5.42973
-5.24991
-5.06349
-4.87055
-4.67119
-4.46551
-4.25364
-4.03572
-3.81189
-3.58233
-3.34722
-3.10675
-2.86113
-2.61059
-2.35535
-2.09566
-1.83178
-1.56398
-1.29252
-1.01769
-0.739778
-0.459077
-0.175891
0.109475
0.396713
0.68551
0.975555
1.26654
1.55815
1.85008
2.14201
2.43366
2.72472
3.01489
3.3039
3.59146
3.87731
4.16118
4.44283
4.72201
4.9985
5.27207
5.54252
5.80965
6.07328
6.33322
6.58934
6.84146
7.08946
7.33322
7.5726
7.80751
8.03785
8.26353
8.48447
8.70058
8.91178
9.118
9.31919
9.51529
9.70629
9.89217
10.0729
10.2485
10.4188
10.584
10.7439
10.8985
11.0477
11.1918
11.3274
11.4658
11.5457
-6.69505
-6.69941
-6.7053
-6.71074
-6.71514
-6.71879
-6.72199
-6.72496
-6.72785
-6.73078
-6.73385
-6.73714
-6.74071
-6.74462
-6.7489
-6.75361
-6.75878
-6.76445
-6.77066
-6.77743
-6.78481
-6.79283
-6.80152
-6.81091
-6.82103
-6.83192
-6.84358
-6.85605
-6.86935
-6.88348
-6.89847
-6.91432
-6.93103
-6.9486
-6.96704
-6.98633
-7.00646
-7.02743
-7.0492
-7.07178
-7.09512
-7.11922
-7.14404
-7.16956
-7.19574
-7.22257
-7.24999
-7.27797
-7.30645
-7.33538
-7.36471
-7.39437
-7.4243
-7.45442
-7.48464
-7.51489
-7.54506
-7.57506
-7.60478
-7.6341
-7.6629
-7.69106
-7.71844
-7.7449
-7.77028
-7.79445
-7.81723
-7.83846
-7.85798
-7.8756
-7.89116
-7.90447
-7.91536
-7.92362
-7.92908
-7.93154
-7.93082
-7.92674
-7.91909
-7.9077
-7.89238
-7.87295
-7.84923
-7.82104
-7.78821
-7.75058
-7.70798
-7.66026
-7.60726
-7.54884
-7.48486
-7.41518
-7.33967
-7.2582
-7.17066
-7.07693
-6.9769
-6.87045
-6.75751
-6.63799
-6.51184
-6.37901
-6.23946
-6.09317
-5.94012
-5.78033
-5.6138
-5.44058
-5.2607
-5.07424
-4.88127
-4.68188
-4.47619
-4.26431
-4.04639
-3.82258
-3.59304
-3.35796
-3.11753
-2.87197
-2.62148
-2.36632
-2.10671
-1.84293
-1.57522
-1.30388
-1.02917
-0.75138
-0.470813
-0.187766
0.0974534
0.384539
0.67318
0.963066
1.25388
1.54532
1.83708
2.12884
2.42031
2.71119
3.00119
3.29003
3.57742
3.86311
4.14682
4.42831
4.70734
4.98368
5.25711
5.52743
5.79443
6.05794
6.31778
6.5738
6.82583
7.07376
7.31744
7.55676
7.79163
8.02193
8.24757
8.46848
8.68457
8.89577
9.10199
9.30319
9.49931
9.69034
9.87623
10.057
10.2325
10.4028
10.5678
10.7274
10.8816
11.0301
11.1729
11.3065
11.4428
11.5169
-6.69893
-6.70328
-6.70919
-6.71473
-6.7193
-6.72314
-6.72655
-6.72973
-6.73284
-6.73598
-6.73925
-6.74274
-6.7465
-6.7506
-6.75507
-6.75997
-6.76533
-6.77118
-6.77757
-6.78452
-6.79208
-6.80028
-6.80913
-6.81869
-6.82897
-6.84
-6.8518
-6.8644
-6.87781
-6.89205
-6.90712
-6.92304
-6.93981
-6.95744
-6.97591
-6.99523
-7.01539
-7.03637
-7.05816
-7.08075
-7.10412
-7.12825
-7.15311
-7.17868
-7.20492
-7.23182
-7.25932
-7.28738
-7.31596
-7.34501
-7.37447
-7.40427
-7.43434
-7.46462
-7.495
-7.52542
-7.55576
-7.58594
-7.61583
-7.64532
-7.67429
-7.70261
-7.73014
-7.75674
-7.78226
-7.80654
-7.82942
-7.85074
-7.87033
-7.88801
-7.9036
-7.91693
-7.92781
-7.93605
-7.94147
-7.94388
-7.9431
-7.93892
-7.93118
-7.91968
-7.90423
-7.88467
-7.86081
-7.83247
-7.79949
-7.76171
-7.71895
-7.67108
-7.61792
-7.55935
-7.49522
-7.4254
-7.34975
-7.26816
-7.18049
-7.08661
-6.98642
-6.87981
-6.7667
-6.64702
-6.5207
-6.3877
-6.24799
-6.10153
-5.94833
-5.78839
-5.62172
-5.44836
-5.26836
-5.08179
-4.88872
-4.68924
-4.48347
-4.27153
-4.05356
-3.82972
-3.60016
-3.36508
-3.12466
-2.87911
-2.62866
-2.37354
-2.114
-1.85029
-1.58267
-1.31142
-1.03682
-0.759156
-0.478726
-0.195827
0.089237
0.376158
0.664628
0.954336
1.24497
1.53622
1.82778
2.11934
2.41061
2.70129
2.99109
3.27971
3.5669
3.85238
4.13589
4.41718
4.69601
4.97216
5.24541
5.51555
5.78238
6.04572
6.30541
6.56127
6.81317
7.06097
7.30454
7.54376
7.77853
8.00875
8.23432
8.45517
8.67121
8.88236
9.08856
9.28974
9.48585
9.67687
9.86275
10.0434
10.2189
10.3891
10.5539
10.7132
10.8669
11.0145
11.1561
11.2878
11.4221
11.4912
-6.70458
-6.70881
-6.7146
-6.72009
-6.72469
-6.72861
-6.73212
-6.73541
-6.73863
-6.74188
-6.74526
-6.74885
-6.75271
-6.75691
-6.76148
-6.76646
-6.77191
-6.77785
-6.78433
-6.79138
-6.79902
-6.8073
-6.81624
-6.82587
-6.83623
-6.84733
-6.8592
-6.87185
-6.88532
-6.8996
-6.91472
-6.93068
-6.94748
-6.96514
-6.98364
-7.00299
-7.02318
-7.0442
-7.06603
-7.08868
-7.11211
-7.13631
-7.16126
-7.18692
-7.21328
-7.2403
-7.26793
-7.29614
-7.32488
-7.35409
-7.38372
-7.41369
-7.44395
-7.4744
-7.50498
-7.53557
-7.5661
-7.59644
-7.6265
-7.65615
-7.68526
-7.71371
-7.74135
-7.76804
-7.79363
-7.81797
-7.84089
-7.86222
-7.8818
-7.89945
-7.91499
-7.92825
-7.93903
-7.94716
-7.95245
-7.95471
-7.95375
-7.9494
-7.94146
-7.92976
-7.9141
-7.89432
-7.87023
-7.84166
-7.80845
-7.77043
-7.72745
-7.67935
-7.62597
-7.56718
-7.50284
-7.43281
-7.35697
-7.27518
-7.18729
-7.09318
-6.99275
-6.8859
-6.77255
-6.65262
-6.52607
-6.39284
-6.2529
-6.10623
-5.95282
-5.79268
-5.62583
-5.45231
-5.27215
-5.08544
-4.89224
-4.69265
-4.48679
-4.27477
-4.05674
-3.83285
-3.60327
-3.36817
-3.12777
-2.88225
-2.63185
-2.37679
-2.11733
-1.85371
-1.5862
-1.31507
-1.04061
-0.763094
-0.482828
-0.200107
0.0847689
0.371492
0.659754
0.949245
1.23965
1.53067
1.82199
2.1133
2.40432
2.69475
2.98428
3.27265
3.55958
3.8448
4.12806
4.40909
4.68768
4.96358
5.23659
5.50649
5.7731
6.03623
6.29571
6.55138
6.8031
7.05072
7.29413
7.53321
7.76784
7.99794
8.2234
8.44415
8.66011
8.87119
9.07733
9.27847
9.47455
9.66554
9.85138
10.032
10.2074
10.3774
10.542
10.7009
10.854
11.0007
11.1411
11.271
11.4034
11.4685
-6.71176
-6.71579
-6.72134
-6.72666
-6.73116
-6.73504
-6.73853
-6.74182
-6.74502
-6.74827
-6.75164
-6.75522
-6.75908
-6.76325
-6.76781
-6.77278
-6.77821
-6.78414
-6.7906
-6.79764
-6.80527
-6.81354
-6.82248
-6.83211
-6.84246
-6.85356
-6.86543
-6.87808
-6.89155
-6.90583
-6.92096
-6.93692
-6.95374
-6.97141
-6.98994
-7.00932
-7.02955
-7.05062
-7.07252
-7.09524
-7.11876
-7.14307
-7.16813
-7.19393
-7.22043
-7.2476
-7.27539
-7.30377
-7.33267
-7.36206
-7.39186
-7.42201
-7.45244
-7.48306
-7.51379
-7.54453
-7.57519
-7.60566
-7.63582
-7.66555
-7.69473
-7.72322
-7.75088
-7.77757
-7.80314
-7.82743
-7.85027
-7.87151
-7.89096
-7.90847
-7.92384
-7.93691
-7.94749
-7.95539
-7.96043
-7.96244
-7.96121
-7.95658
-7.94835
-7.93635
-7.9204
-7.90031
-7.87592
-7.84705
-7.81355
-7.77524
-7.73198
-7.6836
-7.62995
-7.57091
-7.50632
-7.43606
-7.35998
-7.27791
-7.18974
-7.09534
-6.99461
-6.88748
-6.77384
-6.65364
-6.52682
-6.39333
-6.25315
-6.10625
-5.95263
-5.79229
-5.62526
-5.45157
-5.27127
-5.08443
-4.89112
-4.69144
-4.48551
-4.27344
-4.05538
-3.83147
-3.60189
-3.36683
-3.12647
-2.88102
-2.63071
-2.37576
-2.11642
-1.85294
-1.58559
-1.31464
-1.04036
-0.763055
-0.483011
-0.200526
0.0841003
0.370562
0.658551
0.947759
1.23787
1.52859
1.8196
2.11061
2.40131
2.69141
2.98062
3.26867
3.55527
3.84017
4.1231
4.40382
4.68209
4.95769
5.2304
5.50001
5.76633
6.02919
6.28841
6.54384
6.79532
7.04273
7.28593
7.52481
7.75927
7.98921
8.21453
8.43516
8.651
8.86199
9.06805
9.26913
9.46516
9.65609
9.84187
10.0224
10.1977
10.3675
10.5318
10.6903
10.8428
10.9886
11.1277
11.256
11.3866
11.4484
-6.72021
-6.72401
-6.72924
-6.73429
-6.73859
-6.74229
-6.74563
-6.74877
-6.75183
-6.75493
-6.75816
-6.7616
-6.76531
-6.76935
-6.77376
-6.7786
-6.78391
-6.78972
-6.79607
-6.803
-6.81053
-6.81871
-6.82756
-6.83711
-6.84739
-6.85842
-6.87022
-6.88282
-6.89624
-6.91049
-6.92558
-6.94153
-6.95833
-6.97601
-6.99455
-7.01396
-7.03423
-7.05535
-7.07733
-7.10013
-7.12375
-7.14816
-7.17334
-7.19926
-7.22589
-7.2532
-7.28113
-7.30964
-7.33868
-7.3682
-7.39812
-7.42837
-7.4589
-7.4896
-7.52039
-7.55118
-7.58186
-7.61233
-7.64246
-7.67215
-7.70126
-7.72965
-7.75719
-7.78374
-7.80913
-7.83322
-7.85584
-7.87683
-7.89603
-7.91324
-7.92832
-7.94106
-7.9513
-7.95886
-7.96354
-7.96518
-7.96359
-7.95858
-7.94998
-7.93761
-7.92129
-7.90085
-7.87612
-7.84692
-7.81309
-7.77447
-7.73091
-7.68224
-7.62833
-7.56903
-7.50421
-7.43369
-7.35732
-7.27494
-7.18645
-7.09174
-6.99071
-6.88328
-6.76936
-6.6489
-6.52182
-6.3881
-6.24769
-6.10059
-5.94679
-5.78628
-5.61911
-5.44529
-5.26489
-5.07797
-4.8846
-4.68489
-4.47894
-4.26688
-4.04885
-3.825
-3.5955
-3.36053
-3.12029
-2.87499
-2.62484
-2.37007
-2.11094
-1.84768
-1.58057
-1.30988
-1.03588
-0.758871
-0.479135
-0.196973
0.0873166
0.373429
0.661057
0.949894
1.23963
1.52996
1.82058
2.11118
2.40148
2.69118
2.97998
3.26762
3.55382
3.83832
4.12085
4.40118
4.67907
4.95429
5.22663
5.49589
5.76187
6.02439
6.2833
6.53842
6.78962
7.03676
7.27971
7.51836
7.75261
7.98235
8.2075
8.42796
8.64367
8.85454
9.06051
9.2615
9.45747
9.64834
9.83404
10.0145
10.1896
10.3593
10.5233
10.6814
10.8332
10.9781
11.116
11.2426
11.3714
11.4307
-6.72977
-6.73332
-6.7382
-6.74289
-6.74686
-6.75025
-6.75327
-6.7561
-6.75885
-6.76164
-6.76457
-6.76771
-6.77114
-6.7749
-6.77906
-6.78365
-6.78871
-6.7943
-6.80044
-6.80717
-6.81452
-6.82252
-6.83121
-6.84061
-6.85074
-6.86164
-6.87333
-6.88583
-6.89916
-6.91332
-6.92835
-6.94424
-6.961
-6.97865
-6.99717
-7.01658
-7.03686
-7.05801
-7.08002
-7.10287
-7.12653
-7.151
-7.17624
-7.20222
-7.2289
-7.25625
-7.28422
-7.31276
-7.34181
-7.37131
-7.40121
-7.43142
-7.46187
-7.49248
-7.52316
-7.55381
-7.58432
-7.6146
-7.64452
-7.67397
-7.70282
-7.73093
-7.75816
-7.78438
-7.80942
-7.83314
-7.85538
-7.87598
-7.89476
-7.91155
-7.92619
-7.9385
-7.9483
-7.95541
-7.95965
-7.96085
-7.95882
-7.95338
-7.94437
-7.9316
-7.91489
-7.89408
-7.86899
-7.83946
-7.80532
-7.76641
-7.72258
-7.67367
-7.61953
-7.56002
-7.49494
-7.42414
-7.34745
-7.26476
-7.17597
-7.08097
-6.97967
-6.87199
-6.75783
-6.63715
-6.50988
-6.37597
-6.23541
-6.08818
-5.93426
-5.77368
-5.60644
-5.43259
-5.25217
-5.06526
-4.87193
-4.67228
-4.46641
-4.25446
-4.03656
-3.81287
-3.58355
-3.34879
-3.10879
-2.86374
-2.61386
-2.35939
-2.10058
-1.83766
-1.5709
-1.30058
-1.02698
-0.750374
-0.47106
-0.189333
0.0945077
0.38016
0.667317
0.955674
1.24492
1.53476
1.82488
2.11498
2.40478
2.69397
2.98227
3.26941
3.55512
3.83912
4.12117
4.40102
4.67845
4.95321
5.22511
5.49394
5.75951
6.02165
6.28017
6.53494
6.7858
7.03262
7.27527
7.51365
7.74765
7.97716
8.20211
8.4224
8.63795
8.84869
9.05454
9.25545
9.45133
9.64213
9.82776
10.0081
10.1831
10.3525
10.5162
10.6739
10.8251
10.9691
11.1058
11.2309
11.358
11.4154
-6.74074
-6.74406
-6.74857
-6.75281
-6.7563
-6.75918
-6.76168
-6.76396
-6.76618
-6.76845
-6.77087
-6.77353
-6.7765
-6.77984
-6.78359
-6.7878
-6.79251
-6.79776
-6.80359
-6.81002
-6.81709
-6.82483
-6.83327
-6.84243
-6.85235
-6.86304
-6.87453
-6.88684
-6.89999
-6.914
-6.92887
-6.94463
-6.96127
-6.97879
-6.99721
-7.01652
-7.0367
-7.05776
-7.07967
-7.10242
-7.12599
-7.15036
-7.17548
-7.20133
-7.22787
-7.25506
-7.28285
-7.31118
-7.34001
-7.36927
-7.3989
-7.42882
-7.45895
-7.48921
-7.51952
-7.54978
-7.57988
-7.60973
-7.6392
-7.66818
-7.69654
-7.72415
-7.75088
-7.77657
-7.80109
-7.82427
-7.84597
-7.86602
-7.88425
-7.90051
-7.91461
-7.92638
-7.93566
-7.94226
-7.946
-7.94672
-7.94423
-7.93835
-7.92892
-7.91575
-7.89868
-7.87753
-7.85214
-7.82233
-7.78795
-7.74883
-7.70482
-7.65576
-7.60146
-7.54172
-7.47638
-7.40529
-7.32834
-7.2454
-7.15639
-7.06119
-6.95971
-6.85186
-6.73756
-6.61676
-6.4894
-6.35543
-6.21483
-6.06758
-5.91368
-5.75313
-5.58596
-5.4122
-5.23191
-5.04515
-4.85199
-4.65254
-4.44691
-4.23522
-4.0176
-3.79422
-3.56523
-3.33083
-3.09121
-2.84656
-2.59711
-2.3431
-2.08475
-1.82232
-1.55608
-1.28629
-1.01323
-0.737178
-0.458436
-0.177293