/*--------------------------------*- C++ -*----------------------------------*\
  =========                 |
  \\      /  F ield         | OpenFOAM: The Open Source CFD Toolbox
   \\    /   O peration     | Website:  https://openfoam.org
    \\  /    A nd           | Version:  12
     \\/     M anipulation  |
\*---------------------------------------------------------------------------*/
FoamFile
{
    format      ascii;
    class       surfaceScalarField;
    location    "0.26";
    object      phi;
}
// * * * * * * * * * * * * * * * * * * * * * * * * * * * * * * * * * * * * * //

dimensions      [0 3 -1 0 0 0 0];

internalField   nonuniform List<scalar> 
24170
(
3.1336e-06
5.48062e-08
3.04827e-06
8.53263e-08
2.97315e-06
7.51234e-08
2.90431e-06
6.88357e-08
2.83949e-06
6.48287e-08
2.78226e-06
5.7221e-08
2.73337e-06
4.88991e-08
2.69184e-06
4.15235e-08
2.6564e-06
3.54383e-08
2.62588e-06
3.05208e-08
2.59931e-06
2.65714e-08
2.57589e-06
2.34261e-08
2.55492e-06
2.09659e-08
2.53574e-06
1.91769e-08
2.51772e-06
1.80273e-08
2.49907e-06
1.86451e-08
2.47855e-06
2.05202e-08
3.7637e-08
2.44091e-06
3.45361e-06
1.84443e-08
3.45616e-06
8.27727e-08
3.44962e-06
8.16677e-08
3.438e-06
8.04566e-08
3.42351e-06
7.93164e-08
3.40597e-06
7.4761e-08
3.38634e-06
6.85276e-08
3.36544e-06
6.24261e-08
3.34403e-06
5.68439e-08
3.32273e-06
5.18233e-08
3.30193e-06
4.73721e-08
3.28186e-06
4.34997e-08
3.26262e-06
4.01991e-08
3.24422e-06
3.75795e-08
3.2267e-06
3.55538e-08
3.20989e-06
3.54536e-08
3.19469e-06
3.5713e-08
4.58472e-08
3.18648e-06
3.66535e-06
1.56075e-08
3.67825e-06
6.98732e-08
3.68531e-06
7.46061e-08
3.6896e-06
7.61739e-08
3.69127e-06
7.76421e-08
3.69014e-06
7.58921e-08
3.68669e-06
7.19782e-08
3.6815e-06
6.76205e-08
3.67498e-06
6.33557e-08
3.6675e-06
5.93026e-08
3.65934e-06
5.55378e-08
3.6507e-06
5.21393e-08
3.64174e-06
4.91619e-08
3.63256e-06
4.67544e-08
3.62317e-06
4.49408e-08
3.61401e-06
4.46214e-08
3.60472e-06
4.49951e-08
4.95723e-08
3.601e-06
3.92465e-06
1.63467e-08
3.9358e-06
5.8721e-08
3.94255e-06
6.78616e-08
3.94802e-06
7.06969e-08
3.95244e-06
7.32292e-08
3.95536e-06
7.29707e-08
3.95691e-06
7.0424e-08
3.9574e-06
6.71365e-08
3.957e-06
6.37534e-08
3.95587e-06
6.0434e-08
3.95413e-06
5.72718e-08
3.9519e-06
5.43675e-08
3.94926e-06
5.18037e-08
3.94629e-06
4.97232e-08
3.94303e-06
4.8203e-08
3.93991e-06
4.77433e-08
3.93693e-06
4.79724e-08
4.98359e-08
3.93667e-06
4.20777e-06
1.57062e-08
4.216e-06
5.04886e-08
4.22166e-06
6.21967e-08
4.2266e-06
6.57635e-08
4.2313e-06
6.85287e-08
4.23526e-06
6.90121e-08
4.23835e-06
6.73265e-08
4.24073e-06
6.47645e-08
4.24248e-06
6.19967e-08
4.24371e-06
5.92071e-08
4.24449e-06
5.64967e-08
4.24488e-06
5.39743e-08
4.24495e-06
5.1734e-08
4.24477e-06
4.9897e-08
4.24444e-06
4.85415e-08
4.24427e-06
4.79106e-08
4.24446e-06
4.77838e-08
4.8199e-08
4.24609e-06
4.51044e-06
1.43532e-08
4.51686e-06
4.40654e-08
4.52218e-06
5.68842e-08
4.52684e-06
6.11025e-08
4.53145e-06
6.39137e-08
4.53564e-06
6.4819e-08
4.53923e-06
6.37401e-08
4.54228e-06
6.17178e-08
4.54487e-06
5.94088e-08
4.54705e-06
5.70204e-08
4.54889e-06
5.46595e-08
4.55043e-06
5.24354e-08
4.55172e-06
5.04416e-08
4.55284e-06
4.87733e-08
4.5539e-06
4.74866e-08
4.55514e-06
4.66736e-08
4.55676e-06
4.61563e-08
4.56988e-08
4.55926e-06
4.83412e-06
1.2952e-08
4.83958e-06
3.86054e-08
4.84483e-06
5.16312e-08
4.84943e-06
5.65106e-08
4.85394e-06
5.9402e-08
4.85817e-06
6.0588e-08
4.86194e-06
5.99723e-08
4.86527e-06
5.83803e-08
4.86825e-06
5.64356e-08
4.8709e-06
5.43675e-08
4.87327e-06
5.2288e-08
4.8754e-06
5.03021e-08
4.87735e-06
4.84962e-08
4.87918e-06
4.69407e-08
4.881e-06
4.56653e-08
4.883e-06
4.46785e-08
4.88533e-06
4.38207e-08
4.28278e-08
4.88821e-06
5.1809e-06
1.16319e-08
5.18571e-06
3.37998e-08
5.19084e-06
4.64956e-08
5.19542e-06
5.19299e-08
5.19989e-06
5.49363e-08
5.20415e-06
5.63256e-08
5.20804e-06
5.60861e-08
5.21155e-06
5.48624e-08
5.21476e-06
5.32285e-08
5.2177e-06
5.14313e-08
5.2204e-06
4.95883e-08
5.2229e-06
4.7798e-08
5.22526e-06
4.61373e-08
5.22755e-06
4.46562e-08
5.22985e-06
4.33632e-08
5.2323e-06
4.22264e-08
5.23501e-06
4.11074e-08
3.97932e-08
5.23805e-06
5.5526e-06
1.03684e-08
5.55685e-06
2.95491e-08
5.56177e-06
4.15768e-08
5.56634e-06
4.73611e-08
5.5708e-06
5.04776e-08
5.57511e-06
5.20154e-08
5.57911e-06
5.2087e-08
5.58278e-06
5.11902e-08
5.58617e-06
4.9835e-08
5.58933e-06
4.82777e-08
5.59227e-06
4.66414e-08
5.59505e-06
4.50177e-08
5.59772e-06
4.34738e-08
5.60033e-06
4.20454e-08
5.60296e-06
4.07279e-08
5.60571e-06
3.94758e-08
5.60864e-06
3.81771e-08
3.6684e-08
5.61175e-06
5.95099e-06
9.15823e-09
5.95476e-06
2.57763e-08
5.95942e-06
3.692e-08
5.96395e-06
4.2825e-08
5.96841e-06
4.60184e-08
5.97277e-06
4.7659e-08
5.97687e-06
4.79797e-08
5.98069e-06
4.73701e-08
5.98426e-06
4.62678e-08
5.98761e-06
4.49279e-08
5.99078e-06
4.34774e-08
5.99379e-06
4.20014e-08
5.99671e-06
4.05584e-08
5.99958e-06
3.9175e-08
6.00246e-06
3.78418e-08
6.00542e-06
3.65152e-08
6.00849e-06
3.51109e-08
3.35383e-08
6.01164e-06
6.37796e-06
8.01493e-09
6.38133e-06
2.24038e-08
6.38571e-06
3.25339e-08
6.39019e-06
3.83466e-08
6.39465e-06
4.15645e-08
6.39904e-06
4.32663e-08
6.40324e-06
4.37744e-08
6.40721e-06
4.34078e-08
6.41094e-06
4.25322e-08
6.41448e-06
4.13899e-08
6.41785e-06
4.01087e-08
6.42108e-06
3.87678e-08
6.42422e-06
3.74187e-08
6.42731e-06
3.60835e-08
6.4304e-06
3.47536e-08
6.43352e-06
3.33949e-08
6.43668e-06
3.19491e-08
3.0369e-08
6.43985e-06
5.74175e-06
7.10015e-09
5.74433e-06
1.98187e-08
5.74783e-06
2.90337e-08
5.75156e-06
3.46202e-08
5.75532e-06
3.7808e-08
5.75905e-06
3.9533e-08
5.76267e-06
4.01538e-08
5.76612e-06
3.99552e-08
5.76941e-06
3.92492e-08
5.77254e-06
3.82592e-08
5.77554e-06
3.71101e-08
5.77843e-06
3.58768e-08
5.78124e-06
3.46065e-08
5.784e-06
3.33197e-08
5.78675e-06
3.20112e-08
5.78948e-06
3.0657e-08
5.79222e-06
2.92173e-08
2.76727e-08
5.79491e-06
6.99913e-06
6.12257e-09
7.00187e-06
1.70845e-08
7.00565e-06
2.52461e-08
7.00982e-06
3.04537e-08
7.0141e-06
3.35284e-08
7.0184e-06
3.52345e-08
7.02262e-06
3.59376e-08
7.02668e-06
3.58908e-08
7.03058e-06
3.53516e-08
7.03432e-06
3.45181e-08
7.03792e-06
3.35088e-08
7.0414e-06
3.23938e-08
7.04479e-06
3.12162e-08
7.04812e-06
2.99966e-08
7.05139e-06
2.87352e-08
7.05463e-06
2.74194e-08
7.05782e-06
2.60265e-08
2.45587e-08
7.06093e-06
8.53188e-06
5.09138e-09
8.53473e-06
1.42278e-08
8.53878e-06
2.11983e-08
8.54338e-06
2.58533e-08
8.54821e-06
2.87028e-08
8.55312e-06
3.0327e-08
8.55799e-06
3.10652e-08
8.56274e-06
3.11385e-08
8.56734e-06
3.07526e-08
8.57178e-06
3.00741e-08
8.57608e-06
2.92103e-08
8.58025e-06
2.82257e-08
8.58431e-06
2.71599e-08
8.58827e-06
2.60342e-08
8.59215e-06
2.48551e-08
8.59595e-06
2.36206e-08
8.59965e-06
2.2322e-08
2.09758e-08
8.60324e-06
1.04003e-05
4.01716e-09
1.04033e-05
1.1266e-08
1.04075e-05
1.69089e-08
1.04126e-05
2.08251e-08
1.0418e-05
2.33096e-08
1.04235e-05
2.47651e-08
1.04291e-05
2.54731e-08
1.04346e-05
2.56191e-08
1.044e-05
2.53607e-08
1.04453e-05
2.4829e-08
1.04504e-05
2.41148e-08
1.04553e-05
2.32752e-08
1.04601e-05
2.23459e-08
1.04648e-05
2.13488e-08
1.04694e-05
2.02953e-08
1.04738e-05
1.91917e-08
1.04781e-05
1.8039e-08
1.68613e-08
1.04822e-05
1.26779e-05
2.90553e-09
1.2681e-05
8.19094e-09
1.26855e-05
1.23694e-08
1.2691e-05
1.53579e-08
1.2697e-05
1.73141e-08
1.27033e-05
1.84889e-08
1.27096e-05
1.9085e-08
1.2716e-05
1.92429e-08
1.27223e-05
1.90755e-08
1.27285e-05
1.86766e-08
1.27345e-05
1.81155e-08
1.27403e-05
1.74387e-08
1.2746e-05
1.66764e-08
1.27515e-05
1.58491e-08
1.27568e-05
1.49706e-08
1.27619e-05
1.40514e-08
1.27669e-05
1.30975e-08
1.21353e-08
1.27716e-05
1.54543e-05
1.74542e-09
1.54576e-05
4.95177e-09
1.54624e-05
7.51282e-09
1.54684e-05
9.38181e-09
1.54751e-05
1.0633e-08
1.54822e-05
1.13962e-08
1.54895e-05
1.17866e-08
1.54968e-05
1.18894e-08
1.55041e-05
1.17719e-08
1.55113e-05
1.14904e-08
1.55184e-05
1.10886e-08
1.55252e-05
1.05972e-08
1.55318e-05
1.00381e-08
1.55383e-05
9.4271e-09
1.55445e-05
8.77652e-09
1.55504e-05
8.0969e-09
1.55561e-05
7.39515e-09
6.6954e-09
1.55615e-05
1.88389e-05
4.95456e-10
1.88424e-05
1.4176e-09
1.88478e-05
2.15334e-09
1.88545e-05
2.69194e-09
1.8862e-05
3.05505e-09
1.88702e-05
3.27203e-09
1.88786e-05
3.36538e-09
1.88871e-05
3.3538e-09
1.88956e-05
3.25554e-09
1.8904e-05
3.08697e-09
1.89123e-05
2.8612e-09
1.89203e-05
2.58863e-09
1.8928e-05
2.27788e-09
1.89355e-05
1.93651e-09
1.89427e-05
1.57131e-09
1.89496e-05
1.18915e-09
1.89562e-05
7.9459e-10
4.06671e-10
1.89625e-05
2.29648e-05
-9.51229e-10
2.29689e-05
-2.71277e-09
2.29752e-05
-4.14571e-09
2.29831e-05
-5.2074e-09
2.29921e-05
-5.9147e-09
2.30017e-05
-6.35434e-09
2.30117e-05
-6.61962e-09
2.30218e-05
-6.76924e-09
2.30319e-05
-6.83992e-09
2.30419e-05
-6.86284e-09
2.30516e-05
-6.86311e-09
2.3061e-05
-6.85674e-09
2.30702e-05
-6.85241e-09
2.3079e-05
-6.85457e-09
2.30874e-05
-6.86516e-09
2.30955e-05
-6.8838e-09
2.31032e-05
-6.91028e-09
-6.93246e-09
2.31105e-05
1.68118e-05
-2.09589e-09
1.68151e-05
-5.9454e-09
1.682e-05
-9.07042e-09
1.68261e-05
-1.13269e-08
1.6833e-05
-1.27637e-08
1.68402e-05
-1.36149e-08
1.68477e-05
-1.40847e-08
1.68552e-05
-1.4281e-08
1.68627e-05
-1.42789e-08
1.68699e-05
-1.41489e-08
1.6877e-05
-1.39459e-08
1.68839e-05
-1.37039e-08
1.68905e-05
-1.34435e-08
1.68968e-05
-1.31778e-08
1.69028e-05
-1.2915e-08
1.69086e-05
-1.2659e-08
1.69141e-05
-1.24122e-08
-1.21667e-08
1.69193e-05
1.46357e-05
-3.20399e-09
1.46388e-05
-9.10252e-09
1.46437e-05
-1.3891e-08
1.46495e-05
-1.72039e-08
1.4656e-05
-1.91876e-08
1.46627e-05
-2.03169e-08
1.46695e-05
-2.08938e-08
1.46762e-05
-2.10528e-08
1.46829e-05
-2.09135e-08
1.46893e-05
-2.05922e-08
1.46955e-05
-2.01681e-08
1.47015e-05
-1.96864e-08
1.47073e-05
-1.91759e-08
1.47127e-05
-1.86567e-08
1.4718e-05
-1.81416e-08
1.47229e-05
-1.76371e-08
1.47277e-05
-1.71472e-08
-1.66667e-08
1.47322e-05
1.27412e-05
-4.2515e-09
1.27444e-05
-1.23108e-08
1.27493e-05
-1.88449e-08
1.27551e-05
-2.2993e-08
1.27612e-05
-2.52949e-08
1.27675e-05
-2.65957e-08
1.27738e-05
-2.71995e-08
1.278e-05
-2.72332e-08
1.2786e-05
-2.68883e-08
1.27917e-05
-2.63362e-08
1.27972e-05
-2.56718e-08
1.28025e-05
-2.49446e-08
1.28075e-05
-2.41888e-08
1.28123e-05
-2.34291e-08
1.28168e-05
-2.26805e-08
1.28211e-05
-2.19505e-08
1.28252e-05
-2.12431e-08
-2.05543e-08
1.28291e-05
1.10918e-05
-5.12798e-09
1.10951e-05
-1.56306e-08
1.11004e-05
-2.41366e-08
1.11062e-05
-2.87692e-08
1.1112e-05
-3.11291e-08
1.11179e-05
-3.2506e-08
1.11238e-05
-3.3048e-08
1.11294e-05
-3.28742e-08
1.11348e-05
-3.22763e-08
1.11399e-05
-3.14706e-08
1.11448e-05
-3.05543e-08
1.11495e-05
-2.95787e-08
1.11539e-05
-2.85832e-08
1.1158e-05
-2.75955e-08
1.1162e-05
-2.66304e-08
1.11657e-05
-2.56949e-08
1.11693e-05
-2.4792e-08
-2.39183e-08
1.11726e-05
9.65583e-06
-5.74127e-09
9.65935e-06
-1.91523e-08
9.66495e-06
-2.97337e-08
9.67062e-06
-3.44468e-08
9.67626e-06
-3.67608e-08
9.68188e-06
-3.81328e-08
9.68731e-06
-3.84718e-08
9.69243e-06
-3.79973e-08
9.69727e-06
-3.71166e-08
9.70185e-06
-3.60522e-08
9.70618e-06
-3.48839e-08
9.71027e-06
-3.3663e-08
9.71412e-06
-3.24345e-08
9.71775e-06
-3.12275e-08
9.72117e-06
-3.00563e-08
9.72441e-06
-2.89269e-08
9.72745e-06
-2.78403e-08
-2.67919e-08
9.73033e-06
8.40543e-06
-5.82051e-09
8.4098e-06
-2.35245e-08
8.4153e-06
-3.52326e-08
8.42049e-06
-3.96312e-08
8.42591e-06
-4.21835e-08
8.43137e-06
-4.35951e-08
8.43651e-06
-4.36118e-08
8.44126e-06
-4.2745e-08
8.44567e-06
-4.15309e-08
8.44979e-06
-4.01694e-08
8.45363e-06
-3.8718e-08
8.45719e-06
-3.72285e-08
8.46051e-06
-3.57488e-08
8.46359e-06
-3.43078e-08
8.46645e-06
-3.29193e-08
8.46911e-06
-3.1589e-08
8.47159e-06
-3.03178e-08
-2.91018e-08
8.4739e-06
7.31506e-06
-3.59254e-09
7.32194e-06
-3.04069e-08
7.32738e-06
-4.06784e-08
7.33215e-06
-4.43933e-08
7.33745e-06
-4.74879e-08
7.34282e-06
-4.89604e-08
7.34777e-06
-4.85632e-08
7.35224e-06
-4.72143e-08
7.35627e-06
-4.55612e-08
7.35988e-06
-4.3782e-08
7.3631e-06
-4.19358e-08
7.36596e-06
-4.0086e-08
7.36849e-06
-3.8282e-08
7.37073e-06
-3.65498e-08
7.37271e-06
-3.49012e-08
7.37446e-06
-3.33407e-08
7.37601e-06
-3.18654e-08
-3.0469e-08
7.37738e-06
6.36222e-06
4.25373e-09
6.37294e-06
-4.11291e-08
6.38006e-06
-4.78009e-08
6.38624e-06
-5.05676e-08
6.3922e-06
-5.34494e-08
6.39748e-06
-5.42386e-08
6.40183e-06
-5.2911e-08
6.40539e-06
-5.07787e-08
6.40828e-06
-4.84555e-08
6.41056e-06
-4.60539e-08
6.41226e-06
-4.36412e-08
6.41347e-06
-4.12954e-08
6.41425e-06
-3.90648e-08
6.41467e-06
-3.69691e-08
6.41479e-06
-3.50148e-08
6.41465e-06
-3.32033e-08
6.41431e-06
-3.1526e-08
-2.99628e-08
6.4138e-06
5.53608e-06
1.3639e-08
5.54775e-06
-5.28008e-08
5.55743e-06
-5.74835e-08
5.566e-06
-5.91314e-08
5.57276e-06
-6.02095e-08
5.57717e-06
-5.86511e-08
5.57931e-06
-5.50478e-08
5.57973e-06
-5.12018e-08
5.57886e-06
-4.75878e-08
5.57699e-06
-4.41771e-08
5.57432e-06
-4.09774e-08
5.57105e-06
-3.80263e-08
5.56733e-06
-3.53374e-08
5.56326e-06
-3.29021e-08
5.55895e-06
-3.07063e-08
5.55449e-06
-2.87468e-08
5.54998e-06
-2.70146e-08
-2.54489e-08
5.54547e-06
4.85751e-06
-1.62614e-08
4.86091e-06
-5.6201e-08
4.8615e-06
-5.80739e-08
4.85883e-06
-5.64599e-08
4.85482e-06
-5.61979e-08
4.84811e-06
-5.19497e-08
4.83885e-06
-4.57871e-08
4.82759e-06
-3.99421e-08
4.81497e-06
-3.49686e-08
4.80159e-06
-3.07895e-08
4.78788e-06
-2.72687e-08
4.77415e-06
-2.43031e-08
4.76062e-06
-2.18019e-08
4.7474e-06
-1.9686e-08
4.73459e-06
-1.78924e-08
4.72225e-06
-1.64112e-08
4.71051e-06
-1.5269e-08
-1.49586e-08
4.70002e-06
4.18641e-06
4.13021e-06
4.07214e-06
4.01568e-06
3.95948e-06
3.90753e-06
3.86175e-06
3.8218e-06
3.78683e-06
3.75605e-06
3.72878e-06
3.70447e-06
3.68267e-06
3.66299e-06
3.64509e-06
3.62868e-06
3.61341e-06
3.59845e-06
9.3619e-09
-9.3619e-09
2.02215e-08
-1.08596e-08
2.8066e-08
-7.84457e-09
3.17065e-08
-3.64044e-09
3.09101e-08
7.96338e-10
2.62265e-08
4.68368e-09
1.83709e-08
7.85555e-09
8.08271e-09
1.02882e-08
-4.04082e-09
1.21235e-08
-1.7591e-08
1.35502e-08
-3.23151e-08
1.4724e-08
-4.80611e-08
1.5746e-08
-6.47421e-08
1.6681e-08
-8.23074e-08
1.75653e-08
-1.00725e-07
1.84178e-08
-1.19973e-07
1.92475e-08
-1.40031e-07
2.00582e-08
-1.60882e-07
2.08511e-08
-1.82508e-07
2.16264e-08
-2.04892e-07
2.23831e-08
-2.28011e-07
2.31192e-08
-2.51842e-07
2.38312e-08
-2.76356e-07
2.45137e-08
-3.01515e-07
2.51595e-08
-3.27275e-07
2.57601e-08
-3.53583e-07
2.6308e-08
-3.80385e-07
2.68013e-08
-4.07639e-07
2.72543e-08
-4.3535e-07
2.77113e-08
-4.63596e-07
2.82453e-08
-4.92496e-07
2.89006e-08
-5.22057e-07
2.95608e-08
-5.51983e-07
2.99264e-08
-5.82018e-07
3.0035e-08
-6.12781e-07
3.07624e-08
-6.45064e-07
3.22835e-08
-6.7838e-07
3.33163e-08
-7.15466e-07
3.70856e-08
-7.51977e-07
3.65113e-08
-7.88901e-07
3.69234e-08
-8.3292e-07
4.40187e-08
-8.76608e-07
4.3688e-08
-9.20119e-07
4.35111e-08
-9.63208e-07
4.30893e-08
-1.00229e-06
3.90774e-08
-1.04277e-06
4.04867e-08
-1.08539e-06
4.26204e-08
-1.12908e-06
4.36904e-08
-1.17341e-06
4.43292e-08
-1.21809e-06
4.46805e-08
-1.26294e-06
4.48486e-08
-1.30783e-06
4.48924e-08
-1.35268e-06
4.48483e-08
-1.39742e-06
4.47392e-08
-1.442e-06
4.45793e-08
-1.48638e-06
4.43777e-08
-1.53052e-06
4.41399e-08
-1.57439e-06
4.38691e-08
-1.61795e-06
4.3567e-08
-1.66119e-06
4.32342e-08
-1.70406e-06
4.28706e-08
-1.74653e-06
4.24758e-08
-1.78858e-06
4.20489e-08
-1.83017e-06
4.15889e-08
-1.87127e-06
4.10947e-08
-1.91183e-06
4.05653e-08
-1.95183e-06
3.99996e-08
-1.99123e-06
3.93967e-08
-2.02998e-06
3.87557e-08
-2.06806e-06
3.80761e-08
-2.10542e-06
3.73572e-08
-2.14202e-06
3.65987e-08
-2.17782e-06
3.58004e-08
-2.21278e-06
3.49623e-08
-2.24686e-06
3.40843e-08
-2.28003e-06
3.31669e-08
-2.31224e-06
3.22103e-08
-2.34346e-06
3.12152e-08
-2.37364e-06
3.0182e-08
-2.40275e-06
2.91114e-08
-2.43075e-06
2.80043e-08
-2.45761e-06
2.68614e-08
-2.4833e-06
2.56835e-08
-2.50777e-06
2.44713e-08
-2.531e-06
2.32254e-08
-2.55294e-06
2.19465e-08
-2.57358e-06
2.06347e-08
-2.59287e-06
1.92902e-08
-2.61078e-06
1.79125e-08
-2.62728e-06
1.65007e-08
-2.64233e-06
1.50531e-08
-2.6559e-06
1.35671e-08
-2.66794e-06
1.20391e-08
-2.6784e-06
1.04624e-08
-2.68723e-06
8.8286e-09
-2.69436e-06
7.12578e-09
-2.69969e-06
5.33689e-09
-2.70314e-06
3.45085e-09
-2.70461e-06
1.4709e-09
-2.70408e-06
-5.33019e-10
-2.70189e-06
-2.19409e-09
-2.6981e-06
-3.78462e-09
-2.69276e-06
-5.34525e-09
-2.68586e-06
-6.89857e-09
-2.6774e-06
-8.45626e-09
-2.66738e-06
-1.00203e-08
-2.65579e-06
-1.15903e-08
-2.64263e-06
-1.31645e-08
-2.62789e-06
-1.47411e-08
-2.61157e-06
-1.63179e-08
-2.59368e-06
-1.78928e-08
-2.57421e-06
-1.94638e-08
-2.55318e-06
-2.10286e-08
-2.5306e-06
-2.25852e-08
-2.50647e-06
-2.41314e-08
-2.4808e-06
-2.56653e-08
-2.45362e-06
-2.71847e-08
-2.42493e-06
-2.86875e-08
-2.39476e-06
-3.01716e-08
-2.36312e-06
-3.16351e-08
-2.33005e-06
-3.30757e-08
-2.29555e-06
-3.44918e-08
-2.25967e-06
-3.58813e-08
-2.22243e-06
-3.72423e-08
-2.18386e-06
-3.85733e-08
-2.14399e-06
-3.98723e-08
-2.10285e-06
-4.11378e-08
-2.06048e-06
-4.2368e-08
-2.01692e-06
-4.35614e-08
-1.9722e-06
-4.47165e-08
-1.92637e-06
-4.58316e-08
-1.87946e-06
-4.69057e-08
-1.83153e-06
-4.79375e-08
-1.7826e-06
-4.89259e-08
-1.73273e-06
-4.987e-08
-1.68196e-06
-5.07687e-08
-1.63034e-06
-5.16212e-08
-1.57791e-06
-5.24269e-08
-1.52473e-06
-5.31851e-08
-1.47083e-06
-5.38955e-08
-1.41628e-06
-5.4558e-08
-1.3611e-06
-5.51724e-08
-1.30537e-06
-5.57384e-08
-1.24911e-06
-5.62564e-08
-1.19238e-06
-5.67268e-08
-1.13523e-06
-5.71501e-08
-1.07771e-06
-5.75268e-08
-1.01985e-06
-5.78577e-08
-9.61703e-07
-5.81439e-08
-9.03317e-07
-5.83866e-08
-8.4473e-07
-5.8587e-08
-7.85983e-07
-5.87465e-08
-7.27116e-07
-5.88669e-08
-6.68167e-07
-5.895e-08
-6.09169e-07
-5.89975e-08
-5.50158e-07
-5.90114e-08
-4.91164e-07
-5.89937e-08
-4.32218e-07
-5.89462e-08
-3.73348e-07
-5.88701e-08
-3.14581e-07
-5.87664e-08
-2.55945e-07
-5.86359e-08
-1.97471e-07
-5.84746e-08
-1.39188e-07
-5.82826e-08
-8.11285e-08
-5.80597e-08
-2.33334e-08
-5.77951e-08
3.41617e-08
-5.74951e-08
9.13173e-08
-5.71556e-08
1.48133e-07
-5.68162e-08
2.04632e-07
-5.64984e-08
2.60829e-07
-5.61969e-08
3.1672e-07
-5.58916e-08
3.72277e-07
-5.55567e-08
4.2743e-07
-5.51527e-08
4.82042e-07
-5.46126e-08
5.35849e-07
-5.38062e-08
5.88316e-07
-5.24677e-08
6.38234e-07
-4.99179e-08
6.82754e-07
-4.45199e-08
7.14335e-07
-3.15809e-08
8.34894e-09
7.05986e-07
6.95824e-09
-1.63201e-08
9.35779e-09
-1.32591e-08
7.88164e-09
-6.36842e-09
3.65996e-09
5.81229e-10
-2.67783e-09
7.13414e-09
-1.10173e-08
1.30231e-08
-2.1288e-08
1.81263e-08
-3.34206e-08
2.24208e-08
-4.72839e-08
2.59868e-08
-6.27001e-08
2.89665e-08
-7.94901e-08
3.1514e-08
-9.75035e-08
3.37594e-08
-1.16624e-07
3.58012e-08
-1.36766e-07
3.7708e-08
-1.57873e-07
3.95249e-08
-1.79907e-07
4.12808e-08
-2.02842e-07
4.29933e-08
-2.26664e-07
4.46734e-08
-2.51366e-07
4.63277e-08
-2.76942e-07
4.79599e-08
-3.03395e-07
4.95719e-08
-3.30728e-07
5.11639e-08
-3.5895e-07
5.27358e-08
-3.88078e-07
5.42878e-08
-4.18141e-07
5.58228e-08
-4.49182e-07
5.73493e-08
-4.81267e-07
5.88857e-08
-5.14478e-07
6.04656e-08
-5.48906e-07
6.21392e-08
-5.84622e-07
6.39621e-08
-6.21677e-07
6.59551e-08
-6.60157e-07
6.80409e-08
-7.00278e-07
7.00478e-08
-7.42173e-07
7.19298e-08
-7.85369e-07
7.39581e-08
-8.29373e-07
7.62871e-08
-8.74719e-07
7.86621e-08
-9.18726e-07
8.10928e-08
-9.64822e-07
8.26079e-08
-1.01199e-06
8.4089e-08
-1.05478e-06
8.68109e-08
-1.09857e-06
8.74783e-08
-1.14237e-06
8.73068e-08
-1.18636e-06
8.70816e-08
-1.23321e-06
8.59337e-08
-1.27844e-06
8.57168e-08
-1.32177e-06
8.59469e-08
-1.36415e-06
8.60678e-08
-1.40586e-06
8.60453e-08
-1.44707e-06
8.58889e-08
-1.48784e-06
8.56186e-08
-1.5282e-06
8.5254e-08
-1.56817e-06
8.48109e-08
-1.60773e-06
8.43012e-08
-1.64688e-06
8.37333e-08
-1.68562e-06
8.31123e-08
-1.72392e-06
8.2441e-08
-1.76177e-06
8.17207e-08
-1.79915e-06
8.09513e-08
-1.83605e-06
8.01316e-08
-1.87244e-06
7.92603e-08
-1.9083e-06
7.83352e-08
-1.94361e-06
7.73542e-08
-1.97833e-06
7.63152e-08
-2.01245e-06
7.5216e-08
-2.04594e-06
7.40545e-08
-2.07877e-06
7.2829e-08
-2.11091e-06
7.15378e-08
-2.14234e-06
7.01794e-08
-2.17301e-06
6.87529e-08
-2.20291e-06
6.72574e-08
-2.23201e-06
6.56923e-08
-2.26027e-06
6.40574e-08
-2.28766e-06
6.23525e-08
-2.31415e-06
6.05781e-08
-2.33972e-06
5.87346e-08
-2.36433e-06
5.68225e-08
-2.38796e-06
5.48429e-08
-2.41057e-06
5.27968e-08
-2.43215e-06
5.06852e-08
-2.45265e-06
4.85096e-08
-2.47206e-06
4.62711e-08
-2.49035e-06
4.39712e-08
-2.50749e-06
4.1611e-08
-2.52345e-06
3.91918e-08
-2.53822e-06
3.67147e-08
-2.55177e-06
3.41805e-08
-2.56407e-06
3.15897e-08
-2.5751e-06
2.89427e-08
-2.58484e-06
2.62394e-08
-2.59326e-06
2.34793e-08
-2.60036e-06
2.06618e-08
-2.6061e-06
1.77862e-08
-2.61049e-06
1.48518e-08
-2.61352e-06
1.18591e-08
-2.61521e-06
8.8112e-09
-2.61559e-06
5.71657e-09
-2.61474e-06
2.59682e-09
-2.61278e-06
-4.85868e-10
-2.60973e-06
-3.58599e-09
-2.60533e-06
-6.59199e-09
-2.59949e-06
-9.62053e-09
-2.59217e-06
-1.26709e-08
-2.58332e-06
-1.57402e-08
-2.57295e-06
-1.88278e-08
-2.56104e-06
-2.19312e-08
-2.54759e-06
-2.50473e-08
-2.53258e-06
-2.81721e-08
-2.51602e-06
-3.13015e-08
-2.4979e-06
-3.44313e-08
-2.47824e-06
-3.75573e-08
-2.45703e-06
-4.06751e-08
-2.43428e-06
-4.37805e-08
-2.40999e-06
-4.68696e-08
-2.38419e-06
-4.99378e-08
-2.35687e-06
-5.29813e-08
-2.32806e-06
-5.59959e-08
-2.29777e-06
-5.89773e-08
-2.26602e-06
-6.19216e-08
-2.23283e-06
-6.48246e-08
-2.19822e-06
-6.76823e-08
-2.16222e-06
-7.04909e-08
-2.12486e-06
-7.32464e-08
-2.08615e-06
-7.59453e-08
-2.04614e-06
-7.85842e-08
-2.00486e-06
-8.11594e-08
-1.96233e-06
-8.36678e-08
-1.91859e-06
-8.6106e-08
-1.87368e-06
-8.84709e-08
-1.82764e-06
-9.07593e-08
-1.7805e-06
-9.29683e-08
-1.73231e-06
-9.50954e-08
-1.68311e-06
-9.71382e-08
-1.63294e-06
-9.90946e-08
-1.58185e-06
-1.00963e-07
-1.52988e-06
-1.0274e-07
-1.47707e-06
-1.04426e-07
-1.42348e-06
-1.06018e-07
-1.36915e-06
-1.07516e-07
-1.31413e-06
-1.08919e-07
-1.25846e-06
-1.10226e-07
-1.20219e-06
-1.11437e-07
-1.14538e-06
-1.12552e-07
-1.08807e-06
-1.13571e-07
-1.0303e-06
-1.14495e-07
-9.72121e-07
-1.15326e-07
-9.13584e-07
-1.16064e-07
-8.54731e-07
-1.16711e-07
-7.95607e-07
-1.17268e-07
-7.36254e-07
-1.17739e-07
-6.76715e-07
-1.18126e-07
-6.1703e-07
-1.18431e-07
-5.57238e-07
-1.18659e-07
-4.97375e-07
-1.18813e-07
-4.37478e-07
-1.18895e-07
-3.77578e-07
-1.18911e-07
-3.17707e-07
-1.18865e-07
-2.57894e-07
-1.18759e-07
-1.98167e-07
-1.18597e-07
-1.38552e-07
-1.18381e-07
-7.90733e-08
-1.18114e-07
-1.97554e-08
-1.17792e-07
3.93757e-08
-1.17414e-07
9.8294e-08
-1.16978e-07
1.56982e-07
-1.16483e-07
2.15428e-07
-1.15941e-07
2.73635e-07
-1.15363e-07
3.31601e-07
-1.14781e-07
3.89317e-07
-1.14215e-07
4.46775e-07
-1.13655e-07
5.03955e-07
-1.13072e-07
5.60816e-07
-1.12418e-07
6.17281e-07
-1.11617e-07
6.73205e-07
-1.10536e-07
7.28319e-07
-1.08921e-07
7.82132e-07
-1.0628e-07
8.33675e-07
-1.01461e-07
8.81343e-07
-9.21874e-08
9.21839e-07
-7.2077e-08
-2.50973e-08
9.55285e-07
2.02291e-11
-1.63404e-08
-4.81268e-09
-8.42621e-09
-1.20689e-08
8.87759e-10
-2.08308e-08
9.34318e-09
-3.08147e-08
1.7118e-08
-4.19706e-08
2.4179e-08
-5.43406e-08
3.04964e-08
-6.7988e-08
3.60682e-08
-8.2945e-08
4.09438e-08
-9.91956e-08
4.52171e-08
-1.16685e-07
4.90036e-08
-1.35344e-07
5.24178e-08
-1.55101e-07
5.5559e-08
-1.75899e-07
5.8506e-08
-1.97693e-07
6.13181e-08
-2.20449e-07
6.40377e-08
-2.44151e-07
6.66946e-08
-2.68787e-07
6.93098e-08
-2.94357e-07
7.18975e-08
-3.20865e-07
7.44682e-08
-3.48323e-07
7.70292e-08
-3.76745e-07
7.95863e-08
-4.06154e-07
8.21452e-08
-4.36579e-07
8.47126e-08
-4.68054e-07
8.72979e-08
-5.0062e-07
8.99151e-08
-5.34318e-07
9.25832e-08
-5.69178e-07
9.53258e-08
-6.05204e-07
9.81652e-08
-6.42352e-07
1.0111e-07
-6.80533e-07
1.04137e-07
-7.1966e-07
1.07167e-07
-7.59694e-07
1.10081e-07
-8.00549e-07
1.12786e-07
-8.41872e-07
1.15281e-07
-8.83199e-07
1.17615e-07
-9.24324e-07
1.19786e-07
-9.64875e-07
1.21644e-07
-1.00538e-06
1.23113e-07
-1.04559e-06
1.24301e-07
-1.08407e-06
1.25288e-07
-1.1222e-06
1.25607e-07
-1.16032e-06
1.25426e-07
-1.19826e-06
1.25025e-07
-1.23673e-06
1.24399e-07
-1.27487e-06
1.2386e-07
-1.31234e-06
1.2342e-07
-1.34925e-06
1.22976e-07
-1.3857e-06
1.2249e-07
-1.42175e-06
1.21944e-07
-1.45746e-06
1.21332e-07
-1.49286e-06
1.20652e-07
-1.52796e-06
1.19908e-07
-1.56276e-06
1.19101e-07
-1.59726e-06
1.18232e-07
-1.63145e-06
1.17302e-07
-1.66532e-06
1.1631e-07
-1.69885e-06
1.15253e-07
-1.73203e-06
1.1413e-07
-1.76483e-06
1.12937e-07
-1.79724e-06
1.11671e-07
-1.82923e-06
1.10328e-07
-1.86079e-06
1.08905e-07
-1.89187e-06
1.07399e-07
-1.92246e-06
1.05806e-07
-1.95253e-06
1.04123e-07
-1.98205e-06
1.02347e-07
-2.01099e-06
1.00477e-07
-2.03932e-06
9.851e-08
-2.06701e-06
9.64443e-08
-2.09403e-06
9.42789e-08
-2.12035e-06
9.2013e-08
-2.14594e-06
8.96461e-08
-2.17076e-06
8.71782e-08
-2.1948e-06
8.46096e-08
-2.218e-06
8.19407e-08
-2.24035e-06
7.91727e-08
-2.26182e-06
7.63066e-08
-2.28236e-06
7.33439e-08
-2.30196e-06
7.02863e-08
-2.32059e-06
6.71354e-08
-2.33821e-06
6.38934e-08
-2.3548e-06
6.05621e-08
-2.37034e-06
5.71436e-08
-2.38478e-06
5.36399e-08
-2.39812e-06
5.00528e-08
-2.41033e-06
4.63844e-08
-2.42137e-06
4.26361e-08
-2.43124e-06
3.88096e-08
-2.43991e-06
3.49065e-08
-2.44735e-06
3.09281e-08
-2.45357e-06
2.68763e-08
-2.45854e-06
2.27535e-08
-2.46225e-06
1.85633e-08
-2.4647e-06
1.4311e-08
-2.46589e-06
1.00047e-08
-2.46583e-06
5.65679e-09
-2.46452e-06
1.28413e-09
-2.46191e-06
-3.09194e-09
-2.45801e-06
-7.48823e-09
-2.4527e-06
-1.19032e-08
-2.44596e-06
-1.6361e-08
-2.43777e-06
-2.08607e-08
-2.42811e-06
-2.53976e-08
-2.41698e-06
-2.99661e-08
-2.40435e-06
-3.45603e-08
-2.39022e-06
-3.91741e-08
-2.37459e-06
-4.38014e-08
-2.35746e-06
-4.84357e-08
-2.33882e-06
-5.30707e-08
-2.31867e-06
-5.77001e-08
-2.29703e-06
-6.23176e-08
-2.2739e-06
-6.69169e-08
-2.24927e-06
-7.14918e-08
-2.22317e-06
-7.60362e-08
-2.19561e-06
-8.05438e-08
-2.1666e-06
-8.50085e-08
-2.13615e-06
-8.94244e-08
-2.10429e-06
-9.37851e-08
-2.07103e-06
-9.80848e-08
-2.03639e-06
-1.02317e-07
-2.00041e-06
-1.06477e-07
-1.9631e-06
-1.10558e-07
-1.92449e-06
-1.14555e-07
-1.88461e-06
-1.18463e-07
-1.84349e-06
-1.22277e-07
-1.80117e-06
-1.25991e-07
-1.75767e-06
-1.29601e-07
-1.71304e-06
-1.33103e-07
-1.66731e-06
-1.36491e-07
-1.62051e-06
-1.39761e-07
-1.5727e-06
-1.4291e-07
-1.5239e-06
-1.45933e-07
-1.47417e-06
-1.48828e-07
-1.42354e-06
-1.51592e-07
-1.37206e-06
-1.54222e-07
-1.31977e-06
-1.56715e-07
-1.26672e-06
-1.59069e-07
-1.21295e-06
-1.61283e-07
-1.15852e-06
-1.63356e-07
-1.10346e-06
-1.65286e-07
-1.04782e-06
-1.67075e-07
-9.9165e-07
-1.6872e-07
-9.34997e-07
-1.70224e-07
-8.77907e-07
-1.71586e-07
-8.20424e-07
-1.72809e-07
-7.62594e-07
-1.73894e-07
-7.04461e-07
-1.74844e-07
-6.46067e-07
-1.75662e-07
-5.87455e-07
-1.76351e-07
-5.28666e-07
-1.76915e-07
-4.69739e-07
-1.77359e-07
-4.10711e-07
-1.77687e-07
-3.51619e-07
-1.77905e-07
-2.92497e-07
-1.78018e-07
-2.33376e-07
-1.78032e-07
-1.74286e-07
-1.77954e-07
-1.15257e-07
-1.77788e-07
-5.6313e-08
-1.77541e-07
2.52156e-09
-1.77216e-07
6.12227e-08
-1.76815e-07
1.19769e-07
-1.76339e-07
1.78143e-07
-1.75787e-07
2.36327e-07
-1.75163e-07
2.94319e-07
-1.74475e-07
3.52123e-07
-1.73745e-07
4.0975e-07
-1.7299e-07
4.67188e-07
-1.72219e-07
5.24415e-07
-1.71443e-07
5.81413e-07
-1.70652e-07
6.38153e-07
-1.69812e-07
6.94591e-07
-1.68856e-07
7.50647e-07
-1.67674e-07
8.06185e-07
-1.66074e-07
8.60969e-07
-1.63705e-07
9.14596e-07
-1.59908e-07
9.66438e-07
-1.53303e-07
1.0156e-06
-1.41344e-07
1.06156e-06
-1.18039e-07
-7.20203e-08
1.10848e-06
-6.24604e-09
-1.00943e-08
-1.62725e-08
1.60022e-09
-2.74803e-08
1.20955e-08
-3.94934e-08
2.13563e-08
-5.21857e-08
2.98104e-08
-6.5584e-08
3.75773e-08
-7.97704e-08
4.46827e-08
-9.48419e-08
5.11397e-08
-1.1088e-07
5.69821e-08
-1.27935e-07
6.22718e-08
-1.46022e-07
6.70909e-08
-1.65134e-07
7.15291e-08
-1.85247e-07
7.5672e-08
-2.06335e-07
7.95945e-08
-2.28375e-07
8.33576e-08
-2.51346e-07
8.70091e-08
-2.75236e-07
9.05849e-08
-3.00038e-07
9.41116e-08
-3.25749e-07
9.76085e-08
-3.5237e-07
1.0109e-07
-3.79906e-07
1.04565e-07
-4.08361e-07
1.08041e-07
-4.3774e-07
1.11525e-07
-4.68047e-07
1.1502e-07
-4.9928e-07
1.18531e-07
-5.31427e-07
1.22062e-07
-5.64461e-07
1.25617e-07
-5.98328e-07
1.29193e-07
-6.32942e-07
1.32779e-07
-6.68178e-07
1.36346e-07
-7.0388e-07
1.39839e-07
-7.39893e-07
1.4318e-07
-7.76087e-07
1.46275e-07
-8.12349e-07
1.49048e-07
-8.4854e-07
1.51471e-07
-8.8448e-07
1.53555e-07
-9.20011e-07
1.55317e-07
-9.55109e-07
1.56742e-07
-9.89814e-07
1.57818e-07
-1.02409e-06
1.58577e-07
-1.05781e-06
1.59008e-07
-1.09125e-06
1.59043e-07
-1.12459e-06
1.5877e-07
-1.15785e-06
1.58283e-07
-1.1911e-06
1.57649e-07
-1.22422e-06
1.56983e-07
-1.25712e-06
1.56315e-07
-1.28977e-06
1.55627e-07
-1.32218e-06
1.54905e-07
-1.35438e-06
1.54138e-07
-1.38636e-06
1.53317e-07
-1.41815e-06
1.52437e-07
-1.44973e-06
1.51495e-07
-1.48112e-06
1.50486e-07
-1.51229e-06
1.49408e-07
-1.54325e-06
1.48258e-07
-1.57397e-06
1.4703e-07
-1.60444e-06
1.4572e-07
-1.63463e-06
1.44324e-07
-1.66453e-06
1.42837e-07
-1.69412e-06
1.41254e-07
-1.72336e-06
1.3957e-07
-1.75223e-06
1.3778e-07
-1.78071e-06
1.35879e-07
-1.80877e-06
1.33863e-07
-1.83638e-06
1.31729e-07
-1.8635e-06
1.29472e-07
-1.89011e-06
1.2709e-07
-1.91619e-06
1.2458e-07
-1.94168e-06
1.21941e-07
-1.96657e-06
1.1917e-07
-1.99083e-06
1.16266e-07
-2.01441e-06
1.1323e-07
-2.03729e-06
1.1006e-07
-2.05944e-06
1.06758e-07
-2.08082e-06
1.03324e-07
-2.10141e-06
9.97593e-08
-2.12117e-06
9.60656e-08
-2.14007e-06
9.22447e-08
-2.15808e-06
8.82988e-08
-2.17518e-06
8.42303e-08
-2.19132e-06
8.00419e-08
-2.2065e-06
7.57363e-08
-2.22067e-06
7.13164e-08
-2.23382e-06
6.67851e-08
-2.24591e-06
6.21453e-08
-2.25693e-06
5.73999e-08
-2.26684e-06
5.25519e-08
-2.27564e-06
4.76039e-08
-2.28329e-06
4.25589e-08
-2.28978e-06
3.74201e-08
-2.29509e-06
3.21907e-08
-2.29922e-06
2.68751e-08
-2.30213e-06
2.14782e-08
-2.30383e-06
1.60066e-08
-2.30429e-06
1.0468e-08
-2.3035e-06
4.87211e-09
-2.30145e-06
-7.71613e-10
-2.29808e-06
-6.45647e-09
-2.29338e-06
-1.21879e-08
-2.28731e-06
-1.79738e-08
-2.27985e-06
-2.3821e-08
-2.27099e-06
-2.97255e-08
-2.26071e-06
-3.56809e-08
-2.24899e-06
-4.16792e-08
-2.23584e-06
-4.77123e-08
-2.22124e-06
-5.37717e-08
-2.2052e-06
-5.98491e-08
-2.1877e-06
-6.5936e-08
-2.16874e-06
-7.20241e-08
-2.14834e-06
-7.81049e-08
-2.12648e-06
-8.41702e-08
-2.10319e-06
-9.02118e-08
-2.07846e-06
-9.62213e-08
-2.05231e-06
-1.02191e-07
-2.02474e-06
-1.08112e-07
-1.99577e-06
-1.13977e-07
-1.96541e-06
-1.19778e-07