/*--------------------------------*- C++ -*----------------------------------*\
  =========                 |
  \\      /  F ield         | OpenFOAM: The Open Source CFD Toolbox
   \\    /   O peration     | Website:  https://openfoam.org
    \\  /    A nd           | Version:  12
     \\/     M anipulation  |
\*---------------------------------------------------------------------------*/
FoamFile
{
    format      ascii;
    class       volVectorField;
    location    "0.26";
    object      U;
}
// * * * * * * * * * * * * * * * * * * * * * * * * * * * * * * * * * * * * * //

dimensions      [0 1 -1 0 0 0 0];

internalField   nonuniform List<vector> 
12225
(
(9.86107 -0.874318 0)
(9.67248 -0.700192 0)
(9.45897 -0.387593 0)
(9.22467 -0.188479 0)
(9.00349 -0.0843945 0)
(8.8104 -0.0328771 0)
(8.64513 -0.00755232 0)
(8.50413 0.0050227 0)
(8.38396 0.011334 0)
(8.28109 0.0144694 0)
(8.19213 0.0159637 0)
(8.11422 0.0166322 0)
(8.04495 0.0169172 0)
(7.98253 0.0171102 0)
(7.92404 0.0174033 0)
(7.87046 0.0185014 0)
(7.80122 0.0214627 0)
(7.77494 0.0298393 0)
(10.0547 0.263069 0)
(10.1201 0.36074 0)
(10.118 0.27382 0)
(10.0826 0.187086 0)
(10.0405 0.13116 0)
(9.99392 0.096924 0)
(9.94012 0.0755534 0)
(9.8804 0.0617452 0)
(9.81784 0.0523383 0)
(9.75493 0.0455199 0)
(9.6931 0.0403466 0)
(9.63318 0.0363575 0)
(9.57554 0.0332961 0)
(9.52058 0.0311427 0)
(9.4675 0.0297309 0)
(9.41877 0.0308188 0)
(9.36743 0.0318837 0)
(9.34218 0.0521734 0)
(9.99919 0.0460864 0)
(10.0244 0.0342083 0)
(10.0538 0.0149478 0)
(10.0708 0.0218074 0)
(10.0778 0.0366681 0)
(10.0783 0.0460031 0)
(10.0722 0.049942 0)
(10.0603 0.0511312 0)
(10.0439 0.0510356 0)
(10.0246 0.0503165 0)
(10.0031 0.0493447 0)
(9.98003 0.0483662 0)
(9.9559 0.0475307 0)
(9.93113 0.0470706 0)
(9.90567 0.0470584 0)
(9.88056 0.0488216 0)
(9.85504 0.0515368 0)
(9.83515 0.0628332 0)
(9.9968 0.00642737 0)
(10.0085 0.0250166 0)
(10.0342 0.0389348 0)
(10.0528 0.0502976 0)
(10.0644 0.0571008 0)
(10.0731 0.0591547 0)
(10.079 0.0588402 0)
(10.0817 0.0579171 0)
(10.0816 0.056907 0)
(10.0795 0.0558852 0)
(10.0758 0.0549041 0)
(10.0707 0.0540501 0)
(10.0645 0.0534129 0)
(10.0573 0.0531848 0)
(10.0493 0.0534984 0)
(10.0412 0.0552231 0)
(10.0333 0.0580242 0)
(10.0278 0.0643797 0)
(9.99922 0.00673665 0)
(10.0081 0.0335713 0)
(10.0271 0.0460387 0)
(10.0418 0.0508381 0)
(10.0524 0.053904 0)
(10.0622 0.0554896 0)
(10.0708 0.0558328 0)
(10.0775 0.0556448 0)
(10.0823 0.0552714 0)
(10.0858 0.0548038 0)
(10.0881 0.0543159 0)
(10.0895 0.0539119 0)
(10.09 0.0537006 0)
(10.0898 0.0538547 0)
(10.0892 0.0545234 0)
(10.0885 0.0561925 0)
(10.0884 0.0586737 0)
(10.09 0.0624464 0)
(10.0002 0.00907299 0)
(10.0078 0.0321214 0)
(10.0225 0.0419053 0)
(10.035 0.0456566 0)
(10.0448 0.0491131 0)
(10.0542 0.0516459 0)
(10.063 0.0527808 0)
(10.0705 0.0531281 0)
(10.0767 0.0531629 0)
(10.0819 0.0530491 0)
(10.0864 0.052878 0)
(10.0901 0.052757 0)
(10.0932 0.0527957 0)
(10.0959 0.0531361 0)
(10.0982 0.0538998 0)
(10.1007 0.0553246 0)
(10.1037 0.0572515 0)
(10.1081 0.0595261 0)
(10.0003 0.00879918 0)
(10.0068 0.0275139 0)
(10.019 0.0370757 0)
(10.0303 0.0417301 0)
(10.0395 0.0456469 0)
(10.0482 0.0484674 0)
(10.0566 0.0498729 0)
(10.0641 0.0504609 0)
(10.0706 0.0507171 0)
(10.0764 0.0508136 0)
(10.0815 0.0508366 0)
(10.0862 0.0508853 0)
(10.0904 0.0510603 0)
(10.0943 0.0514699 0)
(10.098 0.0521953 0)
(10.1019 0.0533267 0)
(10.1062 0.0547031 0)
(10.1116 0.0560054 0)
(10.0004 0.00783597 0)
(10.0057 0.0236903 0)
(10.016 0.0333608 0)
(10.0264 0.0385749 0)
(10.0351 0.0424654 0)
(10.0433 0.0452541 0)
(10.0512 0.0468027 0)
(10.0585 0.0475763 0)
(10.0649 0.0479996 0)
(10.0708 0.0482459 0)
(10.0763 0.0484019 0)
(10.0813 0.0485587 0)
(10.0859 0.0488037 0)
(10.0904 0.0492151 0)
(10.0948 0.049836 0)
(10.0993 0.0506735 0)
(10.1042 0.0515673 0)
(10.1098 0.05221 0)
(10.0004 0.0069498 0)
(10.0049 0.0207027 0)
(10.0136 0.0300259 0)
(10.023 0.0353871 0)
(10.0312 0.0391665 0)
(10.0389 0.0419212 0)
(10.0464 0.043605 0)
(10.0534 0.0445433 0)
(10.0598 0.0451004 0)
(10.0656 0.0454572 0)
(10.0711 0.0457054 0)
(10.0763 0.0459269 0)
(10.0812 0.0461948 0)
(10.0859 0.0465624 0)
(10.0906 0.0470444 0)
(10.0954 0.0476066 0)
(10.1005 0.0481031 0)
(10.1059 0.0482949 0)
(10.0004 0.00616288 0)
(10.0042 0.0181169 0)
(10.0116 0.0267877 0)
(10.0199 0.0321232 0)
(10.0277 0.0358263 0)
(10.035 0.0385496 0)
(10.0421 0.0403261 0)
(10.0488 0.041389 0)
(10.055 0.0420479 0)
(10.0608 0.0424853 0)
(10.0663 0.042795 0)
(10.0715 0.0430495 0)
(10.0764 0.0433079 0)
(10.0813 0.0436049 0)
(10.0861 0.0439376 0)
(10.091 0.0442572 0)
(10.096 0.0444416 0)
(10.1013 0.0443261 0)
(10.0003 0.00542596 0)
(10.0036 0.0157939 0)
(10.0099 0.023701 0)
(10.0173 0.0288929 0)
(10.0245 0.032504 0)
(10.0314 0.0351604 0)
(10.0381 0.0369703 0)
(10.0446 0.0381138 0)
(10.0506 0.0388458 0)
(10.0563 0.0393391 0)
(10.0617 0.039686 0)
(10.0669 0.0399501 0)
(10.0719 0.0401784 0)
(10.0767 0.0403933 0)
(10.0816 0.0405833 0)
(10.0864 0.0407002 0)
(10.0913 0.0406498 0)
(10.0964 0.0403288 0)
(10.0003 0.0047734 0)
(10.0031 0.0138484 0)
(10.0086 0.0210263 0)
(10.0152 0.025985 0)
(10.0219 0.0294684 0)
(10.0285 0.0320297 0)
(10.0349 0.0338254 0)
(10.041 0.0350055 0)
(10.0469 0.0357783 0)
(10.0525 0.036301 0)
(10.0578 0.0366622 0)
(10.063 0.0369182 0)
(10.0679 0.0371071 0)
(10.0728 0.0372441 0)
(10.0775 0.0373163 0)
(10.0823 0.0372832 0)
(10.0871 0.0370746 0)
(10.0918 0.0366318 0)
(10.0003 0.00416685 0)
(10.0028 0.012081 0)
(10.0075 0.0185116 0)
(10.0134 0.0231466 0)
(10.0197 0.0264598 0)
(10.0258 0.0289023 0)
(10.0319 0.0306497 0)
(10.0378 0.0318345 0)
(10.0435 0.0326251 0)
(10.049 0.0331595 0)
(10.0542 0.0335203 0)
(10.0593 0.0337579 0)
(10.0642 0.0339036 0)
(10.069 0.0339686 0)
(10.0737 0.0339418 0)
(10.0784 0.0337922 0)
(10.0829 0.0334703 0)
(10.0875 0.0329495 0)
(10.0003 0.00353491 0)
(10.0024 0.0102425 0)
(10.0064 0.0158188 0)
(10.0117 0.019999 0)
(10.0174 0.0230542 0)
(10.0232 0.0253193 0)
(10.0289 0.026967 0)
(10.0346 0.0281144 0)
(10.0401 0.0288929 0)
(10.0454 0.0294162 0)
(10.0505 0.0297582 0)
(10.0555 0.0299631 0)
(10.0603 0.0300564 0)
(10.065 0.0300476 0)
(10.0696 0.0299294 0)
(10.0741 0.0296823 0)
(10.0785 0.0292754 0)
(10.0828 0.0287066 0)
(10.0002 0.00287597 0)
(10.002 0.00833192 0)
(10.0055 0.0129581 0)
(10.0101 0.0165487 0)
(10.0153 0.0192365 0)
(10.0206 0.021247 0)
(10.026 0.0227286 0)
(10.0314 0.0237816 0)
(10.0366 0.0245044 0)
(10.0418 0.0249846 0)
(10.0467 0.0252837 0)
(10.0516 0.0254392 0)
(10.0562 0.0254723 0)
(10.0608 0.0253921 0)
(10.0653 0.0251964 0)
(10.0696 0.0248764 0)
(10.0738 0.0244167 0)
(10.0778 0.0238312 0)
(10.0002 0.00219036 0)
(10.0017 0.00635 0)
(10.0047 0.00993475 0)
(10.0088 0.0127972 0)
(10.0134 0.0149898 0)
(10.0183 0.0166476 0)
(10.0233 0.0178808 0)
(10.0284 0.0187674 0)
(10.0334 0.019377 0)
(10.0383 0.0197717 0)
(10.0431 0.0199981 0)
(10.0478 0.0200859 0)
(10.0523 0.0200526 0)
(10.0567 0.0199071 0)
(10.061 0.019652 0)
(10.0651 0.0192866 0)
(10.0691 0.018806 0)
(10.0729 0.0182327 0)
(10.0002 0.00147498 0)
(10.0015 0.0042803 0)
(10.0041 0.00672654 0)
(10.0077 0.00872102 0)
(10.0119 0.0102781 0)
(10.0164 0.0114671 0)
(10.0211 0.0123547 0)
(10.0258 0.0129914 0)
(10.0306 0.0134204 0)
(10.0353 0.0136801 0)
(10.0399 0.0138005 0)
(10.0444 0.013802 0)
(10.0487 0.0136977 0)
(10.053 0.0134954 0)
(10.0571 0.0132 0)
(10.061 0.0128153 0)
(10.0648 0.0123418 0)
(10.0684 0.0118045 0)
(10.0001 0.000712264 0)
(10.0013 0.0020671 0)
(10.0037 0.00325439 0)
(10.0069 0.00423263 0)
(10.0108 0.00500401 0)
(10.015 0.00559303 0)
(10.0194 0.00602457 0)
(10.0239 0.00631862 0)
(10.0285 0.0064929 0)
(10.033 0.00656324 0)
(10.0374 0.00654222 0)
(10.0417 0.00643879 0)
(10.0459 0.00625918 0)
(10.05 0.00600806 0)
(10.0539 0.00568929 0)
(10.0576 0.00530718 0)
(10.0612 0.00486372 0)
(10.0646 0.00438166 0)
(10.0001 -0.000144378 0)
(10.0013 -0.000421343 0)
(10.0035 -0.000670189 0)
(10.0066 -0.000878473 0)
(10.0104 -0.00104374 0)
(10.0145 -0.00117986 0)
(10.0188 -0.0013061 0)
(10.0232 -0.00143634 0)
(10.0276 -0.00157927 0)
(10.032 -0.00174207 0)
(10.0363 -0.00193123 0)
(10.0405 -0.00215173 0)
(10.0445 -0.00240673 0)
(10.0484 -0.0026979 0)
(10.0522 -0.00302568 0)
(10.0558 -0.00338883 0)
(10.0592 -0.00378717 0)
(10.0625 -0.00420375 0)
(10.0001 -0.00096783 0)
(10.0014 -0.00282004 0)
(10.0037 -0.00445929 0)
(10.0071 -0.00580364 0)
(10.011 -0.00684685 0)
(10.0153 -0.00765049 0)
(10.0197 -0.00828152 0)
(10.0242 -0.0087852 0)
(10.0287 -0.00919607 0)
(10.033 -0.00954612 0)
(10.0373 -0.00986186 0)
(10.0415 -0.0101619 0)
(10.0455 -0.0104585 0)
(10.0493 -0.0107604 0)
(10.053 -0.0110734 0)
(10.0565 -0.0114003 0)
(10.0599 -0.0117438 0)
(10.0631 -0.0120927 0)
(10.0002 -0.00168117 0)
(10.0015 -0.00492162 0)
(10.0042 -0.00777921 0)
(10.0079 -0.0100507 0)
(10.0123 -0.0117517 0)
(10.0168 -0.0130387 0)
(10.0215 -0.0140297 0)
(10.0261 -0.0147839 0)
(10.0307 -0.0153556 0)
(10.0352 -0.0158036 0)
(10.0395 -0.0161751 0)
(10.0437 -0.0165001 0)
(10.0477 -0.0167981 0)
(10.0515 -0.0170832 0)
(10.0552 -0.0173648 0)
(10.0587 -0.0176489 0)
(10.062 -0.0179395 0)
(10.0652 -0.0182293 0)
(10.0002 -0.00236252 0)
(10.0017 -0.00700855 0)
(10.0048 -0.0111123 0)
(10.0092 -0.0142158 0)
(10.0141 -0.016413 0)
(10.019 -0.0180416 0)
(10.0239 -0.0192818 0)
(10.0288 -0.020198 0)
(10.0336 -0.0208622 0)
(10.0382 -0.021357 0)
(10.0427 -0.0217438 0)
(10.0469 -0.0220607 0)
(10.0509 -0.0223339 0)
(10.0548 -0.0225825 0)
(10.0584 -0.0228197 0)
(10.0619 -0.0230532 0)
(10.0652 -0.0232881 0)
(10.0683 -0.0235196 0)
(10.0002 -0.00299755 0)
(10.0018 -0.00911578 0)
(10.0056 -0.0144913 0)
(10.0108 -0.0183387 0)
(10.0163 -0.0209611 0)
(10.0217 -0.0228584 0)
(10.027 -0.0242253 0)
(10.0321 -0.0251675 0)
(10.0371 -0.0258228 0)
(10.0419 -0.0263025 0)
(10.0464 -0.0266667 0)
(10.0507 -0.0269505 0)
(10.0548 -0.0271825 0)
(10.0586 -0.0273853 0)
(10.0623 -0.0275738 0)
(10.0658 -0.0277564 0)
(10.069 -0.0279381 0)
(10.0722 -0.028116 0)
(10.0001 -0.00357308 0)
(10.0019 -0.0115451 0)
(10.0064 -0.017942 0)
(10.0127 -0.0220716 0)
(10.0189 -0.0250571 0)
(10.0247 -0.0273597 0)
(10.0304 -0.028904 0)
(10.0359 -0.0298192 0)
(10.0411 -0.0303822 0)
(10.046 -0.0307712 0)
(10.0506 -0.0310521 0)
(10.0549 -0.0312569 0)
(10.059 -0.031415 0)
(10.0629 -0.0315499 0)
(10.0666 -0.0316753 0)
(10.07 -0.031798 0)
(10.0733 -0.0319214 0)
(10.0763 -0.0320417 0)
(9.99997 -0.0036924 0)
(10.0018 -0.0151875 0)
(10.0076 -0.0226624 0)
(10.0148 -0.0259955 0)
(10.0214 -0.0285608 0)
(10.0277 -0.0310252 0)
(10.034 -0.0328059 0)
(10.0399 -0.0338474 0)
(10.0454 -0.0344508 0)
(10.0505 -0.034825 0)
(10.0552 -0.0350533 0)
(10.0596 -0.0351846 0)
(10.0637 -0.035261 0)
(10.0675 -0.0353119 0)
(10.071 -0.035354 0)
(10.0743 -0.0353954 0)
(10.0774 -0.0354397 0)
(10.0802 -0.0354844 0)
(9.99898 -0.0013111 0)
(9.99999 -0.0179797 0)
(10.0085 -0.0290787 0)
(10.0174 -0.0327059 0)
(10.0244 -0.0341315 0)
(10.0311 -0.0353593 0)
(10.0382 -0.0363076 0)
(10.0448 -0.0369515 0)
(10.0507 -0.0374036 0)
(10.0558 -0.0377041 0)
(10.0605 -0.0378676 0)
(10.0646 -0.03793 0)
(10.0683 -0.0379326 0)
(10.0716 -0.0379049 0)
(10.0745 -0.037865 0)
(10.077 -0.0378242 0)
(10.0792 -0.037786 0)
(10.0812 -0.0377496 0)
(9.99528 0.00386759 0)
(9.99333 -0.0103154 0)
(10.007 -0.0271091 0)
(10.0212 -0.0389338 0)
(10.0311 -0.0448734 0)
(10.0391 -0.0464813 0)
(10.0465 -0.0459991 0)
(10.0529 -0.0450435 0)
(10.058 -0.0441696 0)
(10.062 -0.0433985 0)
(10.0651 -0.0426868 0)
(10.0674 -0.0420316 0)
(10.0689 -0.0414393 0)
(10.0698 -0.0409095 0)
(10.0702 -0.0404398 0)
(10.0702 -0.0400292 0)
(10.0698 -0.0396681 0)
(10.0691 -0.0393298 0)
(9.99144 -0.0172943 0)
(9.99188 0.000363041 0)
(10.01 0.0176614 0)
(10.0295 0.0115823 0)
(10.0441 -0.0051172 0)
(10.0541 -0.0188353 0)
(10.0599 -0.0271836 0)
(10.0622 -0.0320626 0)
(10.0616 -0.0349462 0)
(10.059 -0.0365537 0)
(10.0548 -0.0373329 0)
(10.0494 -0.0376086 0)
(10.043 -0.0375939 0)
(10.036 -0.0374182 0)
(10.0284 -0.0371653 0)
(10.0204 -0.0368963 0)
(10.0123 -0.0366668 0)
(10.0041 -0.0364454 0)
(10.0236 -0.206008 0)
(10.0684 -0.312341 0)
(10.0788 -0.255595 0)
(10.0704 -0.184181 0)
(10.0605 -0.134906 0)
(10.0498 -0.102732 0)
(10.0342 -0.0811734 0)
(10.0129 -0.0666283 0)
(9.98773 -0.0566379 0)
(9.96048 -0.0494835 0)
(9.93224 -0.0441275 0)
(9.90372 -0.0399804 0)
(9.87541 -0.0366839 0)
(9.84764 -0.0340053 0)
(9.82064 -0.0317966 0)
(9.79454 -0.0299942 0)
(9.76958 -0.0285679 0)
(9.74578 -0.0278341 0)
(9.94226 0.671595 0)
(9.87995 0.567454 0)
(9.77443 0.338465 0)
(9.63235 0.183317 0)
(9.4876 0.0949033 0)
(9.35646 0.0470799 0)
(9.24088 0.0212944 0)
(9.13935 0.00707229 0)
(9.05038 -0.000987764 0)
(8.97236 -0.00562961 0)
(8.90357 -0.00831938 0)
(8.84246 -0.00988217 0)
(8.7878 -0.0107882 0)
(8.73858 -0.0113063 0)
(8.694 -0.0115973 0)
(8.65334 -0.0117858 0)
(8.61575 -0.0119657 0)
(8.58086 -0.0124979 0)
(0.00389635 -0.00937339 -3.50257e-20)
(0.0136316 -0.0145142 3.46258e-20)
(0.022067 -0.0125967 0)
(0.0273578 -0.00758473 0)
(0.0287504 -0.00173642 0)
(0.026155 0.00356352 -3.25498e-20)
(0.0204232 0.00763406 0)
(0.012227 0.0104454 0)
(0.00214667 0.0122874 0)
(-0.00934709 0.0135247 0)
(-0.0219716 0.014433 3.00347e-20)
(-0.0355753 0.015175 0)
(-0.0500538 0.0158411 0)
(-0.0653504 0.0164753 0)
(-0.0814329 0.0170961 0)
(-0.0982798 0.0177095 2.68169e-20)
(-0.115875 0.0183165 0)
(-0.134203 0.0189163 0)
(-0.153249 0.0195079 0)
(-0.173001 0.0200892 0)
(-0.19344 0.0206565 0)
(-0.214549 0.0212029 0)
(-0.236306 0.0217174 0)
(-0.258683 0.0221848 2.28376e-20)
(-0.281643 0.0225867 -2.24523e-20)
(-0.305145 0.0229043 2.20913e-20)
(-0.32914 0.023129 2.17548e-20)
(-0.353583 0.0232835 0)
(-0.378444 0.023455 0)
(-0.403761 0.0238097 -2.0894e-20)
(-0.42967 0.0244878 -2.06575e-20)
(-0.456244 0.0252772 0)
(-0.483265 0.0255331 0)
(-0.510486 0.0255237 -2.00893e-20)
(-0.538077 0.0274563 0)
(-0.566673 0.0313381 0)
(-0.59717 0.0344419 1.95981e-20)
(-0.628617 0.0458482 0)
(-0.661088 0.0402015 2.05495e-20)
(-0.696853 0.038025 3.92015e-20)
(-0.732519 0.0573562 0)
(-0.773285 0.0564812 0)
(-0.814397 0.0573996 0)
(-0.852019 0.0516988 0)
(-0.890869 0.0319414 0)
(-0.927325 0.0303246 4.01037e-20)
(-0.96539 0.032989 3.96528e-20)
(-1.00536 0.0339126 3.92071e-20)
(-1.04603 0.0344204 0)
(-1.08721 0.0346221 -3.83452e-20)
(-1.12866 0.0346445 0)
(-1.17026 0.0345477 3.75294e-20)
(-1.21192 0.0343706 3.71388e-20)
(-1.25356 0.034137 0)
(-1.29514 0.0338619 0)
(-1.33662 0.0335545 0)
(-1.37796 0.033221 3.56797e-20)
(-1.41912 0.032865 0)
(-1.4601 0.0324886 0)
(-1.50084 0.032093 0)
(-1.54133 0.0316787 0)
(-1.58154 0.0312458 0)
(-1.62144 0.0307941 0)
(-1.661 0.0303232 0)
(-1.70018 0.0298327 0)
(-1.73896 0.0293223 -3.28185e-20)
(-1.77731 0.0287915 0)
(-1.81518 0.0282401 0)
(-1.85255 0.0276679 3.19314e-20)
(-1.88938 0.0270749 3.16378e-20)
(-1.92563 0.0264609 0)
(-1.96126 0.0258264 -3.105e-20)
(-1.99624 0.0251714 3.07546e-20)
(-2.03053 0.0244965 0)
(-2.0641 0.023802 -3.01583e-20)
(-2.09689 0.0230886 0)
(-2.12889 0.022357 0)
(-2.16004 0.0216078 2.92415e-20)
(-2.19032 0.0208418 0)
(-2.21968 0.0200599 -2.86091e-20)
(-2.24809 0.0192628 0)
(-2.27552 0.0184513 2.79551e-20)
(-2.30192 0.017626 2.76188e-20)
(-2.32727 0.0167877 2.72757e-20)
(-2.35153 0.0159366 5.38505e-20)
(-2.37467 0.0150729 -5.31343e-20)
(-2.39666 0.0141966 0)
(-2.41746 0.0133071 0)
(-2.43704 0.0124032 0)
(-2.45536 0.011483 -5.00994e-20)
(-2.47239 0.0105437 -4.92945e-20)
(-2.48809 0.00958151 4.84699e-20)
(-2.50243 0.00859176 0)
(-2.51535 0.00756906 -4.67591e-20)
(-2.5268 0.00650675 -4.5872e-20)
(-2.53671 0.00539842 -4.49635e-20)
(-2.54503 0.00424357 0)
(-2.55166 0.00305945 0)
(-2.5565 0.00188928 0)
(-2.55941 0.000788231 -4.11096e-20)
(-2.56053 -0.000191334 0)
(-2.56026 -0.00104273 0)
(-2.55849 -0.00186266 3.79472e-20)
(-2.55527 -0.00266815 0)
(-2.55058 -0.00346705 0)
(-2.54442 -0.00426073 3.45495e-20)
(-2.53677 -0.00504927 0)
(-2.52762 -0.00583208 0)
(-2.51697 -0.00660838 -3.09126e-20)
(-2.50481 -0.00737732 -2.96472e-20)
(-2.49114 -0.00813804 0)
(-2.47595 -0.00888969 2.70379e-20)
(-2.45924 -0.00963141 0)
(-2.44102 -0.0103624 -2.43256e-20)
(-2.42129 -0.0110818 0)
(-2.40005 -0.0117889 -2.15133e-20)
(-2.37732 -0.0124829 -2.00709e-20)
(-2.35309 -0.0131629 0)
(-2.32739 -0.0138284 0)
(-2.30022 -0.0144785 0)
(-2.27161 -0.0151127 0)
(-2.24156 -0.0157301 0)
(-2.2101 -0.0163303 0)
(-2.17725 -0.0169127 0)
(-2.14303 -0.0174767 -7.74818e-21)
(-2.10747 -0.0180218 6.12233e-21)
(-2.07058 -0.0185475 0)
(-2.03241 -0.0190534 0)
(-1.99298 -0.019539 0)
(-1.95231 -0.0200039 0)
(-1.91045 -0.0204478 -4.44223e-21)
(-1.86742 -0.0208703 0)
(-1.82327 -0.0212712 1.12727e-20)
(-1.77802 -0.0216504 -1.47112e-20)
(-1.73172 -0.0220076 0)
(-1.68441 -0.0223428 0)
(-1.63611 -0.0226558 0)
(-1.58689 -0.0229465 2.85579e-20)
(-1.53677 -0.0232151 3.20289e-20)
(-1.4858 -0.0234616 0)
(-1.43402 -0.0236863 3.89627e-20)
(-1.38147 -0.0238891 4.24198e-20)
(-1.3282 -0.0240704 -4.58667e-20)
(-1.27425 -0.0242305 0)
(-1.21966 -0.0243698 0)
(-1.16448 -0.0244887 -5.61179e-20)
(-1.10875 -0.0245877 0)
(-1.05251 -0.0246672 0)
(-0.995805 -0.024728 0)
(-0.93867 -0.0247706 0)
(-0.881147 -0.0247959 7.27449e-20)
(-0.823274 -0.0248045 7.59786e-20)
(-0.765089 -0.0247974 0)
(-0.706625 -0.0247753 8.23353e-20)
(-0.647918 -0.0247392 0)
(-0.588998 -0.02469 0)
(-0.529895 -0.0246287 9.1562e-20)
(-0.470639 -0.0245559 0)
(-0.411255 -0.0244725 9.74846e-20)
(-0.351769 -0.0243785 0)
(-0.292207 -0.0242741 0)
(-0.232594 -0.0241569 1.05991e-19)
(-0.172959 -0.02402 0)
(-0.113332 -0.0238592 1.11394e-19)
(-0.0537357 -0.0236687 0)
(0.0058004 -0.023402 0)
(0.0651326 -0.0230317 0)
(0.124358 -0.0226489 -1.1824e-19)
(0.183475 -0.0222899 0)
(0.242494 -0.0219493 1.19749e-19)
(0.301424 -0.0216166 0)
(0.360249 -0.021281 0)
(0.418926 -0.0209279 0)
(0.47735 -0.0205337 0)
(0.535343 -0.0200529 0)
(0.592403 -0.0193933 0)
(0.648111 -0.018309 0)
(0.698396 -0.0161708 -2.46797e-19)
(0.747298 -0.0113676 0)
(0.74972 0.00624478 0)
(0.00382868 -0.0274707 1.04125e-19)
(0.00836988 -0.0272909 -1.00198e-19)
(0.00819231 -0.0169844 0)
(0.00556238 -0.00570423 6.08399e-20)
(0.000883814 0.00501989 0)
(-0.0056039 0.0144517 2.86911e-20)
(-0.0138974 0.0222481 -5.59829e-20)
(-0.0239073 0.0284193 -5.47065e-20)
(-0.0355276 0.0332036 0)
(-0.0486143 0.0369392 -5.22442e-20)
(-0.0630087 0.0399542 -2.55287e-20)
(-0.0785645 0.042496 0)
(-0.0951644 0.0447307 0)
(-0.112722 0.0467623 0)
(-0.131178 0.0486518 0)
(-0.150492 0.0504336 -2.27157e-20)
(-0.170638 0.0521261 0)
(-0.191602 0.0537394 4.3439e-20)
(-0.213374 0.0552784 0)
(-0.235952 0.0567449 0)
(-0.259336 0.0581381 -4.08586e-20)
(-0.28353 0.059455 0)
(-0.308539 0.0606908 3.9377e-20)
(-0.334378 0.0618398 -1.93751e-20)
(-0.361067 0.0628979 1.90644e-20)
(-0.38864 0.0638671 -1.87778e-20)
(-0.417146 0.0647625 -1.8516e-20)
(-0.446655 0.0656244 0)
(-0.477251 0.0665261 0)
(-0.509014 0.0675554 1.7898e-20)
(-0.541984 0.068742 -1.76974e-20)
(-0.576198 0.0699425 0)
(-0.611846 0.0708405 0)
(-0.649189 0.071347 1.75359e-20)
(-0.688019 0.072069 0)
(-0.727808 0.0734918 0)
(-0.768327 0.0747825 -1.72817e-20)
(-0.808794 0.0761207 0)
(-0.851453 0.0782814 1.71014e-20)
(-0.893314 0.0802059 -3.35703e-20)
(-0.934178 0.0832499 0)
(-0.97415 0.0835566 0)
(-1.0137 0.0824477 -6.49915e-20)
(-1.05513 0.0840997 -6.50104e-20)
(-1.09691 0.0860066 -6.43308e-20)
(-1.13915 0.0874805 3.16947e-20)
(-1.18005 0.0884404 -3.14941e-20)
(-1.21967 0.0887725 -9.32386e-20)
(-1.25861 0.0886578 6.14124e-20)
(-1.29709 0.0882414 3.04438e-20)
(-1.33521 0.0876154 0)
(-1.37301 0.0868416 -2.97987e-20)
(-1.41049 0.0859608 2.93434e-20)
(-1.44767 0.0849999 0)
(-1.48454 0.0839769 0)
(-1.52108 0.0829032 0)
(-1.5573 0.0817861 -2.83383e-20)
(-1.59317 0.0806298 0)
(-1.62868 0.0794368 5.54555e-20)
(-1.66381 0.078208 0)
(-1.69854 0.0769435 5.44238e-20)
(-1.73286 0.0756427 0)
(-1.76673 0.0743051 -5.34247e-20)
(-1.80015 0.0729296 0)
(-1.83308 0.0715155 5.24498e-20)
(-1.8655 0.070062 -2.59132e-20)
(-1.89738 0.0685684 0)
(-1.9287 0.0670345 -5.10153e-20)
(-1.95944 0.0654599 -2.53386e-20)
(-1.98955 0.0638448 -2.51002e-20)
(-2.01902 0.0621895 0)
(-2.04782 0.0604946 -2.44931e-20)
(-2.07591 0.0587609 -2.43804e-20)
(-2.10327 0.0569894 0)
(-2.12987 0.0551814 2.38923e-20)
(-2.15569 0.0533383 -4.71743e-20)
(-2.18068 0.0514617 0)
(-2.20483 0.0495531 -2.31392e-20)
(-2.2281 0.0476146 0)
(-2.25048 0.0456478 6.77588e-20)
(-2.27192 0.0436548 0)
(-2.2924 0.0416373 -6.6152e-20)
(-2.3119 0.0395973 -2.18024e-20)
(-2.3304 0.0375366 2.14432e-20)
(-2.34785 0.0354566 4.23201e-20)
(-2.36425 0.0333589 -4.17416e-20)
(-2.37955 0.0312447 0)
(-2.39375 0.0291147 0)
(-2.4068 0.0269696 0)
(-2.4187 0.0248094 1.18041e-19)
(-2.42942 0.0226334 3.8712e-20)
(-2.43892 0.0204403 -3.80349e-20)
(-2.44721 0.0182282 0)
(-2.45425 0.0159948 -3.661e-20)
(-2.46004 0.0137371 3.59059e-20)
(-2.46458 0.0114506 3.51625e-20)
(-2.46789 0.00913186 0)
(-2.47002 0.00678997 0)
(-2.47106 0.00446585 0)
(-2.47111 0.00222377 3.20046e-20)
(-2.4701 8.44255e-05 0)
(-2.46772 -0.00195883 -6.0695e-20)
(-2.46396 -0.00396324 -8.83799e-20)
(-2.45878 -0.00594228 5.71783e-20)
(-2.45216 -0.00790293 0)
(-2.44408 -0.0098457 2.68341e-20)
(-2.43454 -0.0117694 0)
(-2.42351 -0.0136721 4.97076e-20)
(-2.41101 -0.0155514 -2.39749e-20)
(-2.39701 -0.017405 -2.29859e-20)
(-2.38151 -0.0192307 0)
(-2.36452 -0.0210263 -6.23714e-20)
(-2.34602 -0.0227895 3.95659e-20)
(-2.32604 -0.0245184 1.85787e-20)
(-2.30455 -0.026211 0)
(-2.28159 -0.0278653 1.63848e-20)
(-2.25714 -0.0294795 4.61164e-20)
(-2.23122 -0.0310518 0)
(-2.20384 -0.0325806 2.63127e-20)
(-2.17501 -0.0340641 2.40016e-20)
(-2.14476 -0.0355009 2.16643e-20)
(-2.11309 -0.0368895 0)
(-2.08002 -0.0382286 0)
(-2.04559 -0.0395171 0)
(-2.0098 -0.0407539 -6.25292e-21)
(-1.97268 -0.0419381 -4.59855e-21)
(-1.93426 -0.0430687 0)
(-1.89457 -0.0441449 -4.68842e-21)
(-1.85363 -0.0451661 -2.19401e-21)
(-1.81148 -0.0461314 0)
(-1.76815 -0.0470406 3.31439e-21)
(-1.72367 -0.0478931 1.07121e-20)
(-1.67807 -0.0486889 -8.38893e-21)
(-1.6314 -0.0494279 -9.91999e-21)
(-1.58369 -0.0501101 0)
(-1.53498 -0.0507357 0)
(-1.48531 -0.0513049 0)
(-1.43471 -0.051818 -2.11212e-20)
(-1.38324 -0.0522755 2.25934e-20)
(-1.33092 -0.0526782 5.13114e-20)
(-1.27781 -0.053027 -2.87166e-20)
(-1.22395 -0.0533227 3.01442e-20)
(-1.16937 -0.0535663 3.37306e-20)
(-1.11413 -0.053759 0)
(-1.05826 -0.0539021 0)
(-1.0018 -0.0539972 -4.00456e-20)
(-0.94481 -0.0540458 0)
(-0.887316 -0.0540494 0)
(-0.829364 -0.05401 9.56616e-20)
(-0.770994 -0.0539296 0)
(-0.712244 -0.0538102 5.19971e-20)
(-0.653152 -0.0536538 -5.53951e-20)
(-0.593755 -0.0534628 0)
(-0.534087 -0.0532395 5.88641e-20)
(-0.474181 -0.0529863 0)
(-0.41407 -0.0527054 0)
(-0.353782 -0.0523993 -6.65036e-20)
(-0.293344 -0.0520699 1.36212e-19)
(-0.232784 -0.051719 -7.07117e-20)
(-0.172124 -0.0513476 0)
(-0.111389 -0.0509546 0)
(-0.0506012 -0.0505384 7.57435e-20)
(0.0102174 -0.0500955 0)
(0.0710422 -0.049623 7.86725e-20)
(0.131856 -0.0491272 0)
(0.192643 -0.0486092 0)
(0.253385 -0.0480559 0)
(0.314111 -0.0474912 8.36248e-20)
(0.374811 -0.046941 0)
(0.435477 -0.0464046 -8.53753e-20)
(0.496099 -0.0458693 0)
(0.556651 -0.0453156 0)
(0.617078 -0.0447128 1.74434e-19)
(0.677271 -0.0440091 -1.75758e-19)
(0.737042 -0.0431044 0)
(0.795957 -0.0418046 0)
(0.853569 -0.0396104 0)
(0.907343 -0.0355704 5.42522e-19)
(0.959847 -0.0264553 0)
(0.990465 -0.0043467 -3.6909e-19)
(0.00124956 -0.0336652 -4.05948e-23)
(-0.0014193 -0.022654 1.29985e-19)
(-0.0072688 -0.00692841 0)
(-0.014318 0.00773785 -1.12396e-19)
(-0.0226236 0.0210486 0)
(-0.0320237 0.032878 0)
(-0.0424909 0.0431418 1.14301e-23)
(-0.0540745 0.05185 4.86475e-20)
(-0.0668243 0.0591382 4.74497e-20)
(-0.0807505 0.0652329 4.63461e-20)
(-0.0958204 0.0703924 0)
(-0.111977 0.074855 0)
(-0.129156 0.0788145 -4.32284e-20)
(-0.147303 0.0824156 -8.45254e-20)
(-0.166372 0.0857601 8.26687e-20)
(-0.18633 0.0889167 0)
(-0.207158 0.0919313 7.91937e-20)
(-0.228843 0.0948342 -3.88041e-20)
(-0.251384 0.0976453 0)
(-0.274784 0.100378 7.45997e-20)
(-0.299051 0.103043 3.66315e-20)
(-0.324198 0.105646 -7.19463e-20)
(-0.350245 0.108195 -3.53846e-20)
(-0.377216 0.110699 0)
(-0.40514 0.113175 6.85507e-20)
(-0.434054 0.115649 6.75684e-20)
(-0.463998 0.118159 0)
(-0.495009 0.120762 6.58223e-20)
(-0.527109 0.12352 0)
(-0.560287 0.126485 6.43638e-20)
(-0.594474 0.12965 3.18867e-20)
(-0.629568 0.13291 0)
(-0.665542 0.136086 0)
(-0.70242 0.13907 0)
(-0.739969 0.141902 0)
(-0.777701 0.144623 0)
(-0.815315 0.147227 0)
(-0.852597 0.149424 5.94579e-20)
(-0.889953 0.150719 -8.8141e-20)
(-0.926994 0.151665 0)
(-0.962958 0.152529 0)
(-0.998054 0.151968 0)
(-1.03307 0.150539 -2.66142e-23)
(-1.06824 0.148573 5.50968e-20)
(-1.10359 0.146174 1.08832e-19)
(-1.13907 0.144418 -1.07452e-19)
(-1.1741 0.14306 -5.30108e-20)
(-1.20858 0.141727 5.24217e-20)
(-1.24265 0.140333 -7.65191e-23)
(-1.27638 0.138847 5.10765e-20)
(-1.30984 0.13727 0)
(-1.34306 0.13561 4.98757e-20)
(-1.37605 0.133879 -8.42507e-23)
(-1.40881 0.132087 0)
(-1.44136 0.130241 0)
(-1.47368 0.128346 -4.76595e-20)
(-1.50576 0.126404 0)
(-1.5376 0.124416 0)
(-1.56917 0.122382 4.60376e-20)
(-1.60046 0.120301 9.12831e-20)
(-1.63145 0.118172 -4.52556e-20)
(-1.66212 0.115993 0)
(-1.69245 0.113761 4.43177e-20)
(-1.72242 0.111475 0)
(-1.752 0.109133 4.32138e-20)
(-1.78117 0.106735 4.29528e-20)
(-1.80989 0.104279 -8.48246e-20)
(-1.83815 0.101764 -4.18763e-20)
(-1.86592 0.0991905 0)
(-1.89316 0.0965586 8.2175e-20)
(-1.91985 0.0938687 0)
(-1.94596 0.0911219 1.20712e-19)
(-1.97146 0.0883194 7.95366e-20)
(-1.99632 0.0854629 7.86529e-20)
(-2.02051 0.0825541 -7.7765e-20)
(-2.04401 0.0795954 1.15384e-19)
(-2.06677 0.076589 0)
(-2.08877 0.0735376 0)
(-2.10999 0.0704439 -7.41435e-20)
(-2.13039 0.0673107 -1.09887e-19)
(-2.14994 0.0641408 0)
(-2.16862 0.0609372 3.57182e-20)
(-2.18639 0.0577027 0)
(-2.20323 0.0544401 -1.04105e-19)
(-2.21912 0.051152 -9.2381e-23)
(-2.23403 0.0478409 8.38589e-23)
(-2.24793 0.044509 6.63221e-20)
(-2.26079 0.0411583 0)
(-2.2726 0.0377907 -6.41978e-20)
(-2.28333 0.0344077 -4.70939e-23)
(-2.29296 0.0310108 0)
(-2.30147 0.0276016 0)
(-2.30884 0.0241823 0)
(-2.31507 0.0207559 5.8526e-20)
(-2.32014 0.0173276 0)
(-2.32405 0.0139056 0)
(-2.3268 0.0105025 0)
(-2.32839 0.00713523 0)
(-2.3288 0.00382325 0)
(-2.32802 0.000578077 5.08965e-20)
(-2.32597 -0.00262881 0)
(-2.32257 -0.00582624 4.80472e-20)
(-2.31783 -0.00900611 4.66148e-20)
(-2.3117 -0.0121648 -4.51571e-20)
(-2.30418 -0.0152989 0)
(-2.29524 -0.0184048 -4.21653e-20)
(-2.28488 -0.0214788 0)
(-2.27309 -0.0245168 -3.90728e-20)
(-2.25985 -0.0275151 3.74895e-20)
(-2.24516 -0.0304696 1.07999e-19)
(-2.22902 -0.0333767 0)
(-2.21143 -0.0362329 9.81871e-20)
(-2.19238 -0.0390345 3.134e-20)
(-2.17187 -0.0417785 0)
(-2.14991 -0.0444615 5.54635e-20)
(-2.12651 -0.0470805 5.20028e-20)
(-2.10167 -0.0496327 -7.24993e-20)
(-2.0754 -0.0521152 0)
(-2.04771 -0.0545253 -2.04196e-20)
(-2.01861 -0.0568605 -1.86048e-20)
(-1.98813 -0.0591184 -5.09088e-20)
(-1.95626 -0.0612966 0)
(-1.92305 -0.0633933 0)
(-1.88849 -0.0654066 0)
(-1.85262 -0.0673348 -9.96947e-21)
(-1.81545 -0.0691765 0)
(-1.77702 -0.0709304 0)
(-1.73735 -0.0725954 3.60192e-21)
(-1.69647 -0.0741702 1.68374e-21)
(-1.65441 -0.0756541 0)
(-1.61119 -0.0770462 0)
(-1.56686 -0.0783462 -8.19469e-21)
(-1.52145 -0.079554 0)
(-1.47498 -0.0806695 1.59204e-20)
(-1.4275 -0.081693 1.89948e-20)
(-1.37905 -0.0826248 0)
(-1.32966 -0.0834655 0)
(-1.27938 -0.0842156 -3.05081e-20)
(-1.22823 -0.0848762 -8.14715e-22)
(-1.17627 -0.0854486 -8.1996e-22)
(-1.12354 -0.0859344 0)
(-1.07007 -0.086335 -9.21664e-20)
(-1.0159 -0.0866522 0)
(-0.961089 -0.086888 0)
(-0.905665 -0.0870448 0)
(-0.849673 -0.0871252 6.12976e-20)
(-0.793153 -0.0871316 0)
(-0.736147 -0.0870668 -1.35347e-19)
(-0.678694 -0.0869339 -7.20569e-20)
(-0.620833 -0.0867362 0)
(-0.562602 -0.0864772 -7.9035e-20)
(-0.504037 -0.0861601 0)
(-0.445174 -0.0857889 0)
(-0.386048 -0.0853672 -2.65882e-19)
(-0.326688 -0.084899 1.83287e-19)
(-0.267127 -0.084388 0)
(-0.207393 -0.083838 1.96137e-19)
(-0.147511 -0.0832523 -1.01995e-19)
(-0.087507 -0.0826336 0)
(-0.0274034 -0.0819846 0)
(0.0327788 -0.0813071 0)
(0.093019 -0.0806007 -3.36446e-19)
(0.1533 -0.079864 0)
(0.213606 -0.0790973 -1.1651e-19)
(0.273926 -0.0783064 0)
(0.334264 -0.0775041 0)
(0.39464 -0.0767012 0)
(0.455052 -0.0759036 0)
(0.515485 -0.075118 0)
(0.575919 -0.0743396 0)
(0.636336 -0.0735523 -2.54899e-19)
(0.696703 -0.0727278 0)
(0.756961 -0.0718194 -1.3081e-19)
(0.817006 -0.070747 3.9498e-19)
(0.876662 -0.0693621 0)
(0.935568 -0.0673827 0)
(0.993383 -0.064195 -2.70037e-19)
(1.04841 -0.0586291 -2.73568e-19)
(1.10331 -0.0477599 2.75564e-19)
(1.14605 -0.0253277 2.80362e-19)
(-0.00244089 -0.0267396 -2.05477e-19)
(-0.0100745 -0.00808018 -1.9044e-19)
(-0.0194051 0.0106618 -1.14703e-19)
(-0.0295284 0.0272207 -5.28353e-20)
(-0.0404906 0.0421175 0)
(-0.0521017 0.0554915 9.52896e-20)
(-0.0643727 0.0673798 -4.59789e-20)
(-0.0773927 0.0778268 0)
(-0.0912514 0.0869347 -4.34756e-20)
(-0.106011 0.094865 0)
(-0.121702 0.101813 8.28418e-20)
(-0.138326 0.107978 0)
(-0.15587 0.11354 3.95895e-20)
(-0.174311 0.118646 7.74595e-20)
(-0.193629 0.123412 -7.58133e-20)
(-0.213804 0.127925 0)
(-0.234824 0.132248 -7.274e-20)
(-0.256681 0.136425 0)
(-0.279373 0.140489 0)
(-0.302901 0.144464 -6.86713e-20)
(-0.32727 0.148367 0)
(-0.352484 0.152211 4.6856e-24)
(-0.378551 0.156009 0)
(-0.405476 0.159774 0)
(-0.433263 0.16352 -4.23708e-24)
(-0.461909 0.167266 -6.22824e-20)
(-0.491398 0.17103 -6.1404e-20)
(-0.5217 0.174828 -6.05792e-20)
(-0.552753 0.178663 0)
(-0.584466 0.182508 -1.18071e-19)
(-0.616708 0.186294 0)
(-0.649329 0.189893 -5.76034e-20)
(-0.682204 0.193144 0)
(-0.715243 0.195924 0)
(-0.748337 0.198204 5.54733e-20)
(-0.781312 0.200025 0)
(-0.813999 0.20141 -5.39654e-20)
(-0.84634 0.202327 -2.88069e-24)
(-0.878382 0.202646 1.04899e-19)
(-0.910084 0.202515 -1.03388e-19)
(-0.941312 0.201997 0)
(-0.972188 0.200773 0)
(-1.00298 0.199064 -4.95199e-20)
(-1.03376 0.197 0)
(-1.06455 0.194649 -4.81458e-20)
(-1.09532 0.192368 4.74875e-20)
(-1.12597 0.190185 4.6846e-20)
(-1.15643 0.188029 0)
(-1.18672 0.185862 -4.56171e-20)
(-1.21684 0.18366 -4.50289e-20)
(-1.24682 0.181412 8.88545e-20)
(-1.27665 0.179114 -4.39017e-20)
(-1.30636 0.176764 -4.33611e-20)
(-1.33592 0.174362 0)
(-1.36535 0.171908 0)
(-1.39462 0.169401 4.18216e-20)