/*--------------------------------*- C++ -*----------------------------------*\
  =========                 |
  \\      /  F ield         | OpenFOAM: The Open Source CFD Toolbox
   \\    /   O peration     | Website:  https://openfoam.org
    \\  /    A nd           | Version:  12
     \\/     M anipulation  |
\*---------------------------------------------------------------------------*/
FoamFile
{
    format      ascii;
    class       volScalarField;
    location    "8.82";
    object      p;
}
// * * * * * * * * * * * * * * * * * * * * * * * * * * * * * * * * * * * * * //

dimensions      [1 -1 -2 0 0 0 0];

internalField   nonuniform List<scalar> 
3829
(
-613.152
-613.152
-613.153
-613.155
-613.156
-613.159
-613.161
-613.165
-613.168
-613.172
-613.177
-613.182
-613.188
-613.194
-613.201
-613.209
-613.216
-613.225
-613.234
-613.243
-613.254
-613.264
-613.276
-613.288
-613.3
-613.314
-613.328
-613.343
-613.359
-613.375
-613.393
-613.412
-613.431
-613.452
-613.474
-613.498
-613.522
-613.548
-613.575
-613.604
-613.634
-613.666
-613.699
-613.734
-613.77
-613.807
-613.846
-613.885
-613.926
-613.967
-614.01
-614.053
-614.096
-614.139
-614.182
-614.224
-614.266
-614.307
-614.346
-614.384
-614.419
-614.453
-614.483
-614.511
-614.535
-614.555
-614.572
-614.585
-614.593
-614.597
-614.596
-614.591
-614.582
-614.565
-614.546
-614.524
-614.498
-614.468
-614.435
-614.401
-614.364
-614.326
-614.287
-614.249
-614.211
-614.175
-614.141
-614.11
-614.083
-614.06
-614.042
-614.028
-614.021
-614.019
-614.024
-614.035
-614.052
-614.074
-614.102
-614.133
-614.169
-614.207
-614.247
-614.288
-614.329
-614.368
-614.404
-614.437
-614.465
-614.487
-614.502
-614.511
-614.512
-614.506
-614.491
-614.471
-614.444
-614.412
-614.376
-614.337
-614.297
-614.257
-614.219
-614.185
-614.156
-614.133
-614.116
-614.108
-614.108
-614.116
-614.131
-614.152
-614.179
-614.209
-614.242
-614.275
-614.306
-614.333
-614.357
-614.374
-614.385
-614.39
-614.388
-614.38
-614.368
-614.353
-614.336
-614.319
-614.305
-614.294
-614.288
-614.286
-614.29
-614.3
-614.313
-614.329
-614.347
-614.365
-614.38
-614.392
-614.4
-614.402
-614.399
-614.392
-614.38
-614.365
-614.349
-614.333
-614.319
-614.308
-614.302
-614.299
-614.301
-614.307
-614.316
-614.327
-614.339
-614.349
-614.358
-614.364
-614.366
-614.364
-614.359
-614.35
-614.34
-614.329
-614.318
-614.309
-614.303
-614.3
-614.302
-614.307
-614.317
-614.33
-614.346
-614.362
-614.377
-614.391
-614.4
-614.406
-1771.48
-1771.48
-1771.48
-1771.49
-1771.49
-1771.49
-1771.49
-1771.5
-1771.5
-1771.51
-1771.51
-1771.52
-1771.53
-1771.53
-1771.54
-1771.55
-1771.56
-1771.57
-1771.58
-1771.59
-1771.6
-1771.61
-1771.62
-1771.63
-1771.64
-1771.65
-1771.67
-1771.68
-1771.69
-1771.71
-1771.73
-1771.74
-1771.76
-1771.78
-1771.8
-1771.83
-1771.85
-1771.88
-1771.9
-1771.93
-1771.96
-1772
-1772.03
-1772.07
-1772.11
-1772.15
-1772.19
-1772.24
-1772.28
-1772.33
-1772.38
-1772.43
-1772.48
-1772.52
-1772.57
-1772.62
-1772.67
-1772.72
-1772.76
-1772.81
-1772.85
-1772.89
-1772.92
-1772.95
-1772.98
-1773
-1773.02
-1773.04
-1773.04
-1773.05
-1773.04
-1773.04
-1773.02
-1773
-1772.98
-1772.95
-1772.92
-1772.88
-1772.84
-1772.79
-1772.75
-1772.7
-1772.65
-1772.6
-1772.56
-1772.51
-1772.47
-1772.43
-1772.4
-1772.37
-1772.35
-1772.34
-1772.33
-1772.33
-1772.33
-1772.35
-1772.37
-1772.4
-1772.43
-1772.47
-1772.52
-1772.56
-1772.61
-1772.66
-1772.71
-1772.76
-1772.8
-1772.84
-1772.88
-1772.9
-1772.92
-1772.93
-1772.93
-1772.92
-1772.9
-1772.88
-1772.84
-1772.8
-1772.76
-1772.71
-1772.66
-1772.61
-1772.57
-1772.53
-1772.49
-1772.47
-1772.45
-1772.44
-1772.44
-1772.45
-1772.47
-1772.5
-1772.53
-1772.57
-1772.61
-1772.65
-1772.69
-1772.72
-1772.75
-1772.77
-1772.78
-1772.78
-1772.78
-1772.76
-1772.75
-1772.73
-1772.71
-1772.68
-1772.66
-1772.65
-1772.64
-1772.64
-1772.65
-1772.66
-1772.68
-1772.7
-1772.72
-1772.74
-1772.76
-1772.77
-1772.78
-1772.78
-1772.78
-1772.77
-1772.76
-1772.74
-1772.72
-1772.7
-1772.68
-1772.67
-1772.66
-1772.66
-1772.66
-1772.67
-1772.68
-1772.7
-1772.71
-1772.72
-1772.73
-1772.74
-1772.74
-1772.74
-1772.73
-1772.72
-1772.71
-1772.7
-1772.69
-1772.68
-1772.67
-1772.67
-1772.67
-1772.67
-1772.68
-1772.7
-1772.71
-1772.73
-1772.75
-1772.76
-1772.77
-1772.78
-2797.57
-2797.57
-2797.57
-2797.58
-2797.58
-2797.59
-2797.59
-2797.6
-2797.6
-2797.61
-2797.62
-2797.63
-2797.64
-2797.65
-2797.66
-2797.67
-2797.68
-2797.69
-2797.7
-2797.71
-2797.72
-2797.73
-2797.74
-2797.75
-2797.76
-2797.77
-2797.78
-2797.79
-2797.81
-2797.82
-2797.83
-2797.84
-2797.86
-2797.88
-2797.89
-2797.91
-2797.94
-2797.96
-2797.99
-2798.02
-2798.05
-2798.09
-2798.12
-2798.16
-2798.21
-2798.26
-2798.31
-2798.36
-2798.41
-2798.47
-2798.53
-2798.59
-2798.65
-2798.71
-2798.77
-2798.84
-2798.9
-2798.96
-2799.01
-2799.07
-2799.12
-2799.17
-2799.21
-2799.25
-2799.28
-2799.31
-2799.33
-2799.35
-2799.36
-2799.36
-2799.35
-2799.34
-2799.32
-2799.29
-2799.25
-2799.21
-2799.16
-2799.11
-2799.05
-2798.99
-2798.93
-2798.87
-2798.8
-2798.74
-2798.67
-2798.61
-2798.56
-2798.51
-2798.46
-2798.43
-2798.4
-2798.38
-2798.37
-2798.37
-2798.38
-2798.4
-2798.43
-2798.47
-2798.52
-2798.58
-2798.64
-2798.7
-2798.77
-2798.84
-2798.9
-2798.97
-2799.02
-2799.08
-2799.12
-2799.15
-2799.17
-2799.18
-2799.18
-2799.17
-2799.14
-2799.11
-2799.06
-2799
-2798.94
-2798.88
-2798.82
-2798.75
-2798.69
-2798.64
-2798.6
-2798.56
-2798.54
-2798.53
-2798.54
-2798.56
-2798.58
-2798.62
-2798.67
-2798.72
-2798.77
-2798.82
-2798.87
-2798.91
-2798.95
-2798.97
-2798.98
-2798.98
-2798.97
-2798.95
-2798.93
-2798.89
-2798.86
-2798.83
-2798.81
-2798.79
-2798.78
-2798.77
-2798.78
-2798.8
-2798.82
-2798.85
-2798.88
-2798.91
-2798.93
-2798.95
-2798.96
-2798.96
-2798.96
-2798.95
-2798.93
-2798.9
-2798.88
-2798.85
-2798.83
-2798.82
-2798.81
-2798.81
-2798.81
-2798.82
-2798.84
-2798.86
-2798.87
-2798.89
-2798.9
-2798.91
-2798.91
-2798.91
-2798.9
-2798.89
-2798.87
-2798.86
-2798.84
-2798.83
-2798.82
-2798.82
-2798.82
-2798.83
-2798.84
-2798.85
-2798.87
-2798.89
-2798.91
-2798.93
-2798.94
-2798.95
-3706.5
-3706.5
-3706.5
-3706.51
-3706.52
-3706.52
-3706.54
-3706.55
-3706.56
-3706.57
-3706.59
-3706.61
-3706.62
-3706.64
-3706.65
-3706.67
-3706.69
-3706.7
-3706.71
-3706.73
-3706.74
-3706.75
-3706.75
-3706.76
-3706.77
-3706.77
-3706.78
-3706.78
-3706.78
-3706.79
-3706.79
-3706.79
-3706.8
-3706.81
-3706.82
-3706.83
-3706.85
-3706.87
-3706.9
-3706.93
-3706.96
-3707
-3707.04
-3707.09
-3707.15
-3707.2
-3707.26
-3707.33
-3707.4
-3707.47
-3707.55
-3707.62
-3707.7
-3707.78
-3707.86
-3707.95
-3708.03
-3708.1
-3708.18
-3708.25
-3708.32
-3708.38
-3708.44
-3708.49
-3708.53
-3708.56
-3708.59
-3708.6
-3708.61
-3708.61
-3708.6
-3708.57
-3708.54
-3708.5
-3708.45
-3708.39
-3708.32
-3708.25
-3708.17
-3708.08
-3708
-3707.91
-3707.82
-3707.73
-3707.64
-3707.56
-3707.49
-3707.42
-3707.36
-3707.31
-3707.28
-3707.25
-3707.24
-3707.25
-3707.26
-3707.29
-3707.34
-3707.39
-3707.46
-3707.54
-3707.62
-3707.71
-3707.8
-3707.89
-3707.99
-3708.07
-3708.15
-3708.22
-3708.28
-3708.32
-3708.35
-3708.36
-3708.35
-3708.33
-3708.29
-3708.24
-3708.18
-3708.1
-3708.02
-3707.93
-3707.84
-3707.75
-3707.67
-3707.6
-3707.55
-3707.51
-3707.48
-3707.47
-3707.48
-3707.51
-3707.55
-3707.61
-3707.67
-3707.74
-3707.82
-3707.89
-3707.95
-3708
-3708.05
-3708.07
-3708.08
-3708.08
-3708.06
-3708.03
-3707.99
-3707.94
-3707.9
-3707.85
-3707.82
-3707.79
-3707.77
-3707.77
-3707.79
-3707.81
-3707.84
-3707.88
-3707.92
-3707.96
-3707.99
-3708.02
-3708.03
-3708.03
-3708.02
-3708
-3707.98
-3707.94
-3707.91
-3707.88
-3707.86
-3707.84
-3707.83
-3707.83
-3707.84
-3707.85
-3707.87
-3707.89
-3707.91
-3707.93
-3707.95
-3707.96
-3707.96
-3707.96
-3707.95
-3707.93
-3707.91
-3707.89
-3707.88
-3707.86
-3707.85
-3707.84
-3707.85
-3707.85
-3707.87
-3707.89
-3707.91
-3707.93
-3707.96
-3707.98
-3707.99
-3708
-4511.61
-4511.61
-4511.62
-4511.63
-4511.65
-4511.67
-4511.69
-4511.71
-4511.74
-4511.77
-4511.8
-4511.83
-4511.86
-4511.89
-4511.92
-4511.95
-4511.98
-4512
-4512.02
-4512.04
-4512.05
-4512.05
-4512.06
-4512.06
-4512.05
-4512.05
-4512.04
-4512.03
-4512.01
-4512
-4511.99
-4511.98
-4511.97
-4511.96
-4511.96
-4511.97
-4511.97
-4511.99
-4512.01
-4512.04
-4512.07
-4512.11
-4512.16
-4512.22
-4512.28
-4512.35
-4512.43
-4512.51
-4512.6
-4512.7
-4512.79
-4512.9
-4513
-4513.11
-4513.21
-4513.32
-4513.43
-4513.53
-4513.63
-4513.72
-4513.81
-4513.89
-4513.96
-4514.03
-4514.08
-4514.13
-4514.16
-4514.18
-4514.18
-4514.17
-4514.15
-4514.12
-4514.07
-4514.01
-4513.94
-4513.86
-4513.77
-4513.66
-4513.55
-4513.44
-4513.32
-4513.19
-4513.07
-4512.95
-4512.84
-4512.73
-4512.63
-4512.54
-4512.46
-4512.4
-4512.35
-4512.32
-4512.31
-4512.32
-4512.34
-4512.39
-4512.45
-4512.53
-4512.62
-4512.72
-4512.84
-4512.96
-4513.09
-4513.21
-4513.34
-4513.45
-4513.56
-4513.65
-4513.72
-4513.78
-4513.81
-4513.82
-4513.81
-4513.78
-4513.73
-4513.65
-4513.56
-4513.46
-4513.34
-4513.22
-4513.1
-4512.99
-4512.88
-4512.79
-4512.72
-4512.67
-4512.64
-4512.63
-4512.65
-4512.69
-4512.75
-4512.83
-4512.92
-4513.01
-4513.11
-4513.21
-4513.29
-4513.36
-4513.41
-4513.44
-4513.45
-4513.44
-4513.41
-4513.36
-4513.3
-4513.24
-4513.17
-4513.11
-4513.06
-4513.03
-4513.01
-4513.01
-4513.03
-4513.06
-4513.11
-4513.16
-4513.22
-4513.27
-4513.31
-4513.34
-4513.36
-4513.36
-4513.35
-4513.32
-4513.28
-4513.24
-4513.19
-4513.16
-4513.12
-4513.1
-4513.09
-4513.09
-4513.1
-4513.12
-4513.15
-4513.18
-4513.21
-4513.23
-4513.25
-4513.26
-4513.27
-4513.26
-4513.25
-4513.23
-4513.2
-4513.18
-4513.16
-4513.14
-4513.13
-4513.12
-4513.12
-4513.13
-4513.15
-4513.17
-4513.2
-4513.22
-4513.25
-4513.27
-4513.29
-4513.3
-5224.71
-5224.72
-5224.73
-5224.75
-5224.78
-5224.82
-5224.86
-5224.91
-5224.97
-5225.03
-5225.09
-5225.16
-5225.22
-5225.28
-5225.34
-5225.39
-5225.44
-5225.48
-5225.51
-5225.53
-5225.54
-5225.54
-5225.54
-5225.52
-5225.5
-5225.47
-5225.43
-5225.39
-5225.35
-5225.3
-5225.26
-5225.22
-5225.19
-5225.16
-5225.13
-5225.12
-5225.11
-5225.12
-5225.13
-5225.16
-5225.19
-5225.24
-5225.3
-5225.37
-5225.45
-5225.54
-5225.64
-5225.75
-5225.86
-5225.98
-5226.11
-5226.25
-5226.38
-5226.52
-5226.66
-5226.8
-5226.94
-5227.07
-5227.2
-5227.32
-5227.44
-5227.54
-5227.64
-5227.72
-5227.79
-5227.84
-5227.88
-5227.9
-5227.9
-5227.89
-5227.86
-5227.81
-5227.75
-5227.66
-5227.57
-5227.45
-5227.33
-5227.19
-5227.04
-5226.89
-5226.73
-5226.56
-5226.4
-5226.24
-5226.09
-5225.95
-5225.82
-5225.7
-5225.6
-5225.52
-5225.46
-5225.42
-5225.41
-5225.43
-5225.46
-5225.53
-5225.61
-5225.72
-5225.84
-5225.99
-5226.14
-5226.3
-5226.47
-5226.63
-5226.79
-5226.95
-5227.08
-5227.2
-5227.3
-5227.37
-5227.41
-5227.42
-5227.4
-5227.35
-5227.28
-5227.18
-5227.05
-5226.91
-5226.76
-5226.61
-5226.45
-5226.3
-5226.16
-5226.05
-5225.95
-5225.89
-5225.85
-5225.85
-5225.88
-5225.94
-5226.02
-5226.13
-5226.25
-5226.38
-5226.51
-5226.63
-5226.74
-5226.83
-5226.89
-5226.93
-5226.93
-5226.91
-5226.87
-5226.8
-5226.72
-5226.63
-5226.54
-5226.45
-5226.39
-5226.34
-5226.32
-5226.32
-5226.35
-5226.4
-5226.46
-5226.53
-5226.6
-5226.67
-5226.73
-5226.77
-5226.79
-5226.78
-5226.76
-5226.73
-5226.68
-5226.62
-5226.57
-5226.52
-5226.48
-5226.45
-5226.44
-5226.44
-5226.46
-5226.49
-5226.52
-5226.56
-5226.59
-5226.62
-5226.65
-5226.66
-5226.66
-5226.66
-5226.64
-5226.61
-5226.59
-5226.56
-5226.53
-5226.51
-5226.49
-5226.48
-5226.48
-5226.5
-5226.52
-5226.54
-5226.57
-5226.61
-5226.64
-5226.66
-5226.68
-5226.69
-5856.21
-5856.23
-5856.27
-5856.32
-5856.39
-5856.47
-5856.57
-5856.68
-5856.8
-5856.92
-5857.05
-5857.17
-5857.28
-5857.39
-5857.49
-5857.57
-5857.65
-5857.7
-5857.74
-5857.76
-5857.77
-5857.76
-5857.73
-5857.68
-5857.62
-5857.54
-5857.46
-5857.37
-5857.27
-5857.18
-5857.08
-5857
-5856.92
-5856.86
-5856.81
-5856.77
-5856.75
-5856.74
-5856.75
-5856.77
-5856.82
-5856.87
-5856.95
-5857.03
-5857.14
-5857.25
-5857.38
-5857.52
-5857.67
-5857.83
-5857.99
-5858.16
-5858.34
-5858.52
-5858.7
-5858.88
-5859.05
-5859.23
-5859.39
-5859.55
-5859.69
-5859.82
-5859.94
-5860.04
-5860.13
-5860.2
-5860.24
-5860.27
-5860.27
-5860.25
-5860.2
-5860.14
-5860.05
-5859.94
-5859.81
-5859.66
-5859.5
-5859.32
-5859.13
-5858.93
-5858.72
-5858.51
-5858.3
-5858.1
-5857.9
-5857.72
-5857.55
-5857.4
-5857.28
-5857.18
-5857.1
-5857.06
-5857.05
-5857.07
-5857.13
-5857.21
-5857.32
-5857.46
-5857.63
-5857.81
-5858.01
-5858.22
-5858.44
-5858.65
-5858.85
-5859.05
-5859.22
-5859.37
-5859.49
-5859.57
-5859.62
-5859.63
-5859.61
-5859.54
-5859.44
-5859.31
-5859.15
-5858.96
-5858.77
-5858.57
-5858.37
-5858.17
-5858
-5857.86
-5857.74
-5857.66
-5857.62
-5857.63
-5857.67
-5857.75
-5857.86
-5858
-5858.16
-5858.33
-5858.49
-5858.65
-5858.79
-5858.9
-5858.97
-5859.01
-5859.01
-5858.98
-5858.91
-5858.82
-5858.71
-5858.59
-5858.47
-5858.37
-5858.28
-5858.23
-5858.2
-5858.21
-5858.24
-5858.31
-5858.39
-5858.48
-5858.58
-5858.66
-5858.73
-5858.78
-5858.8
-5858.8
-5858.77
-5858.72
-5858.66
-5858.59
-5858.52
-5858.46
-5858.41
-5858.38
-5858.36
-5858.37
-5858.39
-5858.43
-5858.47
-5858.52
-5858.56
-5858.6
-5858.63
-5858.64
-5858.64
-5858.63
-5858.61
-5858.58
-5858.55
-5858.51
-5858.48
-5858.45
-5858.43
-5858.43
-5858.43
-5858.44
-5858.47
-5858.5
-5858.53
-5858.57
-5858.6
-5858.63
-5858.66
-5858.67
-6415.27
-6415.3
-6415.35
-6415.43
-6415.54
-6415.67
-6415.82
-6416
-6416.19
-6416.41
-6416.62
-6416.84
-6417.06
-6417.27
-6417.46
-6417.63
-6417.77
-6417.89
-6417.98
-6418.03
-6418.04
-6418.01
-6417.95
-6417.86
-6417.74
-6417.59
-6417.42
-6417.24
-6417.06
-6416.89
-6416.72
-6416.58
-6416.45
-6416.34
-6416.25
-6416.19
-6416.15
-6416.13
-6416.14
-6416.17
-6416.22
-6416.29
-6416.39
-6416.5
-6416.63
-6416.78
-6416.94
-6417.12
-6417.31
-6417.51
-6417.73
-6417.94
-6418.17
-6418.39
-6418.62
-6418.84
-6419.06
-6419.28
-6419.48
-6419.68
-6419.86
-6420.02
-6420.17
-6420.29
-6420.4
-6420.48
-6420.53
-6420.56
-6420.55
-6420.52
-6420.47
-6420.38
-6420.27
-6420.13
-6419.96
-6419.77
-6419.56
-6419.33
-6419.09
-6418.84
-6418.58
-6418.32
-6418.05
-6417.8
-6417.56
-6417.33
-6417.12
-6416.94
-6416.78
-6416.66
-6416.58
-6416.53
-6416.52
-6416.55
-6416.62
-6416.73
-6416.88
-6417.05
-6417.26
-6417.5
-6417.75
-6418.01
-6418.28
-6418.55
-6418.81
-6419.04
-6419.26
-6419.44
-6419.59
-6419.69
-6419.75
-6419.75
-6419.72
-6419.63
-6419.5
-6419.33
-6419.12
-6418.89
-6418.65
-6418.39
-6418.14
-6417.91
-6417.69
-6417.51
-6417.37
-6417.28
-6417.24
-6417.25
-6417.31
-6417.41
-6417.56
-6417.74
-6417.94
-6418.15
-6418.36
-6418.55
-6418.72
-6418.85
-6418.94
-6418.99
-6418.98
-6418.93
-6418.84
-6418.72
-6418.58
-6418.43
-6418.28
-6418.14
-6418.04
-6417.97
-6417.94
-6417.95
-6418
-6418.08
-6418.19
-6418.31
-6418.43
-6418.53
-6418.62
-6418.67
-6418.7
-6418.69
-6418.65
-6418.59
-6418.51
-6418.42
-6418.34
-6418.26
-6418.21
-6418.17
-6418.16
-6418.17
-6418.2
-6418.24
-6418.3
-6418.35
-6418.4
-6418.45
-6418.48
-6418.5
-6418.5
-6418.49
-6418.46
-6418.42
-6418.38
-6418.34
-6418.3
-6418.27
-6418.25
-6418.24
-6418.24
-6418.26
-6418.29
-6418.32
-6418.36
-6418.4
-6418.44
-6418.48
-6418.5
-6418.52
-6910.11
-6910.16
-6910.27
-6910.44
-6910.67
-6910.97
-6911.32
-6911.72
-6912.12
-6912.55
-6912.97
-6913.38
-6913.76
-6914.1
-6914.39
-6914.63
-6914.82
-6914.96
-6915.04
-6915.07
-6915.04
-6914.95
-6914.81
-6914.6
-6914.34
-6914.02
-6913.66
-6913.29
-6912.93
-6912.6
-6912.34
-6912.11
-6911.92
-6911.77
-6911.66
-6911.57
-6911.52
-6911.51
-6911.52
-6911.57
-6911.64
-6911.74
-6911.86
-6912.01
-6912.18
-6912.36
-6912.57
-6912.8
-6913.04
-6913.29
-6913.55
-6913.82
-6914.1
-6914.37
-6914.65
-6914.93
-6915.2
-6915.46
-6915.71
-6915.95
-6916.17
-6916.36
-6916.54
-6916.69
-6916.81
-6916.91
-6916.97
-6917
-6916.99
-6916.95
-6916.88
-6916.77
-6916.62
-6916.45
-6916.24
-6916.01
-6915.75
-6915.47
-6915.17
-6914.86
-6914.54
-6914.22
-6913.9
-6913.59
-6913.29
-6913.01
-6912.76
-6912.54
-6912.36
-6912.21
-6912.11
-6912.06
-6912.05
-6912.09
-6912.18
-6912.32
-6912.51
-6912.73
-6912.99
-6913.27
-6913.58
-6913.91
-6914.24
-6914.56
-6914.88
-6915.17
-6915.42
-6915.64
-6915.82
-6915.94
-6916
-6916.01
-6915.95
-6915.84
-6915.68
-6915.46
-6915.21
-6914.93
-6914.63
-6914.32
-6914.01
-6913.72
-6913.47
-6913.25
-6913.09
-6912.98
-6912.94
-6912.95
-6913.03
-6913.17
-6913.35
-6913.57
-6913.82
-6914.08
-6914.33
-6914.57
-6914.77
-6914.93
-6915.03
-6915.08
-6915.07
-6915
-6914.89
-6914.73
-6914.55
-6914.36
-6914.18
-6914.01
-6913.89
-6913.8
-6913.77
-6913.79
-6913.85
-6913.96
-6914.09
-6914.23
-6914.38
-6914.51
-6914.61
-6914.68
-6914.7
-6914.69
-6914.64
-6914.56
-6914.46
-6914.36
-6914.26
-6914.17
-6914.1
-6914.06
-6914.05
-6914.07
-6914.1
-6914.16
-6914.22
-6914.29
-6914.35
-6914.4
-6914.44
-6914.46
-6914.46
-6914.44
-6914.41
-6914.37
-6914.32
-6914.27
-6914.23
-6914.19
-6914.17
-6914.16
-6914.16
-6914.18
-6914.21
-6914.25
-6914.29
-6914.34
-6914.39
-6914.43
-6914.45
-6914.47
-7347.78
-7347.86
-7348
-7348.22
-7348.52
-7348.9
-7349.39
-7349.96
-7350.63
-7351.36
-7352
-7352.59
-7353.12
-7353.6
-7354.01
-7354.36
-7354.64
-7354.85
-7354.99
-7355.05
-7355.03
-7354.92
-7354.74
-7354.46
-7354.1
-7353.65
-7353.05
-7352.5
-7352.01
-7351.59
-7351.22
-7350.91
-7350.66
-7350.46
-7350.32
-7350.23
-7350.18
-7350.18
-7350.22
-7350.28
-7350.39
-7350.52
-7350.68
-7350.87
-7351.08
-7351.32
-7351.57
-7351.85
-7352.14
-7352.45
-7352.77
-7353.1
-7353.43
-7353.76
-7354.1
-7354.43
-7354.75
-7355.07
-7355.36
-7355.65
-7355.91
-7356.14
-7356.35
-7356.53
-7356.67
-7356.78
-7356.85
-7356.88
-7356.87
-7356.81
-7356.72
-7356.58
-7356.41
-7356.19
-7355.94
-7355.66
-7355.35
-7355.01
-7354.65
-7354.28
-7353.89
-7353.51
-7353.13
-7352.76
-7352.4
-7352.07
-7351.78
-7351.52
-7351.3
-7351.13
-7351.02
-7350.96
-7350.95
-7351.01
-7351.12
-7351.29
-7351.52
-7351.79
-7352.1
-7352.45
-7352.82
-7353.21
-7353.6
-7353.99
-7354.36
-7354.71
-7355.01
-7355.27
-7355.47
-7355.61
-7355.68
-7355.68
-7355.61
-7355.48
-7355.27
-7355.01
-7354.71
-7354.37
-7354
-7353.63
-7353.27
-7352.93
-7352.63
-7352.38
-7352.18
-7352.06
-7352.02
-7352.04
-7352.15
-7352.31
-7352.54
-7352.81
-7353.11
-7353.42
-7353.72
-7354
-7354.24
-7354.42
-7354.54
-7354.59
-7354.57
-7354.48
-7354.33
-7354.14
-7353.92
-7353.69
-7353.47
-7353.28
-7353.13
-7353.03
-7352.99
-7353.02
-7353.1
-7353.23
-7353.39
-7353.56
-7353.74
-7353.89
-7354.01
-7354.09
-7354.11
-7354.09
-7354.03
-7353.94
-7353.82
-7353.69
-7353.58
-7353.48
-7353.4
-7353.36
-7353.34
-7353.36
-7353.41
-7353.47
-7353.55
-7353.63
-7353.7
-7353.76
-7353.8
-7353.82
-7353.82
-7353.8
-7353.76
-7353.71
-7353.66
-7353.6
-7353.55
-7353.51
-7353.49
-7353.47
-7353.48
-7353.5
-7353.53
-7353.58
-7353.63
-7353.68
-7353.73
-7353.77
-7353.81
-7353.82
-7734.83
-7734.92
-7735.09
-7735.38
-7735.81
-7736.45
-7737.39
-7738.78
-7740.2
-7741.51
-7742.59
-7743.51
-7744.28
-7744.93
-7745.46
-7745.88
-7746.2
-7746.42
-7746.54
-7746.57
-7746.49
-7746.3
-7745.99
-7745.54
-7744.94
-7744.15
-7743.08
-7741.78
-7740.67
-7739.98
-7739.49
-7739.15
-7738.91
-7738.75
-7738.65
-7738.6
-7738.59
-7738.62
-7738.69
-7738.8
-7738.94
-7739.11
-7739.32
-7739.55
-7739.81
-7740.1
-7740.41
-7740.74
-7741.09
-7741.46
-7741.84
-7742.22
-7742.62
-7743.01
-7743.41
-7743.8
-7744.17
-7744.54
-7744.89
-7745.22
-7745.52
-7745.79
-7746.03
-7746.24
-7746.4
-7746.53
-7746.6
-7746.63
-7746.62
-7746.55
-7746.44
-7746.27
-7746.06
-7745.81
-7745.51
-7745.17
-7744.8
-7744.41
-7743.98
-7743.54
-7743.09
-7742.64
-7742.2
-7741.76
-7741.35
-7740.97
-7740.62
-7740.32
-7740.07
-7739.88
-7739.75
-7739.68
-7739.69
-7739.76
-7739.9
-7740.1
-7740.37
-7740.69
-7741.06
-7741.47
-7741.91
-7742.36
-7742.82
-7743.28
-7743.71
-7744.11
-7744.47
-7744.77
-7745
-7745.16
-7745.23
-7745.23
-7745.14
-7744.97
-7744.73
-7744.42
-7744.06
-7743.66
-7743.23
-7742.8
-7742.37
-7741.98
-7741.63
-7741.34
-7741.12
-7740.98
-7740.93
-7740.97
-7741.1
-7741.3
-7741.57
-7741.89
-7742.25
-7742.61
-7742.96
-7743.29
-7743.56
-7743.77
-7743.91
-7743.96
-7743.93
-7743.82
-7743.64
-7743.41
-7743.15
-7742.87
-7742.61
-7742.38
-7742.21
-7742.1
-7742.06
-7742.1
-7742.2
-7742.35
-7742.54
-7742.75
-7742.95
-7743.13
-7743.27
-7743.35
-7743.38
-7743.35
-7743.28
-7743.16
-7743.03
-7742.88
-7742.74
-7742.63
-7742.55
-7742.5
-7742.49
-7742.51
-7742.57
-7742.64
-7742.73
-7742.82
-7742.9
-7742.97
-7743.01
-7743.03
-7743.03
-7743.01
-7742.96
-7742.91
-7742.85
-7742.79
-7742.73
-7742.69
-7742.66
-7742.64
-7742.65
-7742.67
-7742.71
-7742.76
-7742.81
-7742.87
-7742.93
-7742.97
-7743.01
-7743.03
-8077.54
-8077.63
-8077.8
-8078.1
-8078.5
-8079.04
-8079.63
-8080.47
-8084.22
-8083.8
-8083.48
-8083.2
-8082.95
-8082.76
-8082.62
-8082.54
-8082.52
-8082.54
-8082.61
-8082.71
-8082.86
-8083.04
-8083.26
-8083.51
-8083.8
-8084.11
-8084.45
-8084.82
-8085.21
-8085.62
-8086.05
-8086.49
-8086.93
-8087.39
-8087.85
-8088.3
-8088.75
-8089.19
-8089.61
-8090.01
-8090.39
-8090.73
-8091.05
-8091.32
-8091.55
-8091.74
-8091.87
-8091.96
-8091.99
-8091.96
-8091.88
-8091.75
-8091.56
-8091.31
-8091.01
-8090.67
-8090.28
-8089.85
-8089.38
-8088.9
-8088.39
-8087.87
-8087.35
-8086.84
-8086.34
-8085.87
-8085.43
-8085.04
-8084.7
-8084.41
-8084.2
-8084.05
-8083.98
-8083.99
-8084.07
-8084.24
-8084.48
-8084.79
-8085.17
-8085.59
-8086.07
-8086.57
-8087.1
-8087.63
-8088.16
-8088.65
-8089.11
-8089.52
-8089.85
-8090.12
-8090.29
-8090.37
-8090.36
-8090.26
-8090.06
-8089.77
-8089.41
-8088.99
-8088.53
-8088.04
-8087.54
-8087.05
-8086.6
-8086.2
-8085.87
-8085.62
-8085.47
-8085.43
-8085.48
-8085.63
-8085.87
-8086.19
-8086.56
-8086.97
-8087.39
-8087.79
-8088.16
-8088.48
-8088.71
-8088.86
-8088.91
-8088.87
-8088.73
-8088.52
-8088.25
-8087.95
-8087.63
-8087.33
-8087.07
-8086.87
-8086.74
-8086.7
-8086.75
-8086.87
-8087.05
-8087.28
-8087.52
-8087.75
-8087.95
-8088.11
-8088.2
-8088.23
-8088.19
-8088.1
-8087.97
-8087.81
-8087.64
-8087.49
-8087.36
-8087.27
-8087.22
-8087.21
-8087.24
-8087.3
-8087.39
-8087.49
-8087.59
-8087.68
-8087.75
-8087.8
-8087.83
-8087.82
-8087.8
-8087.75
-8087.69
-8087.62
-8087.55
-8087.49
-8087.44
-8087.41
-8087.39
-8087.4
-8087.42
-8087.46
-8087.52
-8087.58
-8087.64
-8087.7
-8087.75
-8087.79
-8087.81
-8380.42
-8380.45
-8380.51
-8380.61
-8380.73
-8380.84
-8380.94
-8381.02
-8387.35
-8387.32
-8387.2
-8387.14
-8387.07
-8387.02
-8387
-8387
-8387.04
-8387.11
-8387.23
-8387.38
-8387.57
-8387.8
-8388.06
-8388.36
-8388.7
-8389.07
-8389.46
-8389.89
-8390.34
-8390.81
-8391.29
-8391.8
-8392.31
-8392.83
-8393.35
-8393.87
-8394.37
-8394.87
-8395.35
-8395.8
-8396.22
-8396.61
-8396.96
-8397.27
-8397.53
-8397.74
-8397.89
-8397.98
-8398.01
-8397.98
-8397.88
-8397.72
-8397.5
-8397.22
-8396.87
-8396.48
-8396.03
-8395.54
-8395.02
-8394.46
-8393.89
-8393.3
-8392.71
-8392.13
-8391.57
-8391.04
-8390.54
-8390.1
-8389.72
-8389.4
-8389.16
-8389
-8388.92
-8388.94
-8389.04
-8389.24
-8389.51
-8389.87
-8390.3
-8390.79
-8391.33
-8391.9
-8392.5
-8393.1
-8393.69
-8394.26
-8394.77
-8395.23
-8395.61
-8395.9
-8396.09
-8396.18
-8396.16
-8396.03
-8395.8
-8395.47
-8395.06
-8394.58
-8394.05
-8393.49
-8392.93
-8392.38
-8391.87
-8391.42
-8391.05
-8390.78
-8390.62
-8390.57
-8390.64
-8390.82
-8391.09
-8391.46
-8391.88
-8392.35
-8392.83
-8393.29
-8393.7
-8394.05
-8394.31
-8394.48
-8394.53
-8394.47
-8394.31
-8394.06
-8393.75
-8393.4
-8393.04
-8392.7
-8392.4
-8392.18
-8392.04
-8392
-8392.06
-8392.2
-8392.41
-8392.67
-8392.94
-8393.2
-8393.43
-8393.6
-8393.71
-8393.73
-8393.69
-8393.58
-8393.43
-8393.26
-8393.06
-8392.89
-8392.75
-8392.65
-8392.6
-8392.59
-8392.63
-8392.7
-8392.8
-8392.91
-8393.02
-8393.12
-8393.2
-8393.25
-8393.28
-8393.27
-8393.24
-8393.19
-8393.12
-8393.04
-8392.97
-8392.9
-8392.85
-8392.81
-8392.8
-8392.8
-8392.83
-8392.88
-8392.93
-8393
-8393.07
-8393.13
-8393.19
-8393.23
-8393.25
-8648.55
-8648.57
-8648.6
-8648.66
-8648.72
-8648.79
-8648.87
-8648.95
-8656.81
-8656.76
-8656.67
-8656.62
-8656.58
-8656.57
-8656.59
-8656.64
-8656.72
-8656.84
-8657
-8657.19
-8657.43
-8657.7
-8658.01
-8658.36
-8658.75
-8659.17
-8659.62
-8660.1
-8660.61
-8661.14
-8661.69
-8662.25
-8662.83
-8663.41
-8663.99
-8664.57
-8665.14
-8665.69
-8666.22
-8666.73
-8667.2
-8667.63
-8668.02
-8668.36
-8668.65
-8668.87
-8669.04
-8669.14
-8669.17
-8669.13
-8669.02
-8668.83
-8668.58
-8668.26
-8667.87
-8667.43
-8666.93
-8666.38
-8665.79
-8665.17
-8664.52
-8663.87
-8663.21
-8662.56
-8661.93
-8661.34
-8660.79
-8660.3
-8659.88
-8659.53
-8659.26
-8659.09
-8659.01
-8659.03
-8659.16
-8659.38
-8659.69
-8660.09
-8660.58
-8661.13
-8661.73
-8662.38
-8663.04
-8663.72
-8664.38
-8665
-8665.57
-8666.08
-8666.5
-8666.82
-8667.03
-8667.12
-8667.09
-8666.94
-8666.68
-8666.31
-8665.85
-8665.31
-8664.71
-8664.09
-8663.46
-8662.84
-8662.28
-8661.78
-8661.38
-8661.08
-8660.9
-8660.86
-8660.94
-8661.14
-8661.46
-8661.87
-8662.35
-8662.87
-8663.41
-8663.92
-8664.38
-8664.77
-8665.06
-8665.23
-8665.28
-8665.21
-8665.03
-8664.75
-8664.39
-8664
-8663.59
-8663.21
-8662.88
-8662.63
-8662.48
-8662.44
-8662.51
-8662.67
-8662.91
-8663.2
-8663.51
-8663.8
-8664.05
-8664.24
-8664.35
-8664.38
-8664.32
-8664.2
-8664.03
-8663.84
-8663.62
-8663.44
-8663.28
-8663.17
-8663.11
-8663.11
-8663.15
-8663.24
-8663.35
-8663.47
-8663.59
-8663.7
-8663.79
-8663.84
-8663.87
-8663.86
-8663.82
-8663.77
-8663.69
-8663.61
-8663.53
-8663.46
-8663.4
-8663.36
-8663.35
-8663.35
-8663.38
-8663.43
-8663.49
-8663.56
-8663.64
-8663.71
-8663.76
-8663.81
-8663.83
-8886.02
-8886.03
-8886.05
-8886.08
-8886.12
-8886.16
-8886.2
-8886.24
-8895.27
-8895.29
-8895.26
-8895.25
-8895.26
-8895.29
-8895.35
-8895.44
-8895.56
-8895.72
-8895.92
-8896.15
-8896.43
-8896.75
-8897.1
-8897.5
-8897.93
-8898.41
-8898.91
-8899.45
-8900.01
-8900.6
-8901.21
-8901.84
-8902.47
-8903.12
-8903.76
-8904.4
-8905.03
-8905.63
-8906.22
-8906.77
-8907.29
-8907.77
-8908.19
-8908.57
-8908.88
-8909.12
-8909.3
-8909.41
-8909.43
-8909.38
-8909.26
-8909.05
-8908.77
-8908.41
-8907.98
-8907.49
-8906.93
-8906.32
-8905.67
-8904.98
-8904.27
-8903.55
-8902.82
-8902.11
-8901.42
-8900.76
-8900.16
-8899.62
-8899.16
-8898.78
-8898.49
-8898.3
-8898.22
-8898.25
-8898.39
-8898.64
-8898.99
-8899.44
-8899.98
-8900.59
-8901.26
-8901.97
-8902.71
-8903.45
-8904.18
-8904.86
-8905.49
-8906.05
-8906.5
-8906.85
-8907.08
-8907.18
-8907.14
-8906.97
-8906.67
-8906.26
-8905.74
-8905.15
-8904.49
-8903.8
-8903.1
-8902.43
-8901.81
-8901.26
-8900.82
-8900.5
-8900.31
-8900.26
-8900.36
-8900.6
-8900.95
-8901.41
-8901.94
-8902.52
-8903.11
-8903.67
-8904.18
-8904.61
-8904.92
-8905.1
-8905.15
-8905.07
-8904.86
-8904.54
-8904.15
-8903.7
-8903.25
-8902.83
-8902.47
-8902.2
-8902.04
-8902
-8902.08
-8902.26
-8902.53
-8902.85
-8903.19
-8903.52
-8903.79
-8904
-8904.12
-8904.14
-8904.08
-8903.94
-8903.75
-8903.53
-8903.3
-8903.1
-8902.93
-8902.81
-8902.75
-8902.75
-8902.8
-8902.89
-8903.01
-8903.15
-8903.28
-8903.4
-8903.49
-8903.55
-8903.58
-8903.57
-8903.53
-8903.46
-8903.38
-8903.29
-8903.21
-8903.13
-8903.07
-8903.03
-8903.01
-8903.02
-8903.05
-8903.1
-8903.17
-8903.25
-8903.32
-8903.4
-8903.46
-8903.5
-8903.53
-9096.36
-9096.36
-9096.38
-9096.4
-9096.42
-9096.44
-9096.46
-9096.47
-9106.58
-9106.62
-9106.61
-9106.63
-9106.67
-9106.73
-9106.82
-9106.94
-9107.1
-9107.29
-9107.52
-9107.79
-9108.11
-9108.46
-9108.86
-9109.31
-9109.79
-9110.31
-9110.86
-9111.45
-9112.07
-9112.72
-9113.39
-9114.07
-9114.77
-9115.47
-9116.18
-9116.87
-9117.55
-9118.22
-9118.86
-9119.46
-9120.02
-9120.54
-9121
-9121.4
-9121.74
-9122
-9122.19
-9122.3
-9122.33
-9122.27
-9122.13
-9121.9
-9121.59
-9121.19
-9120.72
-9120.18
-9119.57
-9118.9
-9118.19
-9117.44
-9116.66
-9115.87
-9115.08
-9114.3
-9113.55
-9112.84
-9112.18
-9111.6
-9111.1
-9110.68
-9110.38
-9110.18
-9110.09
-9110.13
-9110.29
-9110.56
-9110.95
-9111.45
-9112.04
-9112.71
-9113.44
-9114.22
-9115.02
-9115.83
-9116.62
-9117.37
-9118.05
-9118.65
-9119.15
-9119.52
-9119.76
-9119.86
-9119.82
-9119.63
-9119.3
-9118.84
-9118.28
-9117.62
-9116.9
-9116.15
-9115.39
-9114.65
-9113.98
-9113.39
-9112.91
-9112.57
-9112.37
-9112.33
-9112.44
-9112.7
-9113.09
-9113.6
-9114.18
-9114.81
-9115.46
-9116.07
-9116.63
-9117.08
-9117.42
-9117.62
-9117.66
-9117.56
-9117.33
-9116.98
-9116.54
-9116.06
-9115.56
-9115.1
-9114.71
-9114.41
-9114.24
-9114.2
-9114.3
-9114.5
-9114.8
-9115.16
-9115.53
-9115.88
-9116.18
-9116.4
-9116.52
-9116.54
-9116.47
-9116.32
-9116.11
-9115.87
-9115.62
-9115.4
-9115.22
-9115.1
-9115.04
-9115.04
-9115.09
-9115.2
-9115.33
-9115.47
-9115.61
-9115.74
-9115.84
-9115.9
-9115.93
-9115.92
-9115.87
-9115.8
-9115.72
-9115.62
-9115.53
-9115.45
-9115.38
-9115.34
-9115.32
-9115.33
-9115.37
-9115.42
-9115.49
-9115.57
-9115.65
-9115.73
-9115.79
-9115.84
-9115.87
-9282.67
-9282.67
-9282.68
-9282.69
-9282.71
-9282.72
-9282.73
-9282.74
-9293.77
-9293.81
-9293.82
-9293.86
-9293.92
-9294
-9294.12
-9294.26
-9294.45
-9294.67
-9294.93
-9295.24
-9295.59
-9295.98
-9296.42
-9296.9
-9297.43
-9298
-9298.6
-9299.24
-9299.92
-9300.62
-9301.34
-9302.08
-9302.84
-9303.6
-9304.35
-9305.11
-9305.84
-9306.56
-9307.25
-9307.9
-9308.5
-9309.06
-9309.55
-9309.98
-9310.34
-9310.63
-9310.83
-9310.94
-9310.97
-9310.9
-9310.74
-9310.49
-9310.15
-9309.72
-9309.21
-9308.61
-9307.95
-9307.23
-9306.46
-9305.65
-9304.81
-9303.95
-9303.1
-9302.26
-9301.45
-9300.68
-9299.98
-9299.35
-9298.81
-9298.37
-9298.04
-9297.83
-9297.75
-9297.79
-9297.97
-9298.27
-9298.69
-9299.23
-9299.87
-9300.6
-9301.39
-9302.23
-9303.1
-9303.98
-9304.83
-9305.64
-9306.37
-9307.02
-9307.55
-9307.95
-9308.2
-9308.3
-9308.25
-9308.04
-9307.68
-9307.18
-9306.57
-9305.86
-9305.08
-9304.26
-9303.44
-9302.65
-9301.92
-9301.29
-9300.78
-9300.41
-9300.2
-9300.16
-9300.29
-9300.58
-9301.01
-9301.56
-9302.19
-9302.88
-9303.57
-9304.24
-9304.83
-9305.32
-9305.68
-9305.89
-9305.93
-9305.82
-9305.56
-9305.17
-9304.7
-9304.17
-9303.63
-9303.13
-9302.71
-9302.4
-9302.22
-9302.18
-9302.28
-9302.51
-9302.84
-9303.22
-9303.63
-9304
-9304.33
-9304.56
-9304.69
-9304.71
-9304.63
-9304.46
-9304.23
-9303.98
-9303.71
-9303.47
-9303.28
-9303.15
-9303.09
-9303.09
-9303.15
-9303.26
-9303.4
-9303.56
-9303.71
-9303.84
-9303.95
-9304.01
-9304.04
-9304.03
-9303.98
-9303.91
-9303.81
-9303.71
-9303.62
-9303.53
-9303.46
-9303.42
-9303.4
-9303.41
-9303.45
-9303.51
-9303.58
-9303.66
-9303.75
-9303.83
-9303.9
-9303.95
-9303.97
-9447.71
-9447.71
-9447.72
-9447.73
-9447.73
-9447.74
-9447.75
-9447.76
-9459.58
-9459.63
-9459.65
-9459.7
-9459.78
-9459.88
-9460.01
-9460.18
-9460.38
-9460.63
-9460.92
-9461.25
-9461.63