/*--------------------------------*- C++ -*----------------------------------*\
  =========                 |
  \\      /  F ield         | OpenFOAM: The Open Source CFD Toolbox
   \\    /   O peration     | Website:  https://openfoam.org
    \\  /    A nd           | Version:  12
     \\/     M anipulation  |
\*---------------------------------------------------------------------------*/
FoamFile
{
    format      ascii;
    class       volVectorField;
    location    "12.38";
    object      zeta;
}
// * * * * * * * * * * * * * * * * * * * * * * * * * * * * * * * * * * * * * //

dimensions      [0 1 0 0 0 0 0];

internalField   uniform (0 0 0);

boundaryField
{
    freeSurface
    {
        type            calculated;
        value           nonuniform List<vector> 
181
(
(0 -0.00442004 0)
(0 -0.00442054 0)
(0 -0.00442006 0)
(0 -0.00441959 0)
(0 -0.00441865 0)
(0 -0.00441804 0)
(0 -0.00441701 0)
(0 -0.00441656 0)
(0 -0.00145092 0)
(0 -0.00144746 0)
(0 -0.00145441 0)
(0 -0.00145961 0)
(0 -0.00146492 0)
(0 -0.00146893 0)
(0 -0.001474 0)
(0 -0.00147652 0)
(0 -0.00147713 0)
(0 -0.00147401 0)
(0 -0.00146627 0)
(0 -0.00145345 0)
(0 -0.00143492 0)
(0 -0.00141053 0)
(0 -0.00137986 0)
(0 -0.0013424 0)
(0 -0.00129775 0)
(0 -0.00124564 0)
(0 -0.00118597 0)
(0 -0.00111875 0)
(0 -0.00104421 0)
(0 -0.000962574 0)
(0 -0.000874093 0)
(0 -0.000779137 0)
(0 -0.000678083 0)
(0 -0.000571585 0)
(0 -0.000460345 0)
(0 -0.000345148 0)
(0 -0.000226996 0)
(0 -0.00010685 0)
(0 1.42255e-05 0)
(0 0.000134952 0)
(0 0.00025416 0)
(0 0.000370619 0)
(0 0.000482878 0)
(0 0.000589561 0)
(0 0.000689419 0)
(0 0.000781205 0)
(0 0.000863564 0)
(0 0.000935218 0)
(0 0.000995044 0)
(0 0.00104178 0)
(0 0.00107475 0)
(0 0.00109291 0)
(0 0.0010955 0)
(0 0.00108209 0)
(0 0.00105243 0)
(0 0.00100633 0)
(0 0.000944056 0)
(0 0.000866186 0)
(0 0.000773521 0)
(0 0.000667161 0)
(0 0.000548562 0)
(0 0.000419425 0)
(0 0.000281663 0)
(0 0.00013787 0)
(0 -9.60029e-06 0)
(0 -0.000157966 0)
(0 -0.000304476 0)
(0 -0.00044605 0)
(0 -0.000579566 0)
(0 -0.000702041 0)
(0 -0.000810559 0)
(0 -0.000902392 0)
(0 -0.000975031 0)
(0 -0.0010263 0)
(0 -0.00105457 0)
(0 -0.00105862 0)
(0 -0.00103773 0)
(0 -0.000991919 0)
(0 -0.00092181 0)
(0 -0.000828618 0)
(0 -0.000714301 0)
(0 -0.000581474 0)
(0 -0.000433478 0)
(0 -0.000274024 0)
(0 -0.000107586 0)
(0 6.12014e-05 0)
(0 0.000227329 0)
(0 0.000385661 0)
(0 0.000531187 0)
(0 0.000659141 0)
(0 0.000765086 0)
(0 0.000845066 0)
(0 0.000895945 0)
(0 0.000915504 0)
(0 0.000902725 0)
(0 0.000857295 0)
(0 0.00078079 0)
(0 0.000675568 0)
(0 0.000545311 0)
(0 0.00039499 0)
(0 0.00023048 0)
(0 5.85561e-05 0)
(0 -0.00011351 0)
(0 -0.000278541 0)
(0 -0.000429202 0)
(0 -0.00055828 0)
(0 -0.000659743 0)
(0 -0.00072854 0)
(0 -0.000761218 0)
(0 -0.000755806 0)
(0 -0.000712466 0)
(0 -0.000633428 0)
(0 -0.000522735 0)
(0 -0.000386537 0)
(0 -0.00023237 0)
(0 -6.93809e-05 0)
(0 9.29332e-05 0)
(0 0.00024493 0)
(0 0.000377105 0)
(0 0.000481 0)
(0 0.00054971 0)
(0 0.000578961 0)
(0 0.000566455 0)
(0 0.000513155 0)
(0 0.000423084 0)
(0 0.00030288 0)
(0 0.000161737 0)
(0 1.05428e-05 0)
(0 -0.000138851 0)
(0 -0.000275023 0)
(0 -0.000386887 0)
(0 -0.00046514 0)
(0 -0.000503443 0)
(0 -0.000498617 0)
(0 -0.000451454 0)
(0 -0.000366713 0)
(0 -0.000252703 0)
(0 -0.000120551 0)
(0 1.63924e-05 0)
(0 0.000145389 0)
(0 0.000253789 0)
(0 0.000330911 0)
(0 0.000369686 0)
(0 0.000367197 0)
(0 0.00032518 0)
(0 0.000249896 0)
(0 0.000151431 0)
(0 4.28232e-05 0)
(0 -6.22217e-05 0)
(0 -0.000151369 0)
(0 -0.000213609 0)
(0 -0.000242101 0)
(0 -0.000235002 0)
(0 -0.000195611 0)
(0 -0.000131921 0)
(0 -5.53607e-05 0)
(0 2.0548e-05 0)
(0 8.41491e-05 0)
(0 0.000125445 0)
(0 0.000138904 0)
(0 0.000124454 0)
(0 8.71946e-05 0)
(0 3.60167e-05 0)
(0 -1.8304e-05 0)
(0 -6.51083e-05 0)
(0 -9.65539e-05 0)
(0 -0.000107419 0)
(0 -9.68395e-05 0)
(0 -6.85687e-05 0)
(0 -2.9437e-05 0)
(0 1.23935e-05 0)
(0 4.88863e-05 0)
(0 7.3737e-05 0)
(0 8.30664e-05 0)
(0 7.52088e-05 0)
(0 5.25858e-05 0)
(0 1.95545e-05 0)
(0 -1.8091e-05 0)
(0 -5.40009e-05 0)
(0 -8.21437e-05 0)
(0 -9.76816e-05 0)
)
;
    }
    walls
    {
        type            calculated;
        value           uniform (0 0 0);
    }
    floatingObject
    {
        type            calculated;
        value           uniform (0 0 0);
    }
    frontAndBack
    {
        type            empty;
    }
}


// ************************************************************************* //
