/*--------------------------------*- C++ -*----------------------------------*\
  =========                 |
  \\      /  F ield         | OpenFOAM: The Open Source CFD Toolbox
   \\    /   O peration     | Website:  https://openfoam.org
    \\  /    A nd           | Version:  12
     \\/     M anipulation  |
\*---------------------------------------------------------------------------*/
FoamFile
{
    format      ascii;
    class       volScalarField;
    location    "17.74";
    object      p_rgh;
}
// * * * * * * * * * * * * * * * * * * * * * * * * * * * * * * * * * * * * * //

dimensions      [1 -1 -2 0 0 0 0];

internalField   nonuniform List<scalar> 
3829
(
2.32616
2.32542
2.32391
2.32159
2.31843
2.31439
2.30944
2.30352
2.2966
2.28861
2.27951
2.26923
2.25772
2.2449
2.23072
2.21511
2.19799
2.1793
2.15898
2.13695
2.11314
2.0875
2.05995
2.03043
1.99889
1.96527
1.92952
1.89159
1.85145
1.80906
1.76441
1.71748
1.66827
1.61679
1.56303
1.50736
1.44963
1.3899
1.32827
1.26485
1.19976
1.13317
1.06526
0.996234
0.926303
0.855716
0.784734
0.713641
0.642739
0.57235
0.502809
0.434472
0.367704
0.302878
0.240379
0.180587
0.123893
0.0706712
0.0212905
-0.0239003
-0.0645683
-0.100405
-0.131143
-0.156536
-0.175339
-0.189374
-0.197766
-0.200484
-0.196973
-0.187794
-0.17317
-0.153248
-0.128697
-0.0999215
-0.0673799
-0.0316709
0.00653556
0.0465212
0.087486
0.128591
0.168967
0.207714
0.243917
0.276676
0.305125
0.328459
0.345927
0.356888
0.360858
0.35605
0.343012
0.321915
0.293053
0.256836
0.213801
0.164641
0.110247
0.0517295
-0.00962775
-0.0723845
-0.13495
-0.195665
-0.252819
-0.30471
-0.349687
-0.38621
-0.412941
-0.428771
-0.432928
-0.425038
-0.404144
-0.371108
-0.326914
-0.272788
-0.21034
-0.1416
-0.0688707
0.00509327
0.0773115
0.144944
0.205081
0.254975
0.292234
0.314963
0.32186
0.310559
0.282157
0.237962
0.179701
0.109824
0.0315619
-0.0636352
-0.147032
-0.226625
-0.297893
-0.356548
-0.398949
-0.422379
-0.425327
-0.406255
-0.366812
-0.309359
-0.23731
-0.155211
-0.0674606
0.0169635
0.0933012
0.156069
0.200826
0.224695
0.218181
0.189161
0.140007
0.0746969
-0.00127564
-0.0826237
-0.157667
-0.221519
-0.267869
-0.292318
-0.288891
-0.261761
-0.214454
-0.152075
-0.0775763
-0.0107141
0.0448421
0.0816597
0.0944361
0.0777111
0.0360043
-0.0257807
-0.100366
-0.179605
-0.247416
-0.296734
-0.31954
-0.311625
-0.273583
-0.210387
-0.129586
-0.0436677
0.035892
0.0985216
0.136164
0.144965
0.126757
0.0861756
0.0329129
-0.0234287
-0.0733157
-0.109072
-0.126843
-0.126268
-0.110018
-0.0842824
-0.0544984
-0.0266788
-0.0054198
0.0060367
2.39946
2.39882
2.39751
2.3955
2.39276
2.38925
2.38493
2.37974
2.37363
2.36654
2.3584
2.34915
2.3387
2.32697
2.31389
2.29935
2.28327
2.26554
2.24608
2.22477
2.20153
2.17625
2.14885
2.11922
2.0873
2.053
2.01626
1.97701
1.93522
1.89085
1.84388
1.7943
1.74214
1.68745
1.6304
1.57006
1.50689
1.44108
1.37283
1.30238
1.22995
1.15579
1.0801
1.00307
0.924939
0.845978
0.766488
0.686796
0.607259
0.528261
0.450206
0.373523
0.298652
0.226049
0.156178
0.0895074
0.0265277
-0.0323103
-0.0865657
-0.135818
-0.179665
-0.217665
-0.249365
-0.27475
-0.293473
-0.305356
-0.310193
-0.307741
-0.298624
-0.282818
-0.260502
-0.232017
-0.19782
-0.15818
-0.114269
-0.0666727
-0.0162053
0.036262
0.0897605
0.143246
0.195648
0.245859
0.292757
0.335243
0.372259
0.40279
0.425911
0.440848
0.446918
0.441951
0.426917
0.401996
0.367464
0.323749
0.271478
0.211533
0.145044
0.0733983
-0.0018123
-0.0788029
-0.155615
-0.230183
-0.300404
-0.364172
-0.419453
-0.464349
-0.497184
-0.516616
-0.521545
-0.511222
-0.485464
-0.444914
-0.390583
-0.323948
-0.247058
-0.162429
-0.0729256
0.0180644
0.106768
0.189787
0.26353
0.324626
0.370114
0.397595
0.405346
0.39146
0.356805
0.302587
0.230882
0.144689
0.0478606
-0.0619515
-0.164883
-0.262573
-0.349663
-0.421002
-0.472183
-0.499868
-0.502039
-0.477869
-0.428861
-0.357873
-0.26936
-0.169012
-0.0590241
0.0431475
0.135047
0.2097
0.261271
0.28555
0.278754
0.243194
0.182099
0.100943
0.00677594
-0.0927169
-0.184832
-0.262465
-0.317786
-0.345227
-0.340007
-0.305265
-0.245255
-0.166748
-0.0725486
0.0109263
0.0801444
0.125776
0.141126
0.121529
0.0707871
-0.00499494
-0.0966572
-0.193238
-0.276628
-0.337375
-0.365637
-0.356115
-0.31019
-0.234124
-0.13745
-0.0354636
0.0580773
0.130379
0.171905
0.178976
0.153748
0.102509
0.0373736
-0.0300791
-0.0883644
-0.128657
-0.146794
-0.143056
-0.121235
-0.0890448
-0.0530702
-0.0202221
0.00443346
0.0175758
2.50416
2.50382
2.50312
2.50205
2.50056
2.4986
2.49612
2.49305
2.4893
2.48478
2.47936
2.47294
2.46537
2.45654
2.44632
2.43457
2.42113
2.40585
2.38858
2.36916
2.34744
2.32328
2.29655
2.26711
2.23485
2.19963
2.16137
2.11998
2.07535
2.02739
1.97601
1.92111
1.8626
1.80039
1.73423
1.6654
1.59363
1.51887
1.44114
1.36047
1.27694
1.19074
1.10211
1.01137
0.91889
0.825053
0.730278
0.635014
0.539749
0.444996
0.351304
0.259243
0.169418
0.0824343
-0.00107249
-0.0804816
-0.155057
-0.224171
-0.287407
-0.344109
-0.393721
-0.43576
-0.469842
-0.495654
-0.512997
-0.521851
-0.52243
-0.509317
-0.488047
-0.458519
-0.420874
-0.375422
-0.322702
-0.263414
-0.198368
-0.128271
-0.0548559
0.0209194
0.0977649
0.174278
0.249014
0.320482
0.387174
0.447623
0.500399
0.544202
0.577874
0.600369
0.610717
0.604669
0.585339
0.552809
0.507294
0.449246
0.379465
0.299172
0.209917
0.113603
0.0123978
-0.0912788
-0.194834
-0.295311
-0.389957
-0.475915
-0.550474
-0.611051
-0.655333
-0.681349
-0.687605
-0.673114
-0.637804
-0.582633
-0.508906
-0.418627
-0.314604
-0.200245
-0.0793858
0.0433106
0.162833
0.274561
0.373644
0.455547
0.516262
0.552534
0.562012
0.543057
0.496366
0.423238
0.326458
0.210205
0.0798036
-0.0628279
-0.200905
-0.331613
-0.447707
-0.542286
-0.609448
-0.644668
-0.64517
-0.610836
-0.543306
-0.446483
-0.326784
-0.192418
-0.0417051
0.0935096
0.214879
0.312454
0.3781
0.40597
0.395081
0.345165
0.260528
0.14901
0.0204532
-0.113663
-0.237609
-0.3409
-0.41285
-0.446096
-0.436522
-0.386552
-0.302177
-0.193094
-0.062038
0.0525534
0.147249
0.209339
0.229601
0.203967
0.13576
0.0335385
-0.0901353
-0.219179
-0.331435
-0.413309
-0.451711
-0.438407
-0.377124
-0.276875
-0.150642
-0.0189983
0.100111
0.189835
0.238052
0.241015
0.20223
0.130916
0.043809
-0.043916
-0.117133
-0.165059
-0.183143
-0.17306
-0.140696
-0.096702
-0.0497147
-0.00817858
0.0222042
0.0381301
2.63231
2.63247
2.63279
2.63324
2.63379
2.63442
2.63517
2.63578
2.63616
2.63614
2.63554
2.63416
2.63184
2.62841
2.62365
2.61737
2.60934
2.59935
2.58713
2.57245
2.55506
2.53471
2.51116
2.48416
2.45352
2.41902
2.38048
2.33776
2.2907
2.23926
2.18338
2.12307
2.0584
1.98959
1.91447
1.8339
1.74848
1.65866
1.5647
1.46677
1.36504
1.25973
1.15114
1.03965
0.925664
0.809678
0.692237
0.573948
0.455458
0.337471
0.220744
0.106053
-0.00576171
-0.113852
-0.217379
-0.315457
-0.407013
-0.491444
-0.567884
-0.635496
-0.69347
-0.741081
-0.777657
-0.802564
-0.815283
-0.815279
-0.802056
-0.781336
-0.74779
-0.701761
-0.643914
-0.575087
-0.496246
-0.408477
-0.312995
-0.211201
-0.104688
0.00469006
0.115182
0.22485
0.331695
0.433628
0.528587
0.614555
0.689591
0.751976
0.800143
0.83274
0.849029
0.841254
0.81581
0.772307
0.710783
0.631803
0.536485
0.426545
0.304143
0.17192
0.0329046
-0.109561
-0.25176
-0.389797
-0.519775
-0.637815
-0.740165
-0.823338
-0.88443
-0.920875
-0.930453
-0.908084
-0.858094
-0.781199
-0.679053
-0.554423
-0.411132
-0.253781
-0.0876254
0.0809672
0.245004
0.398174
0.533814
0.645675
0.728255
0.777104
0.788992
0.762531
0.698038
0.597248
0.464074
0.304407
0.125653
-0.0667617
-0.25526
-0.433276
-0.590783
-0.718379
-0.808111
-0.854054
-0.851738
-0.802014
-0.706812
-0.57169
-0.405367
-0.218527
-0.0190902
0.167228
0.332491
0.463769
0.550287
0.584585
0.565719
0.493215
0.373299
0.21702
0.0380428
-0.1467
-0.31688
-0.457248
-0.553141
-0.594322
-0.577432
-0.504241
-0.383679
-0.229655
-0.0456037
0.114344
0.246089
0.331802
0.359172
0.324055
0.229864
0.0889692
-0.0811774
-0.257162
-0.410652
-0.522712
-0.576551
-0.555727
-0.471538
-0.336253
-0.167424
0.00657103
0.16183
0.275604
0.332545
0.328388
0.269243
0.168692
0.0501252
-0.0661118
-0.159785
-0.217423
-0.234268
-0.214296
-0.16649
-0.105824
-0.0437647
0.00923875
0.0469377
0.0662993
2.74166
2.74275
2.74489
2.74817
2.75262
2.75822
2.76487
2.77249
2.78074
2.78929
2.79792
2.80642
2.81436
2.82139
2.82707
2.83102
2.83282
2.83222
2.8286
2.82161
2.81099
2.7964
2.77753
2.75407
2.7257
2.69217
2.65322
2.60866
2.55827
2.50191
2.4394
2.37049
2.29485
2.21207
2.12537
2.03294
1.93438
1.82944
1.71817
1.60081
1.47773
1.34932
1.21606
1.07847
0.937172
0.792843
0.646237
0.498176
0.349567
0.201381
0.0546339
-0.0895681
-0.230094
-0.365669
-0.495365
-0.617866
-0.731961
-0.83648
-0.930281
-1.01229
-1.08149
-1.13686
-1.1776
-1.20305
-1.21262
-1.20586
-1.18277
-1.14359
-1.08832
-1.01727
-0.931021
-0.830459
-0.716785
-0.59139
-0.455912
-0.312304
-0.162608
-0.00935934
0.145013
0.297839
0.446395
0.587848
0.719353
0.838135
0.941503
1.02699
1.09222
1.13532
1.15499
1.14865
1.11718
1.06019
0.977995
0.87158
0.742665
0.593679
0.427637
0.248184
0.0594823
-0.133834
-0.32667
-0.513807
-0.689876
-0.849577
-0.987789
-1.10005
-1.18241
-1.23244
-1.24981
-1.21378
-1.14385
-1.03867
-0.899623
-0.730246
-0.535646
-0.322138
-0.0968565
0.131551
0.353653
0.56081
0.744007
0.894786
1.00571
1.07072
1.0855
1.04888
0.960672
0.823424
0.642564
0.426079
0.18414
-0.0748533
-0.32903
-0.568428
-0.77949
-0.949528
-1.06779
-1.12631
-1.1205
-1.05008
-0.918109
-0.732527
-0.505318
-0.251058
0.0155452
0.267189
0.489339
0.664409
0.777921
0.819814
0.789446
0.686182
0.519077
0.303413
0.0578065
-0.193465
-0.424047
-0.612699
-0.739399
-0.790447
-0.762677
-0.657817
-0.488814
-0.275057
-0.0225335
0.19704
0.377331
0.493914
0.529975
0.481588
0.352609
0.160604
-0.0703524
-0.307376
-0.513835
-0.663891
-0.738415
-0.705428
-0.5914
-0.410498
-0.186381
0.0422241
0.243591
0.387369
0.454208
0.439288
0.352618
0.21357
0.0543232
-0.0980156
-0.216784
-0.285308
-0.299024
-0.265156
-0.196923
-0.115048
-0.0345243
0.0319417
0.0777972
0.100819
2.80179
2.80464
2.81044
2.81909
2.83032
2.84387
2.85929
2.87696
2.89679
2.91908
2.94274
2.96676
2.99012
3.01232
3.03281
3.05125
3.06761
3.08072
3.09029
3.09592
3.09718
3.09359
3.08466
3.06992
3.04883
3.02096
2.98584
2.94336
2.89316
2.83506
2.76866
2.69385
2.61055
2.51944
2.41945
2.31069
2.1932
2.06707
1.93248
1.78972
1.63916
1.4813
1.31675
1.14619
0.970452
0.790441
0.607184
0.421795
0.235482
0.0495267
-0.134685
-0.315726
-0.492051
-0.66215
-0.8245
-0.977532
-1.11963
-1.24921
-1.36476
-1.46488
-1.54817
-1.61343
-1.65954
-1.68555
-1.69081
-1.67494
-1.63699
-1.57794
-1.49759
-1.39651
-1.27561
-1.13609
-0.979563
-0.807871
-0.623186
-0.428105
-0.225435
-0.0182831
0.189927
0.395714
0.595395
0.785272
0.961486
1.12036
1.25827
1.37186
1.45786
1.51351
1.53609
1.53166
1.49216
1.41779
1.30937
1.16849
0.997608
0.800041
0.579835
0.341872
0.0917284
-0.164459
-0.419773
-0.66734
-0.900028
-1.11064
-1.29237
-1.43886
-1.54461
-1.60462
-1.6147
-1.57796
-1.48989
-1.35236
-1.16886
-0.944723
-0.687087
-0.404537
-0.106499
0.195389
0.488723
0.762067
1.00349
1.20174
1.34715
1.43176
1.44977
1.40014
1.28228
1.09982
0.860141
0.573764
0.254175
-0.0880473
-0.422745
-0.737151
-1.01351
-1.23514
-1.38796
-1.46136
-1.44999
-1.35315
-1.17536
-0.927328
-0.625039
-0.287945
0.0626583
0.394228
0.685711
0.913896
1.0599
1.11079
1.06486
0.922468
0.696113
0.406424
0.0784793
-0.255188
-0.560176
-0.807723
-0.971602
-1.03426
-0.991545
-0.846284
-0.616399
-0.327921
0.00787833
0.301244
0.54109
0.695345
0.741807
0.675809
0.503059
0.24756
-0.0584416
-0.370293
-0.640691
-0.833878
-0.92313
-0.883814
-0.734764
-0.497961
-0.206153
0.0887295
0.345452
0.524574
0.601669
0.571813
0.450182
0.26352
0.0547938
-0.140626
-0.288264
-0.368072
-0.376167
-0.324055
-0.230419
-0.123161
-0.0214431
0.0597036
0.113936
0.140491
2.80018
2.80405
2.81195
2.82382
2.83919
2.85804
2.88347
2.91317
2.94796
2.98908
3.03446
3.08316
3.13345
3.1843
3.23426
3.28209
3.32618
3.3646
3.39646
3.42179
3.44014
3.45163
3.45573
3.45215
3.44004
3.4191
3.38827
3.3476
3.29654
3.23501
3.16247
3.07894
2.98552
2.8808
2.76484
2.63756
2.49893
2.349
2.18793
2.01602
1.83373
1.64168
1.44065
1.23156
1.01547
0.793598
0.567272
0.337962
0.107234
-0.123205
-0.35149
-0.575839
-0.794413
-1.00517
-1.20605
-1.39503
-1.57002
-1.72901
-1.87006
-1.99137
-2.09115
-2.1678
-2.21991
-2.24628
-2.24608
-2.2184
-2.16338
-2.08076
-1.9709
-1.83458
-1.67297
-1.48764
-1.28067
-1.05447
-0.811884
-0.556257
-0.291202
-0.0206078
0.250882
0.518831
0.778553
1.02522
1.25392
1.45992
1.63859
1.78563
1.89703
1.96942
1.99982
1.99214
1.94002
1.84314
1.70243
1.51995
1.29887
1.04344
0.758935
0.45168
0.128856
-0.201749
-0.530847
-0.849718
-1.14907
-1.41965
-1.65273
-1.83983
-1.9737
-2.04794
-2.05671
-2.01154
-1.89883
-1.72165
-1.485
-1.19592
-0.863818
-0.499779
-0.116127
0.272194
0.649195
1.00018
1.30976
1.56357
1.74911
1.85633
1.87798
1.81227
1.65896
1.42299
1.11395
0.74537
0.334316
-0.107024
-0.536054
-0.93811
-1.29055
-1.57218
-1.76505
-1.85579
-1.83666
-1.70775
-1.47528
-1.15323
-0.76229
-0.327543
0.122292
0.547502
0.92024
1.21047
1.39383
1.4543
1.38873
1.199
0.901865
0.524263
0.0984983
-0.332231
-0.724707
-1.04148
-1.24861
-1.32375
-1.26181
-1.06744
-0.764605
-0.387247
0.0460169
0.426576
0.736493
0.934379
0.992663
0.904613
0.67931
0.348441
-0.0462957
-0.446097
-0.79124
-1.03333
-1.12948
-1.0905
-0.900042
-0.597013
-0.225726
0.1464
0.466871
0.685669
0.77279
0.723617
0.559641
0.316557
0.0502419
-0.194342
-0.373864
-0.464634
-0.464135
-0.389386
-0.265462
-0.129178
-0.00422808
0.0921313
0.154354
0.183938
2.73029
2.7405
2.76262
2.79725
2.84508
2.90666
2.97393
3.05993
3.15838
3.25447
3.34257
3.42286
3.49374
3.55611
3.61038
3.65761
3.69921
3.73711
3.77187
3.81109
3.8393
3.86275
3.87981
3.88912
3.88801
3.87559
3.84779
3.80379
3.75103
3.68736
3.6092
3.52095
3.41974
3.3048
3.17505
3.02978
2.86885
2.69239
2.50089
2.29499
2.07551
1.8434
1.59975
1.34579
1.08288
0.812581
0.536574
0.256683
-0.0251122
-0.306739
-0.585424
-0.859732
-1.12681
-1.38414
-1.62914
-1.85925
-2.07192
-2.26464
-2.43495
-2.58049
-2.69914
-2.78888
-2.84799
-2.87497
-2.86852
-2.82801
-2.75324
-2.64389
-2.50052
-2.32415
-2.11627
-1.87887
-1.61459
-1.32648
-1.01812
-0.693723
-0.357883
-0.0153184
0.327932
0.666343
0.9941
1.30507
1.59318
1.85247
2.07724
2.26214
2.40231
2.49362
2.53259
2.52042
2.45286
2.32939
2.15112
1.92062
1.64182
1.32007
0.961996
0.575563
0.169764
-0.245619
-0.65876
-1.0588
-1.434
-1.77287
-2.06438
-2.29823
-2.46527
-2.55817
-2.5716
-2.50988
-2.36573
-2.14172
-1.84363
-1.48017
-1.06307
-0.606198
-0.125147
0.361113
0.833049
1.27195
1.65858
1.97508
2.2057
2.33796
2.36324
2.27877
2.08473
1.78774
1.39988
0.938008
0.423252
-0.132555
-0.668096
-1.16884
-1.60674
-1.95559
-2.19308
-2.30298
-2.27419
-2.1081
-1.81302
-1.4065
-0.914578
-0.368599
0.193963
0.725483
1.18982
1.54972
1.77499
1.84553
1.75614
1.5115
1.13284
0.654368
0.117037
-0.424403
-0.916199
-1.31098
-1.56655
-1.65511
-1.56952
-1.31792
-0.930764
-0.451597
0.0921199
0.571784
0.96107
1.20813
1.279
1.16457
0.878471
0.461124
-0.0346746
-0.534421
-0.964421
-1.26393
-1.38436
-1.32648
-1.08505
-0.705561
-0.244182
0.214978
0.606467
0.868258
0.964726
0.891834
0.678462
0.371002
0.0398466
-0.259044
-0.472568
-0.573407
-0.561133
-0.459421
-0.300654
-0.132342
0.0171716
0.128611
0.197963
0.229851
2.46568
2.47193
2.48739
2.51
2.53635
2.56269
2.57189
2.55814
2.61724
2.74459
2.88953
3.03755
3.17452
3.30245
3.4223
3.53478
3.63975
3.7369
3.82597
3.90671
3.97915
4.04409
4.10028
4.14988
4.19109
4.22633
4.25349
4.25406
4.24562
4.20583
4.13258
4.03723
3.92388
3.79207
3.64138
3.4717
3.28314
3.07589
2.85034
2.60709
2.34702
2.07124
1.78106
1.47797
1.16366
0.840042
0.509235
0.173519
-0.164607
-0.5025
-0.837654
-1.16707
-1.48771
-1.79647
-2.09022
-2.36584
-2.62012
-2.85002
-3.05255
-3.22485
-3.36427
-3.46839
-3.53507
-3.56255
-3.54948
-3.49433
-3.39728
-3.25822
-3.07774
-2.85708
-2.59805
-2.30313
-1.9756
-1.61922
-1.23837
-0.838212
-0.424352
-0.00231604
0.419865
0.835803
1.23833
1.61999
1.97333
2.29109
2.56633
2.79254
2.96386
3.07518
3.12251
3.1056
3.02068
2.86734
2.64709
2.36308
2.0201
1.62473
1.18512
0.71102
0.213475
-0.295837
-0.801775
-1.29135
-1.75021
-2.16433
-2.52023
-2.80555
-3.00943
-3.12289
-3.13965
-3.06033
-2.88095
-2.60465
-2.23823
-1.79232
-1.28115
-0.721803
-0.133301
0.460904
1.03734
1.57292
2.04415
2.42923
2.70905
2.86838
2.89708
2.7913
2.55187
2.18728
1.71244
1.14805
0.519481
-0.164926
-0.817162
-1.42567
-1.9569
-2.37888
-2.66459
-2.79406
-2.7546
-2.54729
-2.1826
-1.68233
-1.07864
-0.410295
0.276763
0.925136
1.49017
1.92617
2.1965
2.27719
2.16057
1.85425
1.38468
0.794329
0.133113
-0.530606
-1.13184
-1.61205
-1.91996
-2.02239
-1.90938
-1.59323
-1.1119
-0.51939
0.145884
0.734876
1.21129
1.51194
1.59566
1.45108
1.09685
0.58326
-0.0241355
-0.634089
-1.15726
-1.51997
-1.6662
-1.58583
-1.2861
-0.821193
-0.26073
0.29375
0.761986
1.06933
1.17405
1.0732
0.804049
0.425343
0.0232463
-0.333956
-0.582768
-0.692354
-0.665095
-0.532452
-0.334829
-0.132202
0.0425591
0.168413
0.243663
0.276932
1.95506
1.97614
2.02954
2.11825
2.24873
2.42126
2.64854
3.01745
3.51605
3.76921
4.01053
4.19805
4.34419
4.46179
4.55516
4.6323
4.69855
4.75823
4.8145
4.8688
4.92373
4.98018
5.03095
5.07596
5.10193
5.101
5.12053
4.87535
4.78219
4.69612
4.61951
4.53677
4.43293
4.30375
4.14556
3.95749
3.74286
3.50361
3.24129
2.95721
2.65271
2.32923
1.98833
1.63182
1.26171
0.880281
0.49003
0.0936931
-0.304795
-0.704213
-1.10021
-1.4893
-1.8679
-2.23233
-2.57881
-2.90357
-3.20282
-3.47288
-3.71018
-3.91134
-4.07317
-4.19273
-4.26747
-4.29518
-4.27415
-4.204
-4.08335
-3.91239
-3.69195
-3.42358
-3.10951
-2.75272
-2.35715
-1.92732
-1.4685
-0.986966
-0.489481
0.0181193
0.524971
1.02405
1.50667
1.96402
2.38718
2.76742
3.0965
3.36664
3.57088
3.70315
3.75885
3.73644
3.63245
3.44658
3.18073
2.83871
2.42632
1.95148
1.42391
0.855279
0.258742
-0.351622
-0.957614
-1.54334
-2.09199
-2.58683
-3.01183
-3.35222
-3.59512
-3.73003
-3.74955
-3.65158
-3.43423
-3.10142
-2.66118
-2.12632
-1.51385
-0.844208
-0.140366
0.56989
1.25847
1.89765
2.45943
2.91771
3.24984
3.43776
3.46961
3.34024
3.05153
2.61386
2.04552
1.3716
0.621848
-0.204463
-0.980743
-1.70392
-2.33456
-2.83449
-3.17116
-3.32038
-3.26928
-3.01709
-2.57712
-1.97574
-1.25168
-0.451484
0.369321
1.14291
1.81567
2.33291
2.6509
2.74125
2.59451
2.22093
1.65252
0.940821
0.146585
-0.648905
-1.36764
-1.93934
-2.30271
-2.41871
-2.27504
-1.88812
-1.30443
-0.589389
0.206472
0.912989
1.48272
1.84019
1.93675
1.75874
1.33024
0.712512
-0.0151664
-0.743414
-1.36622
-1.79581
-1.9672
-1.86277
-1.4991
-0.941727
-0.274655
0.381431
0.930797
1.28531
1.39692
1.26425
0.933852
0.478317
0.000518331
-0.417835
-0.702437
-0.819137
-0.773908
-0.606944
-0.367047
-0.128558
0.0715116
0.210713
0.290389
0.324041
1.06062
1.08604
1.13955
1.20804
1.27079
1.28304
1.14837
0.903043
1.50374
1.84464
2.20709
2.51965
2.79871
3.04649
3.26682
3.46354
3.63887
3.79476
3.93271
4.05377
4.16431
4.27034
4.36918
4.46839
4.57319
4.69262
4.92543
4.97378
5.28753
5.37397
5.34135
5.24189
5.09623
4.91595
4.71139
4.48468
4.23427
3.9587
3.65774
3.33165
2.98133
2.60828
2.21431
1.80159
1.37255
0.929975
0.476907
0.0166677
-0.447218
-0.911214
-1.37128
-1.8233
-2.26302
-2.6861
-3.08811
-3.46462
-3.81119
-4.12351
-4.3974
-4.62888
-4.81422
-4.95
-5.03324
-5.06141
-5.03262
-4.94565
-4.79975
-4.59502
-4.3324
-4.01375
-3.64167
-3.21973
-2.75255
-2.24549
-1.70476
-1.13773
-0.552396
0.0450542
0.64073
1.22696
1.79361
2.33028
2.82651
3.27211
3.6574
3.97331
4.21168
4.36547
4.42912
4.40077
4.27632
4.05586
3.74167
3.33829
2.85259
2.29391
1.6737
1.00575
0.305375
-0.412883
-1.12363
-1.8102
-2.45299
-3.03249
-3.52989
-3.92783
-4.2113
-4.36812
-4.3897
-4.27225
-4.01493
-3.62247
-3.1044
-2.4758
-1.75672
-0.970965
-0.146161
0.686075
1.49233
2.24011
2.89665
3.43142
3.81804
4.03551
4.06996
3.91525
3.57421
3.05929
2.39255
1.60416
0.729032
-0.251153
-1.15548
-1.99799
-2.73246
-3.31381
-3.70358
-3.87374
-3.80904
-3.50887
-2.98926
-2.28129
-1.43061
-0.491395
0.469636
1.37467
2.16019
2.7622
3.12959
3.22917
3.04986
2.6046
1.9315
1.09163
0.156817
-0.777234
-1.61934
-2.28671
-2.70763
-2.83668
-2.65961
-2.19703
-1.50463
-0.660219
0.272815
1.10275
1.77027
2.18677
2.29579
2.08174
1.57421
0.846173
-0.00792534
-0.860396
-1.58735
-2.08615
-2.282
-2.15182
-1.71995
-1.06464
-0.285756
0.476475
1.10982
1.51219
1.6292
1.46147
1.06543
0.528983
-0.0279008
-0.509086
-0.829286
-0.951334
-0.885495
-0.681587
-0.396544
-0.121478
0.103445
0.25466
0.337215
0.370213
-0.736293
-0.805011
-0.947236
-1.19869
-1.56221
-2.05142
-2.70253
-3.59332
4.98319
5.19155
5.41132
5.50966
5.54181
5.50544
5.38983
5.21938
4.99891
4.73593
4.43426
4.09783
3.72938
3.3315
2.90651
2.45692
1.98539
1.49488
0.988636
0.470188
-0.0566452
-0.587783
-1.1189
-1.64545
-2.16268
-2.66566
-3.14941
-3.60882
-4.03883
-4.43428
-4.79024
-5.10188
-5.36464
-5.57423
-5.72673
-5.81869
-5.84723
-5.81015
-5.70596
-5.53395
-5.29426
-4.98802
-4.61739
-4.18542
-3.69622
-3.15519
-2.56848
-1.94329
-1.2881
-0.612067
0.0771571
0.764423
1.4404
2.09349
2.71168
3.28294
3.7956
4.23846
4.60118
4.87439
5.05005
5.12185
5.0865
4.94049
4.68394
4.31955
3.85257
3.29098
2.64561
1.92983
1.15958
0.352203
-0.478304
-1.29674
-2.08698
-2.82662
-3.49313
-4.06488
-4.52188
-4.84683
-5.02577
-5.04887
-4.91122
-4.61254
-4.1584
-3.55991
-2.8345
-2.00545
-1.10003
-0.150326
0.807347
1.73463
2.59404
3.34787
3.96108
4.40337
4.65083
4.68735
4.506
4.11045
3.51537
2.74685
1.84099
0.840046
-0.3049
-1.33757
-2.30201
-3.14321
-3.80809
-4.25227
-4.44349
-4.36411
-4.01401
-3.4117
-2.59343
-1.61205
-0.52984
0.57566
1.61596
2.51737
3.20621
3.62378
3.7321
3.51845
2.99842
2.21666
1.24407
0.163885
-0.913122
-1.88221
-2.64771
-3.12719
-3.26869
-3.05619
-2.51447
-1.70872
-0.730682
0.34362
1.30061
2.06861
2.54536
2.6663
2.41427
1.82433
0.981723
-0.00243871
-0.982906
-1.81659
-2.38569
-2.60518
-2.4478
-1.94477
-1.18771
-0.294027
0.577078
1.29577
1.74588
1.86684
1.66151
1.19664
0.576639
-0.0613021
-0.605897
-0.960936
-1.08655
-0.997907
-0.755478
-0.422639
-0.111246
0.137684
0.299437
0.383333
0.414694
-1.70714
-1.73248
-1.77523
-1.84308
-1.90548
-1.9719
-2.05382
-2.05862
6.74935
6.61971
6.61976
6.50777
6.38856
6.24208
6.05821
5.83986
5.57895
5.27793
4.93704
4.55859
4.14421
3.6964
3.21762
2.71073
2.17879
1.62522
1.05375
0.468382
-0.126394
-0.725969
-1.32543
-1.91961
-2.50313
-3.0704
-3.61575
-4.13342
-4.61766
-5.06267
-5.46283
-5.81271
-6.10715
-6.34129
-6.51068
-6.61144
-6.64025
-6.59461
-6.47286
-6.27426
-5.99902
-5.64844
-5.22503
-4.73227
-4.17486
-3.55893
-2.89152
-2.18077
-1.43631
-0.668596
0.113691
0.893491
1.66024
2.4007
3.10127
3.74831
4.3286
4.82947
5.23927
5.54743
5.74489
5.82448
5.78174
5.6135
5.32003
4.90446
4.37274
3.73398
3.00058
2.18784
1.31405
0.399321
-0.547528
-1.4739
-2.36878
-3.20636
-3.96085
-4.60773
-5.1243
-5.49096
-5.69194
-5.71615
-5.55786
-5.21706
-4.70023
-4.02008
-3.19647
-2.25594
-1.22935
-0.152979
0.931588
1.9812
2.95338
3.80545
4.49779
4.99606
5.27337
5.3115
5.10271
4.65137
3.97443
3.10214
2.07712
0.952181
-0.363589
-1.5227
-2.61035
-3.55964
-4.30899
-4.80798
-5.02003
-4.92524
-4.5242
-3.83762
-2.90715
-1.79308
-0.56654
0.685346
1.86244
2.88094
3.65729
4.12511
4.24155
3.99246
3.39601
2.5032
1.39578
0.16795
-1.0539
-2.15151
-3.01602
-3.55419
-3.7074
-3.45812
-2.83513
-1.91341
-0.799582
0.417403
1.50303
2.37259
2.90978
3.04201
2.75073
2.07645
1.11716
0.00106057
-1.10879
-2.05
-2.68937
-2.93154
-2.74589
-2.16997
-1.30906
-0.299596
0.681355
1.4854
1.98247
2.10596
1.8613
1.32566
0.620815
-0.0988003
-0.706404
-1.09506
-1.22253
-1.10938
-0.827555
-0.445249
-0.0983199
0.173517
0.344295
0.42808
0.45693
-2.39879
-2.4096
-2.4295
-2.46582
-2.50087
-2.55873
-2.61409
-2.65555
7.35758
7.29565
7.30868
7.23084
7.10831
6.94546
6.73146
6.4784
6.1802
5.83965
5.45637
5.03265
4.56967
4.07003
3.53607
2.97088
2.37781
1.76059
1.12338
0.470739
-0.19219
-0.860371
-1.52831
-2.19023
-2.84007
-3.47162
-4.07855
-4.6544
-5.19279
-5.68724
-6.13151
-6.51952
-6.84554
-7.10415
-7.29039
-7.3999
-7.42896
-7.37465
-7.23523
-7.00995
-6.69909
-6.30416
-5.82797
-5.27445
-4.64891
-3.95822
-3.21027
-2.41417
-1.58068
-0.721423
0.153143
1.02532
1.88252
2.71
3.49257
4.215
4.86249
5.42095
5.87742
6.22011
6.43906
6.52615
6.47564
6.28487
5.95428
5.48735
4.89079
4.17482
3.35335
2.44356
1.46639
0.446706
-0.619967
-1.65183
-2.65097
-3.58621
-4.42839
-5.15003
-5.72579
-6.13379
-6.3565
-6.3815
-6.20237
-5.81935
-5.23975
-4.47797
-3.55633
-2.50443
-1.35711
-0.154267
1.0567
2.22812
3.31255
4.26233
5.03328
5.58704
5.89369
5.93304
5.69647
5.18895
4.42971
3.45299
2.30779
1.05611
-0.418398
-1.7065
-2.91791
-3.97526
-4.80882
-5.36217
-5.59502
-5.48401
-5.03175
-4.26086
-3.21809
-1.97126
-0.601151
0.796735
2.11007
3.24509
4.10837
4.62584
4.74975
4.46474
3.79143
2.78707
1.54417
0.169699
-1.19701
-2.42279
-3.38574
-3.98186
-4.14603
-3.85921
-3.15422
-2.11579
-0.865845
0.492638
1.70665
2.67739
3.27434
3.41716
3.08598
2.32686
1.25047
0.00272574
-1.23592
-2.28388
-2.99254
-3.25631
-3.04173
-2.39243
-1.42715
-0.302668
0.787479
1.6757
2.21835
2.34309
2.05813
1.45092
0.661301
-0.13942
-0.80879
-1.22951
-1.35726
-1.21838
-0.897503
-0.463941
-0.0832413
0.210249
0.388579
0.470951
0.496543
-2.97452
-2.98142
-2.99451
-3.0188
-3.03968
-3.07655
-3.09846
-3.11381
8.20701
8.11003
8.0834
7.97845
7.82855
7.64035
7.39878
7.11396
6.78047
6.40139
5.9762
5.50731
4.99582
4.44439
3.8554
3.23218
2.57836
1.89794
1.19529
0.476185
-0.254165
-0.990152
-1.72573
-2.4545
-3.16978
-3.86469
-4.53226
-5.16541
-5.75709
-6.30019
-6.78783
-7.21334
-7.57041
-7.85307
-8.05588
-8.17405
-8.2034
-8.14036
-7.98337
-7.73168
-7.38563
-6.94693
-6.41868
-5.80528
-5.11259
-4.34827
-3.52104
-2.64098
-1.71993
-0.770732
0.194713
1.15762
2.10371
3.0167
3.87983
4.67628
5.38968
6.00455
6.50663
6.88304
7.12292
7.21729
7.15867
6.94541
6.57805
6.06039
5.39982
4.60762
3.69917
2.69349
1.61358
0.485658
-0.686326
-1.82689
-2.92945
-3.96092
-4.88933
-5.68439
-6.3182
-6.76667
-7.01052
-7.03607
-6.83619
-6.41142
-5.76984
-4.92755
-3.90932
-2.74775
-1.48164
-0.154496
1.18076
2.47191
3.6666
4.71228
5.56031
6.16837
6.50356
6.54376
6.2795
5.71628
4.87546
3.79504
2.53001
1.15175
-0.469481
-1.88609
-3.22045
-4.3845
-5.30086
-5.90738
-6.15939
-6.03304
-5.52998
-4.67596
-3.52243
-2.14476
-0.633245
0.908003
2.3552
3.60469
4.55321
5.11912
5.24991
4.929
4.17952
3.06477
1.68768
0.169335
-1.34016
-2.69202
-3.75159
-4.40422
-4.57856
-4.25405
-3.46758
-2.31333
-0.928689
0.567868
1.90847
2.97868
3.63397
3.78662
3.41552
2.57235
1.37996
0.00272651
-1.36237
-2.51498
-3.2911
-3.57529
-3.33157
-2.60947
-1.54077
-0.303534
0.89375
1.86394
2.45037
2.57523
2.2497
1.57121
0.698034
-0.182175
-0.911378
-1.36236
-1.48903
-1.32362
-0.964469
-0.479152
-0.0666023
0.247236
0.431735
0.511586
0.533311
-3.46448
-3.46917
-3.47769
-3.49354
-3.50437
-3.52667
-3.53398
-3.54309
8.98135
8.88451
8.83129
8.70845
8.53568
8.32234
8.05321
7.73756
7.36982
6.95325
6.4873
5.97426
5.4154
4.8132
4.17028
3.49021
2.77687
2.03468
1.26773
0.483731
-0.312389
-1.11453
-1.91608
-2.71003
-3.48906
-4.24564
-4.9722
-5.66105
-6.30453
-6.8949
-7.42469
-7.88663
-8.27384
-8.57986
-8.79876
-8.9254
-8.95537
-8.8834
-8.70912
-8.43163
-8.05124
-7.56986
-6.99091
-6.31916
-5.5611
-4.72515
-3.82083
-2.85914
-1.85302
-0.816471
0.237343
1.28835
2.32078
3.31682
4.25818
5.12645
5.90375
6.57322
7.11938
7.52829
7.78839
7.89019
7.82285
7.58743
7.18414
6.61701
5.89404
5.02753
4.0343
2.9351
1.75488
0.521209
-0.750928
-1.99766
-3.20102
-4.32607
-5.33824
-6.20459
-6.89468
-7.38229
-7.64648
-7.67239
-7.45211
-6.98656
-6.28455
-5.36384
-4.25156
-2.98328
-1.60166
-0.15385
1.30215
2.7096
4.01133
5.15006
6.0728
6.7334
7.09605
7.13686
6.84536
6.22764
5.30703
4.12487
2.74166
1.23884
-0.516531
-2.05937
-3.51456
-4.78272
-5.77947
-6.43749
-6.70943
-6.56625
-6.01337
-5.07837
-3.81702
-2.31182
-0.662771
1.01747
2.59474
3.95538
4.98651
5.59916
5.73628
5.38
4.55597
3.33346
1.82543
0.166777
-1.48135
-2.95576
-4.10903
-4.81616
-4.99991
-4.63809
-3.77174
-2.50398
-0.987475
0.641769
2.10592
3.27282
3.98439
4.14611
3.73561
2.81026
1.50437
0.00122855
-1.48642
-2.7405
-3.58162
-3.88497
-3.61228
-2.81895
-1.64917
-0.302335
0.998661
2.04783
2.67588
2.7999
2.43416
1.68564
0.73106
-0.226122
-1.01269
-1.49199
-1.61643
-1.4241
-1.02614
-0.493033
-0.0489764
0.283917
0.473322
0.549741
0.567144
-3.88878
-3.89234
-3.89839
-3.91029
-3.91749
-3.93387
-3.93744
-3.94577
9.71476
9.6158
9.54433
9.40773
9.21583
8.98008
8.68553
8.34071
7.94034
7.4878
6.98262
6.42715
5.82257
5.17151
4.47652
3.74136
2.97042
2.16869
1.33912
0.492614
-0.366941
-1.2329
-2.0981
-2.95491
-3.79536
-4.61131
-5.3946
-6.137
-6.83029
-7.46611
-8.03641
-8.53333
-8.9495
-9.27795
-9.51227
-9.64705
-9.67861
-9.59696
-9.40594
-9.10354
-8.69002
-8.16748
-7.53965
-6.81167
-5.99065
-5.08575
-4.10724
-3.06703
-1.97911
-0.858554
0.280054
1.41581
2.53124
3.60709
4.62362
5.56088
6.39949
7.1213
7.70954
8.14943
8.42872
8.53862
8.4616
8.20468
7.76676
7.15194
6.36881
5.43068
4.35575
3.16642
1.88966
0.555358
-0.815205
-2.1629
-3.46309
-4.67813
-5.77079
-6.70559
-7.4497
-7.97479
-8.25837
-8.28452
-8.04433
-7.5394
-6.77911
-5.78283
-4.57997
-3.20894
-1.71616
-0.152488
1.41957
2.93882
4.34337
5.57142
6.56585
7.27677
7.66559
7.70684
7.38886
6.71846
5.72071
4.43994
2.94131
1.31613
-0.558169
-2.22478
-3.79758
-5.1662
-6.24014
-6.94739
-7.23921
-7.07855
-6.47752
-5.46447
-4.09929
-2.47114
-0.689684
1.12375
2.82615
4.29363
5.40401
6.0613
6.20422
5.8135
4.91737
3.59085
1.9563
0.162478
-1.61884
-3.21117
-4.45438
-5.21354
-5.40594
-5.00767
-4.06395
-2.68618
-1.04172
0.713201
2.29692
3.55682
4.32213
4.49214
4.04323
3.03844
1.62277
-0.00161247
-1.60665
-2.95819
-3.86132
-4.18252
-3.8814
-3.01918
-1.7517
-0.299405
1.10092
2.22546
2.89276
3.01515
2.61009
1.79362
0.760508
-0.270402
-1.11149
-1.61709
-1.73838
-1.51914
-1.08088
-0.507238
-0.030834
0.319814
0.513001
0.58528
0.598045
-4.25747
-4.26056
-4.26567
-4.27647
-4.28346
-4.29826
-4.30243
-4.31116
10.4095
10.3057
10.2195
10.0724
9.86276
9.60746
9.28936
8.91732
8.48615
7.99951
7.45689
6.86117
6.21321
5.51562
4.77086
3.98295
3.15659
2.29769
1.40874
0.502382
-0.417831
-1.34477
-2.27078
-3.18764
-4.08672
-4.95922
-5.79653
-6.58991
-7.33063
-8.00975
-8.61861
-9.14882
-9.59254
-9.94233
-10.1912