/*--------------------------------*- C++ -*----------------------------------*\
  =========                 |
  \\      /  F ield         | OpenFOAM: The Open Source CFD Toolbox
   \\    /   O peration     | Website:  https://openfoam.org
    \\  /    A nd           | Version:  12
     \\/     M anipulation  |
\*---------------------------------------------------------------------------*/
FoamFile
{
    format      ascii;
    class       volScalarField;
    location    "0.14";
    object      epsilon;
}
// * * * * * * * * * * * * * * * * * * * * * * * * * * * * * * * * * * * * * //

dimensions      [0 2 -3 0 0 0 0];

internalField   nonuniform List<scalar> 
12225
(
278.515
263.66
249.434
236.839
226.738
219.484
215.071
213.266
213.711
215.998
219.724
224.519
230.065
236.095
242.411
248.845
255.437
264.991
61.1161
86.6958
97.9925
107.21
118.469
132.564
149.422
168.629
189.604
211.722
234.391
257.103
279.454
301.149
322.102
342.156
362.893
381.585
25.2776
36.1831
43.382
48.622
53.3876
58.3384
63.7741
69.8311
76.5345
83.8364
91.6468
99.8571
108.356
117.046
125.861
134.786
143.982
153.453
17.5217
21.2987
24.7146
27.6103
30.1625
32.541
34.8681
37.2301
39.6803
42.2452
44.9325
47.738
50.6508
53.6593
56.7555
59.949
63.2612
66.7231
15.4878
16.7519
18.1859
19.589
20.9097
22.1494
23.327
24.4662
25.5878
26.7071
27.8341
28.9743
30.1309
31.3054
32.4999
33.7199
34.9711
36.2512
14.9084
15.2396
15.7464
16.3341
16.9477
17.5591
18.1561
18.7361
19.3008
19.8536
20.3975
20.9354
21.4693
22.0012
22.533
23.067
23.6054
24.1424
14.7451
14.7391
14.8342
15.0036
15.2216
15.468
15.7287
15.9951
16.2623
16.5279
16.7909
17.0508
17.3078
17.5622
17.8145
18.0656
18.3159
18.5613
14.7012
14.5825
14.5116
14.4858
14.4981
14.5403
14.6043
14.6838
14.7738
14.871
14.9728
15.0776
15.1843
15.2922
15.4008
15.51
15.6196
15.7269
14.6901
14.5373
14.407
14.3009
14.2182
14.1571
14.1145
14.0876
14.0733
14.0693
14.0737
14.0846
14.1009
14.1216
14.1458
14.173
14.2027
14.2333
14.6874
14.5252
14.3761
14.2411
14.1204
14.0137
13.9203
13.8391
13.7688
13.7083
13.6564
13.612
13.5741
13.542
13.5149
13.4923
13.4735
13.4579
14.6868
14.5221
14.3677
14.2236
14.0896
13.9655
13.8512
13.746
13.6495
13.561
13.4801
13.406
13.3383
13.2763
13.2197
13.1679
13.1205
13.0774
14.6866
14.5213
14.3656
14.219
14.0812
13.9518
13.8305
13.7168
13.6105
13.511
13.4181
13.3313
13.2503
13.1746
13.104
13.038
12.9764
12.9194
14.6865
14.521
14.3648
14.2175
14.0785
13.9472
13.8234
13.7065
13.5962
13.4922
13.3941
13.3015
13.2142
13.1318
13.0542
12.981
12.9119
12.8475
14.6864
14.5208
14.3645
14.2169
14.0774
13.9456
13.8209
13.7029
13.5912
13.4855
13.3853
13.2904
13.2004
13.1152
13.0344
12.9578
12.8852
12.8171
14.6864
14.5207
14.3643
14.2165
14.0769
13.9449
13.8199
13.7016
13.5895
13.4832
13.3824
13.2867
13.196
13.1098
13.0279
12.9501
12.8762
12.8067
14.6863
14.5206
14.3641
14.2163
14.0766
13.9444
13.8193
13.7009
13.5886
13.4822
13.3812
13.2853
13.1943
13.1078
13.0256
12.9475
12.8732
12.8033
14.6863
14.5205
14.364
14.2161
14.0763
13.9441
13.8189
13.7004
13.5881
13.4815
13.3805
13.2845
13.1934
13.1068
13.0245
12.9462
12.8718
12.8018
14.6863
14.5204
14.3639
14.216
14.0761
13.9439
13.8187
13.7001
13.5877
13.4811
13.38
13.2839
13.1928
13.1061
13.0237
12.9454
12.8709
12.8008
14.6863
14.5204
14.3639
14.2159
14.0761
13.9438
13.8186
13.6999
13.5875
13.4809
13.3797
13.2837
13.1925
13.1058
13.0234
12.945
12.8705
12.8003
14.6863
14.5205
14.3639
14.216
14.0762
13.9439
13.8187
13.7001
13.5877
13.4811
13.38
13.284
13.1928
13.1062
13.0238
12.9454
12.8709
12.8008
14.6863
14.5205
14.364
14.2162
14.0764
13.9443
13.8192
13.7007
13.5885
13.4821
13.3812
13.2855
13.1946
13.1083
13.0263
12.9483
12.8743
12.8047
14.6863
14.5206
14.3643
14.2167
14.0773
13.9457
13.8214
13.7039
13.5929
13.4879
13.3886
13.2948
13.2059
13.1219
13.0423
12.967
12.8957
12.8289
14.6865
14.5212
14.3659
14.2202
14.0837
13.956
13.8368
13.7256
13.6218
13.525
13.4348
13.3506
13.272
13.1986
13.1301
13.0659
13.006
12.9505
14.6876
14.5264
14.3793
14.2467
14.1282
14.0231
13.9302
13.8484
13.7762
13.7126
13.6564
13.6068
13.5627
13.5237
13.4889
13.458
13.4305
13.4065
14.6976
14.5664
14.4707
14.4075
14.3714
14.3568
14.3584
14.3719
14.394
14.4223
14.4549
14.4906
14.5285
14.5678
14.6082
14.6493
14.6909
14.7328
14.7737
14.8187
14.9602
15.1591
15.3862
15.6233
15.8596
16.0903
16.3132
16.5281
16.7355
16.936
17.1307
17.3204
17.5057
17.6874
17.8657
18.0405
15.2587
16.1151
17.0712
17.9726
18.7877
19.5236
20.1942
20.8145
21.3983
21.9566
22.4978
23.0279
23.5513
24.0709
24.5883
25.1044
25.6195
26.131
18.0414
22.0078
24.9884
27.1531
28.888
30.4045
31.8118
33.1775
34.5425
35.9293
37.349
38.8054
40.2976
41.8217
43.372
44.9423
46.5259
48.1099
34.024
45.6877
51.3765
54.9419
58.0801
61.2967
64.7489
68.4804
72.4753
76.6906
81.076
85.5819
90.1617
94.7737
99.3821
103.958
108.486
112.94
163.308
157.417
151.704
146.261
141.3
136.947
133.249
130.206
127.78
125.918
124.557
123.635
123.091
122.867
122.913
123.182
123.635
124.235
0.505001
0.5187
0.822969
1.09974
1.39246
1.72112
2.09168
2.51192
2.976
3.44791
3.92267
4.39363
4.8549
5.30201
5.73184
6.14232
6.53213
6.90037
7.24627
7.56891
7.86696
8.1385
8.38109
8.59235
8.77105
8.91832
9.03729
9.12984
9.19335
9.22657
9.24786
39.1755
9.28194
9.18394
39.4667
9.29968
39.6852
9.39644
40.0782
40.284
41.6572
44.3242
47.1886
50.2124
53.3886
56.716
60.1948
63.8268
67.6144
71.5605
75.6681
79.9404
84.3803
88.9911
93.7754
98.7359
103.875
109.195
114.697
120.384
126.256
132.314
138.559
144.99
151.607
158.409
165.396
172.564
179.913
187.439
195.14
203.011
211.049
219.249
227.606
236.115
244.769
253.564
262.491
271.544
280.715
289.997
299.38
308.857
318.419
328.055
337.757
347.513
357.313
367.146
377.001
386.865
396.727
406.574
416.397
426.186
435.94
445.666
455.392
465.114
474.707
484.168
493.489
502.658
511.66
520.48
529.101
537.507
545.683
553.613
561.283
568.677
575.78
582.58
589.063
595.216
601.027
606.485
611.579
616.299
620.636
624.582
628.13
631.274
634.007
636.325
638.225
639.704
640.76
641.394
641.605
641.396
640.768
639.726
638.274
636.417
634.163
631.518
628.492
625.092
621.331
617.217
612.764
607.982
602.887
597.49
591.806
585.849
579.636
573.18
566.498
559.604
552.518
545.252
537.824
530.252
522.548
514.733
506.821
498.821
490.776
482.65
474.551
466.565
460.157
456.974
454.076
451.178
448.263
445.335
442.396
439.443
436.468
433.451
430.344
427.046
423.323
418.57
411.258
395.391
1.5583
0.962012
0.979876
1.11574
1.31638
1.56574
1.8602
2.19574
2.56447
2.95483
3.35754
3.76527
4.17256
4.57575
4.97271
5.36254
5.74536
6.1221
6.49442
6.86466
7.23584
7.61179
7.99734
8.39883
8.82479
9.28659
9.79837
10.3771
11.0452
11.8376
12.8506
14.5164
14.828
16.3378
17.8481
18.6392
20.3691
21.3503
23.4601
25.0022
26.4822
27.9579
29.4646
31.0174
32.6245
34.2882
36.0101
37.7919
39.6351
41.5409
43.5105
45.545
47.6452
49.812
52.0461
54.3482
56.7186
59.1578
61.666
64.2434
66.89
69.6057
72.3902
75.2431
78.1641
81.1523
84.207
87.3274
90.5122
93.7604
97.0705
100.441
103.871
107.357
110.899
114.493
118.139
121.833
125.573
129.356
133.18
137.042
140.939
144.867
148.824
152.805
156.808
160.828
164.861
168.904
172.952
177.001
181.047
185.087
189.118
193.14
197.154
201.167
205.192
209.259
213.289
217.272
221.202
225.074
228.881
232.617
236.278
239.855
243.344
246.738
250.032
253.219
256.295
259.253
262.089
264.797
267.373
269.812
272.109
274.261
276.263
278.113
279.807
281.343
282.717
283.928
284.973
285.852
286.563
287.105
287.479
287.684
287.721
287.59
287.294
286.832
286.208
285.424
284.483
283.387
282.139
280.745
279.206
277.529
275.717
273.776
271.71
269.524
267.225
264.817
262.307
259.7
257.003
254.222
251.362
248.431
245.433
242.377
239.267
236.106
232.918
229.66
226.432
223.27
220.456
218.245
216.17
214.121
212.079
210.041
208.008
205.98
203.96
201.945
199.934
197.919
195.879
193.809
191.592
190.458
2.92819
1.54741
1.42261
1.49883
1.65535
1.86831
2.12878
2.43032
2.76557
3.1262
3.50418
3.89276
4.28691
4.68338
5.08054
5.47813
5.87701
6.27896
6.68653
7.10295
7.53211
7.97851
8.44723
8.9439
9.47467
10.0458
10.6632
11.3318
12.0555
12.8365
13.6746
14.5693
15.4607
16.4405
17.4476
18.4901
19.6083
20.7579
21.9772
23.1984
24.4274
25.6729
26.9514
28.2722
29.6391
31.0535
32.5162
34.0279
35.5892
37.2007
38.8631
40.5767
42.3422
44.1599
46.0303
47.9535
49.9299
51.9596
54.0428
56.1794
58.3694
60.6126
62.9088
65.2578
67.659
70.112
72.6161
75.1708
77.7751
80.4282
83.1291
85.8767
88.6698
91.507
94.3869
97.3081
100.269
103.267
106.302
109.371
112.471
115.602
118.76
121.944
125.15
128.377
131.621
134.881
138.153
141.435
144.725
148.02
151.317
154.616
157.916
161.217
164.519
167.824
171.136
174.437
177.708
180.942
184.134
187.279
190.372
193.408
196.383
199.29
202.125
204.884
207.561
210.152
212.652
215.058
217.363
219.566
221.66
223.644
225.513
227.264
228.893
230.399
231.779
233.029
234.149
235.135
235.988
236.706
237.287
237.731
238.039
238.209
238.243
238.141
237.904
237.533
237.031
236.398
235.637
234.751
233.741
232.612
231.367
230.008
228.54
226.966
225.291
223.518
221.652
219.699
217.661
215.544
213.354
211.094
208.768
206.386
203.946
201.459
198.927
196.345
193.755
191.135
188.523
185.949
183.515
181.293
179.158
177.054
174.966
172.889
170.825
168.775
166.742
164.732
162.749
160.806
158.921
157.163
155.628
155.139
4.49209
2.21802
1.92092
1.92673
2.04538
2.23174
2.46948
2.74958
3.06464
3.40742
3.77109
4.1497
4.53869
4.93505
5.33724
5.74507
6.15941
6.58199
7.01522
7.46198
7.92556
8.40951
8.9175
9.45324
10.0203
10.6217
11.2597
11.9359
12.651
13.405
14.1974
15.0269
15.8925
16.7997
17.7462
18.7339
19.7639
20.8324
21.9375
23.0737
24.24
25.4384
26.6734
27.9489
29.2673
30.6301
32.0381
33.4923
34.9933
36.5418
38.1382
39.7832
41.4773
43.221
45.0147
46.8588
48.7537
50.6997
52.697
54.7459
56.8463
58.9985
61.2023
63.4576
65.7643
68.1221
70.5305
72.9892
75.4975
78.0548
80.6603
83.313
86.0121
88.7564
91.5446
94.3754
97.2474
100.159
103.108
106.094
109.113
112.165
115.247
118.357
121.492
124.651
127.83
131.028
134.242
137.47
140.708
143.956
147.211
150.472
153.736
157.003
160.271
163.538
166.795
170.031
173.237
176.406
179.534
182.616
185.645
188.618
191.529
194.372
197.144
199.839
202.453
204.98
207.416
209.757
211.998
214.135
216.165
218.083
219.886
221.57
223.134
224.574
225.887
227.071
228.125
229.047
229.835
230.488
231.005
231.387
231.633
231.743
231.717
231.558
231.264
230.839
230.284
229.601
228.792
227.86
226.807
225.637
224.353
222.959
221.458
219.855
218.154
216.358
214.472
212.502
210.451
208.322
206.125
203.862
201.534
199.155
196.718
194.238
191.728
189.182
186.618
184.035
181.453
178.893
176.404
174.014
171.683
169.383
167.103
164.841
162.598
160.377
158.183
156.023
153.907
151.856
149.902
148.128
146.651
145.94
6.0008
2.88295
2.40621
2.3446
2.42793
2.59053
2.80877
3.07092
3.36902
3.69632
4.04681
4.4153
4.79771
5.19123
5.59433
6.00666
6.42885
6.86229
7.30894
7.77116
8.25155
8.75284
9.27777
9.82901
10.409
11.0198
11.6631
12.3399
13.0511
13.7974
14.5791
15.3967
16.251
17.1431
18.0733
19.0421
20.0495
21.0948
22.1775
23.297
24.4536
25.6485
26.8832
28.1597
29.4795
30.8439
32.254
33.7107
35.2149
36.7675
38.3691
40.0207
41.7229
43.4765
45.2821
47.1404
49.052
51.0175
53.0373
55.112
57.242
59.4274
61.6687
63.9659
66.3192
68.7284
71.1935
73.7142
76.2901
78.9207
81.6054
84.3435
87.1341
89.9761
92.8684
95.8096
98.7984
101.833
104.912
108.033
111.195
114.394
117.63
120.899
124.2
127.529
130.885
134.264
137.664
141.082
144.515
147.962
151.418
154.883
158.352
161.824
165.296
168.758
172.203
175.621
179.007
182.353
185.655
188.907
192.102
195.236
198.303
201.297
204.213
207.046
209.79
212.44
214.991
217.439
219.779
222.005
224.115
226.104
227.968
229.704
231.309
232.779
234.113
235.308
236.363
237.275
238.043
238.666
239.144
239.476
239.663
239.705
239.602
239.356
238.969
238.441
237.776
236.975
236.041
234.977
233.787
232.474
231.042
229.495
227.836
226.071
224.204
222.24
220.182
218.039
215.813
213.506
211.132
208.691
206.178
203.624
201.021
198.377
195.699
192.991
190.262
187.517
184.77
182.037
179.342
176.704
174.108
171.541
168.999
166.481
163.989
161.526
159.099
156.718
154.396
152.157
150.039
148.121
146.5
145.434
7.36836
3.47992
2.8463
2.7249
2.77632
2.91707
3.11712
3.36228
3.64387
3.95536
4.29133
4.64723
5.01944
5.40543
5.80371
6.21382
6.63614
7.07176
7.52227
7.98961
8.47595
8.98353
9.51462
10.0714
10.656
11.27
11.9152
12.5927
13.3036
14.0487
14.829
15.6452
16.498
17.3882
18.3164
19.2832
20.2889
21.3338
22.4183
23.543
24.7085
25.9158
27.166
28.4605
29.8005
31.1873
32.6221
34.1061
35.6403
37.226
38.8642
40.5559
42.3023
44.1044
45.9632
47.8796
49.8548
51.8895
53.9847
56.1411
58.3594
60.6404
62.9846
65.3925
67.8643
70.4005
73.001
75.6658
78.3949
81.1878
84.044
86.9631
89.944
92.9858
96.0874
99.2473
102.464
105.736
109.061
112.437
115.863
119.335
122.851
126.408
130.004
133.636
137.301
140.995
144.716
148.46
152.224
156.004
159.798
163.601
167.411
171.222
175.031
178.822
182.59
186.328
190.027
193.683
197.289
200.838
204.324
207.741
211.082
214.341
217.512
220.59
223.567
226.438
229.198
231.841
234.363
236.758
239.021
241.149
243.137
244.981
246.678
248.226
249.62
250.86
251.943
252.868
253.633
254.237
254.68
254.963
255.084
255.046
254.849
254.495
253.985
253.322
252.508
251.547
250.441
249.194
247.81
246.294
244.65
242.88
240.991
238.99
236.88
234.666
232.351
229.949
227.461
224.881
222.238
219.53
216.757
213.935
211.065
208.154
205.208
202.234
199.239
196.229
193.215
190.21
187.229
184.284
181.373
178.492
175.639
172.815
170.024
167.271
164.564
161.913
159.335
156.855
154.512
152.375
150.512
149.067
8.49732
3.99206
3.2266
3.05323
3.07598
3.19639
3.37903
3.60751
3.87245
4.1674
4.48739
4.82839
5.18727
5.56178
5.9506
6.35323
6.76994
7.20161
7.64958
8.11553
8.60134
9.10897
9.64042
10.1977
10.7825
11.3967
12.0417
12.7189
13.4294
14.1744
14.9547
15.7714
16.6253
17.5173
18.4481
19.4186
20.4294
21.4815
22.5756
23.7127
24.8937
26.1197
27.392
28.7117
30.0804
31.4993
32.97
34.4937
36.0721
37.7065
39.3984
41.1493
42.9607
44.8339
46.7705
48.7718
50.8392
52.9741
55.1778
57.4513
59.796
62.2128
64.7026
67.2664
69.9047
72.6182
75.4071
78.2719
81.2123
84.2285
87.3198
90.4859
93.7258
97.0387
100.423
103.878
107.401
110.991
114.645
118.361
122.137
125.969
129.855
133.792
137.776
141.804
145.873
149.978
154.116
158.283
162.474
166.686
170.914
175.154
179.401
183.649
187.888
192.103
196.289
200.439
204.546
208.602
212.6
216.532
220.392
224.172
227.865
231.464
234.962
238.351
241.626
244.78
247.806
250.699
253.453
256.062
258.522
260.826
262.972
264.954
266.77
268.415
269.889
271.187
272.308
273.251
274.014
274.596
274.999
275.221
275.263
275.127
274.814
274.326
273.666
272.836
271.841
270.682
269.364
267.89
266.267
264.5
262.593
260.55
258.375
256.081
253.672
251.148
248.514
245.792
242.98
240.082
237.11
234.071
230.967
227.81
224.605
221.358
218.077
214.768
211.439
208.096
204.748
201.406
198.082
194.786
191.519
188.283
185.08
181.912
178.784
175.702
172.676
169.718
166.845
164.083
161.469
159.059
156.899
155.069
9.42472
4.42067
3.54281
3.32352
3.32
3.42117
3.58694
3.79897
4.04724
4.32527
4.62841
4.9531
5.29665
5.65714
6.03345
6.42515
6.83248
7.2562
7.69749
8.15785
8.63894
9.14255
9.67051
10.2246
10.8065
11.418
12.0604
12.7352
13.4437
14.1871
14.9664
15.7829
16.6375
17.5312
18.4652
19.4405
20.4582
21.5193
22.6251
23.7768
24.9756
26.223
27.5203
28.8691
30.271
31.7277
33.2409
34.8124
36.4441
38.1378
39.8954
41.719
43.6103
45.5713
47.604
49.7102
51.8919
54.1509
56.4888
58.9074
61.4084
63.9931
66.663
69.4192
72.2629
75.1948
78.2158
81.3261
84.5262
87.8159
91.1951
94.6632
98.2194
101.863
105.592
109.404
113.299
117.274
121.326
125.453
129.651
133.917
138.248
142.64
147.089
151.591
156.142
160.736
165.371
170.04
174.739
179.462
184.204
188.959
193.722
198.486
203.227
207.94
212.618
217.252
221.835
226.358
230.813
235.192
239.486
243.686
247.785
251.775
255.647
259.394
263.009
266.484
269.812
272.986
276.001
278.85
281.527
284.028
286.346
288.478
290.42
292.17
293.723
295.078
296.233
297.186
297.937
298.485
298.829
298.972
298.913
298.656
298.2
297.55
296.708
295.678
294.465
293.072
291.503
289.761
287.857
285.795
283.581
281.219
278.709
276.075
273.318
270.441
267.452
264.363
261.179
257.907
254.556
251.133
247.646
244.102
240.509
236.875
233.206
229.51
225.795
222.067
218.336
214.61
210.9
207.214
203.557
199.934
196.348
192.804
189.307
185.866
182.491
179.194
175.994
172.916
169.993
167.271
164.776
162.558
10.1515
4.76465
3.7937
3.53426
3.50663
3.58951
3.73889
3.93481
4.16661
4.42778
4.71389
5.02176
5.34906
5.69422
6.05631
6.43503
6.83064
7.24384
7.6757
8.12758
8.60099
9.09759
9.61904
10.167
10.7432
11.3492
11.9865
12.6566
13.3608
14.1005
14.8769
15.6915
16.5454
17.4399
18.3763
19.356
20.3804
21.4508
22.5689
23.7361
24.9541
26.2246
27.5493
28.9303
30.3693
31.8687
33.4304
35.0567
36.75
38.5127
40.3471
42.2557
44.241
46.3055
48.4516
50.6819
52.9988
55.4046
57.9016
60.4922
63.1783
65.9619
68.8449
71.8289
74.9153
78.1054
81.4001
84.8002
88.306
91.9177
95.6351
99.4577
103.385
107.414
111.546
115.777
120.105
124.528
129.042
133.645
138.332
143.099
147.943
152.859
157.842
162.888
167.99
173.145
178.346
183.587
188.862
194.166
199.491
204.831
210.179
215.514
220.82
226.09
231.317
236.49
241.602
246.643
251.602
256.471
261.24
265.899
270.439
274.852
279.127
283.258
287.235
291.05
294.696
298.166
301.451
304.547
307.447
310.144
312.634
314.911
316.973
318.816
320.437
321.833
323.005
323.949
324.665
325.154
325.415
325.45
325.261
324.85
324.219
323.372
322.312
321.045
319.576
317.909
316.05
313.998
311.77
309.372
306.81
304.088
301.214
298.201
295.054
291.782
288.391
284.893
281.294
277.603
273.83
269.981
266.066
262.093
258.071
254.007
249.909
245.785
241.643
237.491
233.337
229.191
225.06
220.954
216.879
212.841
208.846
204.899
201.008
197.182
193.432
189.771
186.218
182.796
179.534
176.47
173.614
171.005
10.6849
5.02597
3.9812
3.68743
3.6379
3.70344
3.83699
4.01725
4.23304
4.47776
4.74716
5.03833
5.34926
5.67865
6.02578
6.39047
6.77302
7.17409
7.59469
8.03606
8.49963
8.98692
9.49953
10.0391
10.6071
11.2054
11.8353
12.4985
13.1965
13.9307
14.7027
15.514
16.366
17.2605
18.1988
19.1828
20.2142
21.2947
22.4262
23.6106
24.85
26.1466
27.5026
28.9202
30.402
31.9506
33.5687
35.259
37.0243
38.8678
40.7924
42.8012
44.8973
47.0838
49.3638
51.7405
54.217
56.796
59.4807
62.2737
65.1777
68.1952
71.3285
74.5796
77.9503
81.4423
85.0567
88.7944
92.6559
96.6416
100.751
104.984
109.338
113.814
118.408
123.118
127.942
132.877
137.918
143.061
148.303
153.637
159.06
164.565
170.148
175.802
181.521
187.3
193.13
199.007
204.921
210.867
216.835
222.818
228.804
234.757
240.674
246.545
252.361
258.113
263.789
269.379
274.872
280.257
285.523
290.659
295.656
300.503
305.191
309.711
314.052
318.208
322.168
325.926
329.474
332.805
335.913
338.79
341.432
343.833
345.99
347.9
349.561
350.97
352.126
353.028
353.677
354.07
354.211
354.101
353.743
353.139
352.294
351.208
349.888
348.342
346.576
344.594
342.403
340.009
337.421
334.648
331.699
328.579
325.298
321.866
318.292
314.585
310.753
306.807
302.756
298.609
294.376
290.066
285.688
281.251
276.764
272.237
267.676
263.092
258.493
253.885
249.279
244.683
240.105
235.555
231.039
226.565
222.14
217.771
213.467
209.236
205.091
201.045
197.118
193.33
189.707
186.278
183.046
180.043
11.0384
5.20973
4.1098
3.7876
3.7185
3.76779
3.88618
4.05136
4.25176
4.4807
4.73404
5.00908
5.30404
5.61785
5.94994
6.30026
6.66913
7.05722
7.46548
7.8951
8.34742
8.8239
9.32609
9.85558
10.414
11.003
11.6243
12.2794
12.9702
13.6983
14.4654
15.2733
16.1238
17.0188
17.9603
18.9503
19.9909
21.0843
22.2329
23.4389
24.7051
26.034
27.4284
28.8912
30.4255
32.0345
33.7214
35.4898
37.3431
39.2851
41.3194
43.4499
45.6804
48.0146
50.4565
53.0099
55.6784
58.4657
61.3752
64.4104
67.5743
70.87
74.3002
77.8673
81.5735
85.4206
89.4099
93.5424
97.8188
102.239
106.802
111.509
116.356
121.342
126.465
131.722
137.109
142.623
148.258
154.01
159.872
165.84
171.906
178.065
184.31
190.633
197.029
203.49
210.008
216.575
223.183
229.823
236.486
243.162
249.807
256.412
262.968
269.466
275.894
282.242
288.497
294.648
300.682
306.585
312.348
317.957
323.402
328.672
333.758
338.648
343.334
347.805
352.053
356.07
359.848
363.381
366.662
369.683
372.437
374.921
377.131
379.065
380.72
382.096
383.191
384.004
384.537
384.788
384.76
384.456
383.881
383.037
381.928
380.56
378.939
377.072
374.965
372.627
370.063
367.282
364.293
361.106
357.73
354.174
350.447
346.56
342.522
338.345
334.038
329.612
325.076
320.442
315.719
310.918
306.048
301.119
296.142
291.124
286.077
281.009
275.928
270.843
265.763
260.697
255.653
250.641
245.669
240.744
235.875
231.07
226.338
221.689
217.135
212.691
208.374
204.205
200.205
196.398
192.778
189.379
11.23
5.32329
4.1858
3.84104
3.75482
3.78911
3.89315
4.044
4.2298
4.44382
4.68201
4.94182
5.22164
5.52055
5.83812
6.17438
6.52968
6.90471
7.30041
7.71791
8.15855
8.62377
9.11513
9.63425
10.1828
10.7627
11.3755
12.0232
12.7077
13.431
14.195
15.0019
15.8539
16.7532
17.7023
18.7035
19.7596
20.8731
22.0471
23.2844
24.5882
25.9618
27.4085
28.9321
30.5363
32.225
34.0022
35.8722
37.8393
39.908
42.0828
44.3682
46.769
49.2897
51.935
54.7093
57.6171
60.6626
63.8497
67.1823
70.6641
74.2985
78.0885
82.0368
86.1457
90.417
94.8522
99.452
104.217
109.146
114.239
119.495
124.911
130.484
136.212
142.09
148.115
154.28
160.581
167.012
173.564
180.23
187.004
193.877
200.842
207.891
215.017
222.21
229.462
236.765
244.109
251.483
258.879
266.247
273.569
280.836
288.038
295.163
302.199
309.133
315.954
322.65
329.204
335.601
341.829
347.877
353.733
359.386
364.825
370.039
375.019
379.754
384.236
388.456
392.406
396.082
399.477
402.58
405.384
407.886
410.086
411.98
413.567
414.845
415.815
416.477
416.832
416.88
416.626
416.073
415.225
414.086
412.663
410.961
408.987
406.749
404.256
401.514
398.533
395.322
391.89
388.249
384.408
380.378
376.169
371.793
367.261
362.583
357.771
352.837
347.79
342.644
337.407
332.093
326.71
321.27
315.783
310.259
304.707
299.139
293.562
287.985
282.419
276.871
271.351
265.868
260.431
255.048
249.728
244.479
239.313
234.238
229.269
224.419
219.705
215.146
210.76
206.566
202.556
198.764
11.2814
5.37544
4.21646
3.85486
3.75415
3.77491
3.86567
4.00316
4.17539
4.37566
4.59995
4.84584
5.11183
5.39712
5.70138
6.02469
6.36746
6.73041
7.11448
7.52085
7.95085
8.40599
8.88789
9.39831
9.93907
10.5121
11.1195
11.7633
12.4458
13.1692
13.9359
14.7486
15.6099
16.5225
17.4893
18.5135
19.5982
20.7469
21.963
23.2502
24.6125
26.0538
27.5784
29.1909
30.8957
32.6977
34.6018
36.6133
38.7372
40.9789
43.344
45.8377
48.4657
51.2333
54.1461
57.2092
60.4277
63.8061
67.3486
71.0594
74.9425
79.0014
83.2393
87.6589
92.2622
97.0508
102.026
107.187
112.535
118.068
123.784
129.682
135.757
142.007
148.426
155.01
161.752
168.648
175.69
182.871
190.18
197.609
205.147
212.788
220.522
228.341
236.235
244.196
252.215
260.28
268.383
276.514
284.615
292.662
300.644
308.549
316.367
324.084
331.687
339.163
346.499
353.684
360.702
367.528
374.154
380.568
386.76
392.718
398.429
403.885
409.074
413.988
418.616
422.951
426.985
430.712
434.125
437.218
439.985
442.422
444.527
446.298
447.735
448.837
449.604
450.038
450.141
449.915
449.364
448.492
447.305
445.809
444.01
441.915
439.532
436.87
433.937
430.744
427.299
423.614
419.699
415.564
411.223
406.685
401.963
397.068
392.013
386.81
381.47
376.006
370.43
364.754
358.988
353.146
347.238
341.275
335.269
329.229
323.167
317.092
311.014
304.941
298.885
292.853
286.855
280.9
274.998
269.157
263.387
257.696
252.096
246.598
241.213
235.956
230.844
225.894
221.12
216.54
212.142
207.963
11.2169
5.37578
4.20949
3.83656
3.7242
3.73325
3.81221
3.93777
4.09797
4.28616
4.49842
4.73239
4.98669
5.26059
5.55384
5.8666
6.19936
6.55287
6.92816
7.32649
7.74931
8.19825
8.67511
9.18185
9.72056
10.2935
10.903
11.5516
12.2419
12.9768
13.7591
14.592
15.4788
16.423
17.4283
18.4984
19.6375
20.8498
22.1397
23.5119
24.971
26.5222
28.1707
29.9219
31.7817
33.7558
35.8503
38.0711
40.4247
42.9172
45.555
48.3444
51.2917
54.4032
57.6848
61.1427
64.7824
68.6085
72.624
76.8331
81.2397
85.8474
90.6587
95.6757
100.9
106.332
111.972
117.818
123.87
130.125
136.579
143.229
150.07
157.097
164.302
171.681
179.225
186.926
194.778
202.776
210.903
219.142
227.487
235.93
244.46
253.069
261.748
270.486
279.273
288.098
296.954
305.767
314.512
323.179
331.755
340.227
348.581
356.805
364.883
372.802
380.548
388.108
395.465
402.604
409.511
416.175
422.582
428.723
434.586
440.16
445.435
450.403
455.055
459.382
463.379
467.038
470.354
473.322
475.936
478.195
480.096
481.638
482.821
483.645
484.113
484.225
483.986
483.398
482.467
481.198
479.597
477.67
475.427
472.874
470.021
466.877
463.453
459.758
455.804
451.602
447.163
442.5
437.625
432.55
427.288
421.852
416.254
410.508
404.625
398.619
392.503
386.289
379.988
373.614
367.178
360.692
354.167
347.614
341.044
334.467
327.893
321.331
314.791
308.283
301.816
295.399
289.041
282.753
276.542
270.419
264.396
258.482
252.69
247.036
241.533
236.197
231.043
226.085
221.308
216.753
11.0624
5.33404
4.1725
3.79365
3.67292
3.67275
3.74217
3.85812
4.00881
4.1877
4.39099
4.61641
4.86268
5.12917
5.41573
5.72263
6.05048
6.40017
6.77291
7.17013
7.59351
8.04498
8.52665
9.04084
9.59009
10.1771
10.8049
11.4765
12.1953
12.9646
13.7883
14.6704
15.6151
16.6268
17.7104
18.8708
20.1134
21.4436
22.8673
24.39
26.0176
27.7562
29.6126
31.5936
33.7061
35.9571
38.3537
40.9032
43.6125
46.4889
49.5393
52.7706
56.1896
59.8026
63.6162
67.6366
71.8712
76.3241
80.9908
85.877
90.9863
96.3211
101.883
107.672
113.688
119.929
126.395
133.081
139.985
147.101
154.425
161.949
169.668
177.573
185.657
193.91
202.324
210.888
219.593
228.43
237.384
246.442
255.595
264.831
274.142
283.517
292.947
302.422
311.937
321.458
330.907
340.274
349.545
358.704
367.739
376.635
385.377
393.953
402.348
410.547
418.537
426.304
433.833
441.111
448.124
454.861
461.309
467.457
473.296
478.816
484.007
488.86
493.369
497.525
501.323
504.758
507.824
510.518
512.835
514.775
516.336
517.518
518.321
518.748
518.8
518.481
517.794
516.745
515.339
513.583
511.484
509.049
506.288
503.21
499.824
496.141
492.172
487.928
483.421
478.663
473.667
468.445
463.011
457.377
451.558
445.565
439.414
433.116
426.686
420.136
413.48
406.731
399.901
393.003
386.049
379.051
372.02
364.968
357.906
350.843
343.79
336.758
329.754
322.789
315.873
309.014
302.222
295.506
288.875
282.341
275.913
269.603
263.423
257.387
251.509
245.805
240.286
234.964
229.826
224.914
10.8357
5.25682
4.11107
3.73211
3.60715
3.60141
3.66494
3.77519
3.92069
4.09511
4.2948
4.51768
4.76261
5.02913
5.3173
5.62761
5.96092
6.31844
6.70172
7.11262
7.5533
8.02621
8.53408
9.07992
9.66705
10.2991
10.9801
11.7143
12.5058
13.3593
14.2799
15.273
16.3444
17.5002
18.7468
20.091
21.54
23.1015
24.7839
26.5944
28.5375
30.6223
32.8572
35.2506
37.8105
40.5453
43.4627
46.5706
49.8763
53.3871
57.1098
61.0507
65.2156
69.6099
74.2384
79.1053
84.2142
89.5667
95.1622
101.002
107.085
113.411
119.978
126.784
133.825
141.097
148.595
156.313
164.244
172.381
180.715
189.238
197.941
206.813
215.844
225.024
234.342
243.785
253.344
263.006
272.759
282.591
292.492
302.451
312.459
322.506
332.587
342.687
352.729
362.672
372.504
382.211
391.781
401.2
410.452
419.525
428.405
437.079
445.532
453.752
461.725
469.439
476.88
484.037
490.897
497.449
503.683
509.589
515.157
520.378
525.246
529.751
533.889
537.652
541.036
544.036
546.649
548.872
550.703
552.142
553.187
553.84
554.103
553.978
553.468
552.579
551.314
549.68
547.684
545.332
542.633
539.596
536.231
532.546
528.554
524.264
519.69
514.842
509.734
504.377
498.786
492.974
486.954
480.74
474.345
467.784
461.069
454.216
447.237
440.146
432.956
425.68
418.332
410.924
403.467
395.975
388.458
380.928
373.396
365.872
358.366
350.887
343.446
336.052
328.713
321.44
314.241
307.125
300.102
293.183
286.377
279.696
273.152
266.758
260.528
254.476
248.613
242.95
237.472
232.226
10.6006
5.16639
4.04209
3.66912
3.54626
3.54176
3.60689
3.71976
3.8693
4.04951
4.25704
4.4901
4.7479
5.03035
5.33796
5.67174
6.03315
6.42408
6.84687
7.30422
7.79933
8.33583
8.91767
9.54898
10.2347
10.9803
11.7919
12.6766
13.64
14.6874
15.827
17.067
18.4158
19.8821
21.4749
23.2037
25.0779
27.1075
29.3021
31.6711
34.223
36.9673
39.9129
43.0685
46.4425
50.0425
53.8754
57.9474
62.2643
66.8305
71.6501
76.7259
82.0601
87.6538
93.5074
99.6203
105.991
112.616
119.493
126.615
133.98
141.58
149.409
157.462
165.729
174.203
182.875
191.736
200.776
209.986
219.354
228.871
238.525
248.304
258.199
268.196
278.286
288.457
298.698
308.999
319.348
329.735
340.156
350.595
361.053
371.516
381.905
392.168
402.303
412.295
422.131
431.799
441.286
450.579
459.665
468.533
477.17
485.564
493.703
501.575
509.169
516.473
523.477
530.171
536.543
542.584
548.286
553.639
558.636
563.269
567.533
571.42
574.926
578.046
580.777
583.114
585.056
586.602
587.749
588.5
588.854
588.814
588.381
587.561
586.356
584.772
582.815
580.492
577.81
574.777
571.402
567.695
563.665
559.324
554.681
549.75
544.542
539.069
533.345
527.383
521.195
514.796
508.199
501.419
494.468
487.361
480.112
472.734
465.241
457.647
449.964
442.206
434.385
426.514
418.605
410.669
402.719
394.764
386.816
378.884
370.98
363.111
355.287
347.517
339.81
332.176
324.622
317.158
309.794
302.538
295.402
288.396
281.533
274.824
268.283
261.922
255.753
249.786
244.006
238.463
10.3926
5.07669
3.97902
3.62053
3.50964
3.51754
3.59681
3.72634
3.89566
4.09931
4.33453
4.6002
4.89627
5.22358
5.58364
5.97865
6.41141
6.88531
7.40443
7.9732
8.59697
9.28242
10.0364
10.8637
11.7731
12.7735
13.8747
15.0867
16.4196
17.884
19.4914
21.2538
23.1834
25.2923
27.593
30.0975
32.8174
35.7641
38.9478
42.378
46.063
50.01
54.2254
58.7143
63.4803
68.5258
73.8518
79.4582
85.3433
91.5045
97.9379
104.639
111.601
118.819
126.284
133.99
141.926
150.085
158.457
167.032
175.799
184.75
193.873
203.16
212.598
222.178
231.889
241.722
251.666
261.71
271.844
282.059
292.344
302.69
313.086
323.524
333.996
344.493
355.004
365.527
376.05
386.562
397.088
407.575
417.954
428.179
438.256
448.17
457.912
467.471
476.835
485.995
494.94
503.658
512.14
520.374
528.352
536.062
543.494
550.64
557.488
564.03
570.257
576.16
581.73
586.959
591.84
596.367
600.531
604.328
607.753
610.799
613.464
615.744
617.636
619.139
620.25