/*--------------------------------*- C++ -*----------------------------------*\
  =========                 |
  \\      /  F ield         | OpenFOAM: The Open Source CFD Toolbox
   \\    /   O peration     | Website:  https://openfoam.org
    \\  /    A nd           | Version:  12
     \\/     M anipulation  |
\*---------------------------------------------------------------------------*/
FoamFile
{
    format      ascii;
    class       volScalarField;
    location    "0.14";
    object      k;
}
// * * * * * * * * * * * * * * * * * * * * * * * * * * * * * * * * * * * * * //

dimensions      [0 2 -2 0 0 0 0];

internalField   nonuniform List<scalar> 
12225
(
0.353921
0.335043
0.316966
0.300961
0.288126
0.278908
0.2733
0.271006
0.271571
0.274478
0.279213
0.285306
0.292352
0.300016
0.308042
0.316217
0.324594
0.336734
0.436864
0.44898
0.438086
0.433063
0.438792
0.453595
0.474814
0.500001
0.527168
0.554831
0.58196
0.607892
0.63225
0.654859
0.675834
0.695072
0.714722
0.730094
0.395187
0.410873
0.410631
0.405747
0.402011
0.400926
0.402618
0.406813
0.41309
0.420991
0.430083
0.439986
0.45039
0.461054
0.47184
0.48264
0.493756
0.504546
0.379641
0.38484
0.386546
0.38573
0.383905
0.382027
0.380568
0.37974
0.379608
0.380151
0.381307
0.382993
0.38513
0.387641
0.390475
0.3936
0.397039
0.400691
0.374976
0.3759
0.376239
0.375721
0.37457
0.373083
0.371496
0.369967
0.368593
0.367427
0.366486
0.36577
0.365271
0.364974
0.364865
0.364938
0.365188
0.365585
0.373488
0.372554
0.371759
0.370807
0.369631
0.368275
0.366809
0.3653
0.363803
0.362358
0.360989
0.359713
0.358537
0.357462
0.35649
0.355621
0.354853
0.354182
0.373012
0.371296
0.369813
0.368416
0.367025
0.36561
0.364168
0.362711
0.361256
0.359823
0.358424
0.357071
0.355772
0.354531
0.353353
0.352239
0.351192
0.350218
0.372865
0.370838
0.369004
0.36731
0.365711
0.364174
0.362679
0.361215
0.359782
0.35838
0.357013
0.355685
0.3544
0.353158
0.351964
0.350819
0.349725
0.348694
0.37282
0.37068
0.368691
0.366836
0.365095
0.363448
0.361879
0.360375
0.358927
0.35753
0.356181
0.354877
0.353619
0.352406
0.351238
0.350114
0.349038
0.348019
0.372806
0.370628
0.368578
0.366648
0.364828
0.36311
0.361482
0.359933
0.358456
0.357044
0.355692
0.354395
0.35315
0.351955
0.350809
0.349709
0.348655
0.347659
0.372801
0.370609
0.368537
0.366576
0.36472
0.362964
0.361298
0.359718
0.358215
0.356784
0.355419
0.354116
0.352872
0.351682
0.350544
0.349456
0.348417
0.347436
0.372799
0.370602
0.368522
0.366549
0.36468
0.362907
0.361224
0.359626
0.358108
0.356663
0.355287
0.353977
0.352727
0.351535
0.350397
0.349311
0.348276
0.347301
0.372797
0.370599
0.368514
0.366537
0.36466
0.362879
0.361188
0.359581
0.358053
0.356599
0.355215
0.353898
0.352642
0.351446
0.350306
0.349218
0.348183
0.347207
0.372796
0.370596
0.368509
0.366528
0.364649
0.362864
0.361167
0.359555
0.358021
0.356562
0.355173
0.35385
0.35259
0.35139
0.350246
0.349155
0.348117
0.347139
0.372795
0.370593
0.368505
0.366523
0.364641
0.362853
0.361154
0.359539
0.358002
0.35654
0.355148
0.353822
0.352559
0.351356
0.350208
0.349115
0.348073
0.347093
0.372794
0.370592
0.368502
0.366518
0.364634
0.362845
0.361144
0.359527
0.357989
0.356525
0.355131
0.353803
0.352538
0.351333
0.350183
0.349087
0.348043
0.347061
0.372794
0.37059
0.368499
0.366515
0.36463
0.362839
0.361137
0.359519
0.357979
0.356513
0.355118
0.353789
0.352523
0.351316
0.350165
0.349067
0.348022
0.347037
0.372794
0.37059
0.368498
0.366512
0.364627
0.362835
0.361132
0.359513
0.357972
0.356506
0.355109
0.353779
0.352512
0.351303
0.350151
0.349053
0.348006
0.34702
0.372793
0.370589
0.368497
0.366512
0.364626
0.362834
0.361131
0.359511
0.35797
0.356503
0.355106
0.353775
0.352507
0.351298
0.350145
0.349046
0.347998
0.347011
0.372794
0.37059
0.368498
0.366513
0.364628
0.362836
0.361133
0.359514
0.357973
0.356507
0.35511
0.353779
0.352511
0.351303
0.35015
0.349051
0.348003
0.347016
0.372794
0.370591
0.3685
0.366516
0.364632
0.362841
0.36114
0.359522
0.357983
0.356518
0.355122
0.353793
0.352527
0.35132
0.350169
0.349071
0.348024
0.347039
0.372795
0.370593
0.368504
0.366522
0.364641
0.362855
0.361159
0.359546
0.358012
0.356553
0.355163
0.35384
0.352579
0.351377
0.35023
0.349136
0.348093
0.34711
0.372796
0.370598
0.368518
0.366547
0.364681
0.362913
0.361235
0.359642
0.358127
0.356685
0.355312
0.354002
0.352752
0.351557
0.350416
0.349325
0.348283
0.3473
0.372804
0.370631
0.368592
0.366676
0.364872
0.363167
0.361548
0.360006
0.358532
0.357121
0.355768
0.354468
0.35322
0.352021
0.350869
0.349763
0.348703
0.347699
0.372856
0.370818
0.368973
0.367264
0.365645
0.364085
0.362567
0.361083
0.359631
0.358214
0.356833
0.355493
0.354197
0.352947
0.351745
0.350591
0.349488
0.348446
0.373166
0.37177
0.370579
0.369371
0.368049
0.366605
0.365072
0.363493
0.361906
0.360343
0.358826
0.357372
0.355991
0.354689
0.353468
0.35233
0.351272
0.350303
0.374797
0.375829
0.376175
0.375401
0.373834
0.371876
0.369792
0.36774
0.365814
0.364066
0.362524
0.361194
0.360074
0.359155
0.358423
0.357861
0.357454
0.357186
0.382729
0.39167
0.392375
0.388805
0.384384
0.380403
0.377247
0.374997
0.373619
0.373036
0.373149
0.373861
0.375077
0.376708
0.378675
0.38091
0.38335
0.385928
0.407499
0.414513
0.405423
0.395991
0.390553
0.389289
0.391451
0.396208
0.402826
0.410712
0.419415
0.428596
0.437999
0.447438
0.456776
0.465918
0.47482
0.483396
0.360554
0.347547
0.334933
0.322917
0.311965
0.302352
0.29419
0.28747
0.282114
0.278002
0.274998
0.272963
0.271761
0.271268
0.271369
0.271963
0.272964
0.274288
0.00175584
0.00822857
0.0130478
0.0174255
0.0220527
0.0272408
0.0330831
0.0397002
0.0469893
0.054387
0.0618145
0.0691679
0.0763557
0.0833084
0.0899781
0.0963333
0.102354
0.108027
0.11334
0.118278
0.122822
0.126942
0.130603
0.133776
0.136451
0.13865
0.140417
0.141769
0.142674
0.143096
0.142906
0.140584
0.143479
0.141829
0.141617
0.143379
0.142958
0.144714
0.143097
0.144674
0.148753
0.154983
0.161529
0.168294
0.175252
0.182391
0.189702
0.197182
0.204828
0.212638
0.220611
0.228747
0.237043
0.2455
0.254116
0.26289
0.271819
0.280901
0.290133
0.299513
0.309038
0.318702
0.328503
0.338435
0.348493
0.358673
0.368968
0.379372
0.389879
0.400482
0.411173
0.421947
0.432794
0.443708
0.454679
0.4657
0.476763
0.487858
0.498976
0.510109
0.521248
0.532384
0.543507
0.554607
0.565677
0.576704
0.587681
0.598598
0.609443
0.620208
0.630881
0.641453
0.651912
0.662251
0.672459
0.682532
0.692471
0.702286
0.71201
0.721642
0.731055
0.740249
0.749223
0.757967
0.766472
0.774726
0.782719
0.790438
0.797875
0.805017
0.811856
0.818381
0.824584
0.830455
0.835986
0.84117
0.845999
0.850467
0.854568
0.858295
0.861645
0.864612
0.867194
0.869388
0.87119
0.8726
0.873617
0.874239
0.874467
0.874304
0.873749
0.872806
0.871479
0.86977
0.867684
0.865227
0.862404
0.859222
0.855688
0.85181
0.847595
0.843054
0.838194
0.833026
0.827561
0.821809
0.815782
0.80949
0.802947
0.796164
0.789153
0.781928
0.774502
0.766887
0.759096
0.751146
0.743045
0.734812
0.726459
0.717991
0.709449
0.700799
0.69214
0.683555
0.676445
0.672512
0.668864
0.665211
0.661537
0.657842
0.654131
0.6504
0.646642
0.642836
0.638935
0.634838
0.630312
0.624755
0.61663
0.599851
0.00542601
0.0189668
0.0277227
0.0348013
0.0413983
0.0478667
0.0545596
0.0616203
0.0690307
0.0766635
0.0843921
0.0921035
0.0997074
0.107138
0.114353
0.121325
0.128041
0.134496
0.140688
0.146617
0.152279
0.15767
0.162791
0.167658
0.172315
0.176834
0.181289
0.185733
0.190236
0.194947
0.199987
0.205331
0.211438
0.218242
0.224735
0.232805
0.240598
0.250181
0.260063
0.271105
0.282449
0.293494
0.304548
0.315948
0.327701
0.339786
0.352187
0.364896
0.377911
0.391228
0.404849
0.418774
0.433004
0.44754
0.462381
0.477529
0.492982
0.50874
0.524803
0.541166
0.55783
0.574789
0.59204
0.609579
0.6274
0.645497
0.663865
0.682495
0.70138
0.720511
0.739878
0.759472
0.779283
0.799298
0.819507
0.839897
0.860456
0.88117
0.902026
0.92301
0.944108
0.965305
0.986586
1.00794
1.02934
1.05078
1.07225
1.09372
1.11518
1.13661
1.158
1.17933
1.20058
1.22174
1.24278
1.26368
1.28443
1.30499
1.32534
1.34521
1.3648
1.3841
1.4031
1.42178
1.44013
1.45811
1.47572
1.49292
1.50969
1.52601
1.54187
1.55724
1.57209
1.58642
1.6002
1.61342
1.62605
1.63809
1.64951
1.6603
1.67045
1.67995
1.68878
1.69693
1.7044
1.71118
1.71725
1.72262
1.72728
1.73122
1.73445
1.73696
1.73875
1.73983
1.7402
1.73986
1.73882
1.73708
1.73465
1.73155
1.72779
1.72336
1.7183
1.7126
1.7063
1.69939
1.69191
1.68387
1.67528
1.66617
1.65655
1.64645
1.6359
1.62491
1.6135
1.6017
1.58953
1.57703
1.56421
1.55107
1.53772
1.52401
1.51023
1.49638
1.48274
1.46957
1.45643
1.44322
1.42995
1.41665
1.40331
1.38997
1.37662
1.36326
1.34988
1.33643
1.32278
1.30883
1.29333
1.2734
0.0101994
0.0298711
0.0411732
0.0497678
0.0573559
0.0646531
0.0720011
0.0795566
0.0873525
0.0953412
0.10344
0.111562
0.11963
0.127588
0.1354
0.143047
0.150526
0.157841
0.165005
0.172035
0.178952
0.185781
0.192557
0.199333
0.206178
0.213178
0.220413
0.22795
0.235854
0.244201
0.253036
0.262361
0.272222
0.282635
0.293553
0.305116
0.317238
0.330015
0.343321
0.357119
0.371244
0.385596
0.400231
0.415229
0.430618
0.446397
0.462564
0.479115
0.49605
0.513368
0.531068
0.54915
0.567615
0.586462
0.605691
0.625302
0.645293
0.665661
0.686406
0.707523
0.729008
0.750856
0.773064
0.795623
0.818527
0.841767
0.865337
0.889225
0.913421
0.937914
0.962693
0.987745
1.01306
1.03861
1.0644
1.0904
1.1166
1.14298
1.16953
1.19622
1.22305
1.24998
1.27701
1.30411
1.33127
1.35846
1.38566
1.41286
1.44004
1.46716
1.49423
1.5212
1.54807
1.57481
1.6014
1.62783
1.65407
1.68012
1.7058
1.73114
1.75613
1.78077
1.80504
1.8289
1.85232
1.87528
1.89776
1.91971
1.94112
1.96195
1.98217
2.00177
2.02072
2.03898
2.05655
2.07338
2.08947
2.10479
2.11931
2.13303
2.14593
2.15798
2.16918
2.17951
2.18896
2.19752
2.20518
2.21193
2.21776
2.22268
2.22668
2.22976
2.23192
2.23317
2.2335
2.23292
2.23144
2.22907
2.22582
2.2217
2.21673
2.21091
2.20428
2.19683
2.1886
2.17961
2.16987
2.15942
2.14826
2.13644
2.12397
2.11088
2.09721
2.08298
2.0682
2.05294
2.03719
2.02101
2.00443
1.98742
1.97019
1.95265
1.93492
1.91705
1.89922
1.88154
1.86384
1.84607
1.82824
1.81037
1.79248
1.7746
1.75675
1.73896
1.72125
1.70363
1.68612
1.6688
1.65118
1.63297
0.0156433
0.0400182
0.0533559
0.0630964
0.0715289
0.0794677
0.0873008
0.0952222
0.103309
0.11156
0.119935
0.128375
0.136822
0.145231
0.153574
0.161839
0.170027
0.178151
0.186235
0.194305
0.202397
0.21055
0.218814
0.227247
0.235915
0.244891
0.254238
0.264009
0.274249
0.284995
0.296271
0.308084
0.320447
0.333369
0.346852
0.360899
0.3755
0.39064
0.406279
0.422373
0.438871
0.455738
0.472979
0.490618
0.508673
0.527151
0.546058
0.565396
0.585168
0.605376
0.62602
0.647102
0.668624
0.690585
0.712986
0.735827
0.759107
0.782824
0.806976
0.83156
0.856572
0.882007
0.907859
0.934123
0.960789
0.987851
1.0153
1.04312
1.07131
1.09984
1.12872
1.15791
1.18742
1.21721
1.24728
1.27761
1.30818
1.33896
1.36994
1.4011
1.43241
1.46386
1.49542
1.52707
1.55879
1.59055
1.62233
1.65411
1.68586
1.71756
1.74919
1.78072
1.81212
1.84339
1.87448
1.90538
1.93607
1.9665
1.99654
2.0262
2.05546
2.08431
2.11271
2.14063
2.16804
2.19489
2.22117
2.24683
2.27183
2.29616
2.31977
2.34263
2.36472
2.386
2.40644
2.42602
2.44472
2.4625
2.47934
2.49523
2.51014
2.52406
2.53696
2.54883
2.55966
2.56944
2.57816
2.5858
2.59236
2.59785
2.60224
2.60556
2.60778
2.60893
2.609
2.60801
2.60595
2.60285
2.59871
2.59355
2.58739
2.58025
2.57214
2.56308
2.55311
2.54224
2.5305
2.51791
2.50451
2.49034
2.4754
2.45974
2.44341
2.42641
2.40878
2.39059
2.37183
2.35257
2.3329
2.31281
2.29238
2.27163
2.25063
2.22944
2.20818
2.18693
2.16564
2.14427
2.12284
2.10138
2.07992
2.0585
2.03716
2.01595
1.99494
1.97421
1.95387
1.93417
1.91498
1.89657
0.020893
0.0491596
0.0641481
0.0749653
0.0841613
0.0926539
0.100886
0.109092
0.11739
0.125821
0.134379
0.143035
0.151754
0.160505
0.16927
0.178041
0.186826
0.195642
0.204517
0.213483
0.222581
0.231857
0.24136
0.251145
0.261271
0.271793
0.282762
0.294218
0.306191
0.318704
0.33177
0.345395
0.359581
0.374328
0.389633
0.405488
0.421881
0.438797
0.456214
0.47411
0.492463
0.511257
0.530491
0.550171
0.570309
0.590911
0.611985
0.633537
0.655571
0.678091
0.701101
0.724604
0.748602
0.773098
0.798094
0.82359
0.849586
0.876083
0.903079
0.930571
0.958557
0.987032
1.01599
1.04543
1.07534
1.1057
1.13652
1.16779
1.19948
1.23158
1.26408
1.29697
1.33023
1.36383
1.39777
1.43201
1.46654
1.50133
1.53636
1.57161
1.60706
1.64267
1.67842
1.71428
1.75024
1.78625
1.82229
1.85834
1.89437
1.93035
1.96626
2.00205
2.03772
2.07322
2.10854
2.14365
2.17851
2.21299
2.24707
2.28073
2.31394
2.34668
2.37889
2.41055
2.44162
2.47206
2.50183
2.53088
2.55918
2.5867
2.6134
2.63923
2.66417
2.68818
2.71123
2.73329
2.75432
2.77431
2.79322
2.81103
2.82772
2.84327
2.85765
2.87086
2.88287
2.89368
2.90326
2.91163
2.91876
2.92465
2.9293
2.93272
2.9349
2.93585
2.93558
2.93409
2.93139
2.9275
2.92244
2.91622
2.90887
2.90039
2.89083
2.88019
2.86851
2.85582
2.84216
2.82753
2.81199
2.79557
2.7783
2.7602
2.74135
2.72177
2.70143
2.68053
2.65902
2.63698
2.61445
2.59146
2.56807
2.54433
2.52029
2.49602
2.4716
2.44712
2.42255
2.3979
2.3732
2.34847
2.32377
2.29915
2.27467
2.2504
2.22644
2.20294
2.18009
2.1582
2.1373
2.11765
0.0256486
0.0569369
0.0734614
0.085277
0.0951767
0.104172
0.112756
0.121202
0.129662
0.138214
0.146884
0.155674
0.164571
0.17356
0.182633
0.191791
0.201045
0.210416
0.219933
0.229631
0.23955
0.249736
0.260235
0.271094
0.282363
0.294085
0.306299
0.319035
0.332315
0.346154
0.36056
0.375536
0.39108
0.407192
0.423864
0.441089
0.45886
0.477165
0.495992
0.515332
0.535173
0.555509
0.57634
0.597668
0.619502
0.641849
0.664715
0.68811
0.712039
0.736508
0.761525
0.787093
0.813218
0.839904
0.867154
0.894972
0.923359
0.952316
0.981844
1.01194
1.04261
1.07384
1.10563
1.13797
1.17086
1.20429
1.23825
1.27272
1.3077
1.34317
1.37911
1.41551
1.45234
1.48959
1.52724
1.56525
1.60361
1.64229
1.68126
1.7205
1.75997
1.79965
1.8395
1.8795
1.91961
1.95981
2.00005
2.04032
2.08057
2.12077
2.1609
2.20091
2.24078
2.28047
2.31995
2.35918
2.39813
2.43662
2.47467
2.51225
2.54932
2.58584
2.62178
2.6571
2.69173
2.72565
2.7588
2.79115
2.82265
2.85325
2.88292
2.91162
2.9393
2.96593
2.99148
3.0159
3.03916
3.06124
3.08211
3.10173
3.12008
3.13714
3.1529
3.16733
3.18041
3.19214
3.2025
3.21148
3.21908
3.22529
3.23011
3.23355
3.2356
3.23627
3.23558
3.23353
3.23013
3.22541
3.21937
3.21205
3.20346
3.19363
3.18259
3.17036
3.15696
3.14246
3.12686
3.11021
3.09253
3.0739
3.05434
3.03382
3.01251
2.99043
2.96757
2.94404
2.91987
2.8951
2.86979
2.84398
2.81773
2.79108
2.7641
2.73684
2.7094
2.68181
2.65412
2.62634
2.59851
2.57068
2.54289
2.51523
2.48775
2.46058
2.43383
2.40769
2.3824
2.35829
2.33542
2.31393
0.0295749
0.06344
0.081282
0.0939744
0.104501
0.113947
0.122846
0.131501
0.140093
0.14873
0.157467
0.166331
0.175333
0.184474
0.193759
0.203196
0.212801
0.222597
0.232613
0.242884
0.253448
0.264346
0.275619
0.287308
0.299452
0.312086
0.32524
0.338937
0.353194
0.368022
0.383426
0.39941
0.415972
0.433111
0.450822
0.469101
0.487943
0.507342
0.527294
0.547794
0.568839
0.590428
0.612562
0.635246
0.658488
0.682294
0.706675
0.73164
0.757196
0.783353
0.810119
0.837501
0.865508
0.894146
0.92342
0.953336
0.983897
1.01511
1.04697
1.07948
1.11264
1.14646
1.18092
1.21601
1.25175
1.28811
1.32508
1.36266
1.40083
1.43957
1.47887
1.5187
1.55905
1.5999
1.64121
1.68296
1.72512
1.76767
1.81056
1.85378
1.89728
1.94103
1.98499
2.02913
2.07342
2.11782
2.16228
2.20678
2.25127
2.29571
2.34008
2.38433
2.42842
2.47232
2.51598
2.55937
2.60236
2.64487
2.68688
2.72836
2.76927
2.80957
2.84921
2.88814
2.92631
2.96367
3.00017
3.03577
3.07041
3.10405
3.13663
3.16813
3.19849
3.22767
3.25563
3.28235
3.30776
3.33186
3.35459
3.37594
3.39587
3.41437
3.43141
3.44697
3.46104
3.4736
3.48465
3.49416
3.50215
3.50859
3.5135
3.51688
3.51872
3.51905
3.51787
3.51519
3.51103
3.50541
3.49835
3.48987
3.48
3.46878
3.45622
3.44236
3.42722
3.41088
3.39335
3.37466
3.35483
3.334
3.31216
3.28934
3.26564
3.24108
3.21571
3.18959
3.16278
3.13532
3.10728
3.07869
3.04962
3.02012
2.99025
2.96007
2.92965
2.89906
2.86833
2.83751
2.80665
2.77579
2.74502
2.71439
2.68402
2.65402
2.62455
2.59582
2.56808
2.54166
2.51657
2.49289
0.0328
0.068724
0.0876372
0.101059
0.112118
0.121952
0.131125
0.139961
0.148664
0.157362
0.166137
0.175037
0.184092
0.193321
0.20274
0.212365
0.222217
0.232321
0.242704
0.253402
0.264447
0.275876
0.287724
0.300027
0.312815
0.326117
0.339957
0.354352
0.369318
0.384864
0.400995
0.417716
0.435027
0.452928
0.471419
0.490498
0.510164
0.530416
0.551255
0.57268
0.594694
0.617299
0.640502
0.664308
0.688726
0.713767
0.73944
0.765758
0.792732
0.820372
0.84869
0.877697
0.907402
0.937814
0.968943
1.0008
1.03338
1.0667
1.10076
1.13556
1.1711
1.20739
1.24442
1.28219
1.32068
1.3599
1.39983
1.44046
1.48177
1.52375
1.56638
1.60964
1.65349
1.69793
1.74291
1.78841
1.83439
1.88082
1.92767
1.97489
2.02245
2.07031
2.11843
2.16675
2.21526
2.26389
2.31261
2.36138
2.41015
2.45888
2.50752
2.55604
2.60438
2.6525
2.70036
2.74791
2.79495
2.84147
2.88743
2.93281
2.97755
3.0216
3.06491
3.10743
3.1491
3.18986
3.22966
3.26845
3.30617
3.34277
3.37821
3.41243
3.44539
3.47704
3.50735
3.53626
3.56374
3.58976
3.61427
3.63725
3.65867
3.6785
3.69673
3.71333
3.72829
3.74159
3.75323
3.76319
3.77146
3.77806
3.78297
3.7862
3.78776
3.78766
3.78592
3.78254
3.77756
3.77098
3.76284
3.75315
3.74196
3.72929
3.71519
3.69968
3.68275
3.66455
3.64509
3.62438
3.60249
3.57947
3.55539
3.53027
3.50418
3.47718
3.44931
3.42064
3.39123
3.36112
3.33037
3.29905
3.26721
3.2349
3.20219
3.16914
3.13582
3.1023
3.06862
3.03484
3.00102
2.96722
2.93353
2.90003
2.86683
2.83407
2.80192
2.77061
2.74039
2.71156
2.68407
2.65798
0.0353272
0.0728414
0.0925852
0.106583
0.118069
0.12822
0.13762
0.146606
0.155398
0.164141
0.172933
0.181843
0.190915
0.200183
0.209674
0.219411
0.22942
0.239726
0.250359
0.261348
0.272725
0.284521
0.296768
0.309493
0.322724
0.336483
0.350792
0.365665
0.381117
0.397156
0.41379
0.431025
0.448863
0.467308
0.486363
0.50603
0.526313
0.547214
0.568737
0.590888
0.613673
0.637099
0.661175
0.68591
0.711316
0.737406
0.764194
0.791692
0.819915
0.848878
0.878595
0.909079
0.940343
0.9724
1.00526
1.03894
1.07344
1.10877
1.14493
1.18194
1.2198
1.2585
1.29804
1.33843
1.37965
1.4217
1.46456
1.50823
1.55268
1.5979
1.64387
1.69055
1.73794
1.78598
1.83466
1.88394
1.93377
1.98413
2.03497
2.08624
2.1379
2.1899
2.2422
2.29475
2.3475
2.4004
2.4534
2.50646
2.55953
2.61255
2.66548
2.71827
2.77086
2.82322
2.87529
2.9269
2.97797
3.02846
3.07835
3.12757
3.17608
3.22383
3.27075
3.31677
3.36186
3.40593
3.44893
3.49081
3.53151
3.57097
3.60915
3.64598
3.68142
3.71542
3.74794
3.77893
3.80835
3.83616
3.86233
3.88681
3.90958
3.93062
3.94991
3.96743
3.98315
3.99708
4.0092
4.01949
4.02795
4.03458
4.03939
4.04238
4.04357
4.04296
4.04058
4.03643
4.03055
4.02296
4.01368
4.00273
3.99016
3.97603
3.96036
3.94318
3.92454
3.9045
3.88311
3.86041
3.83644
3.81128
3.78498
3.75758
3.72915
3.69975
3.66943
3.63825
3.60628
3.57358
3.5402
3.5062
3.47165
3.43661
3.40113
3.36529
3.32915
3.29277
3.25623
3.21958
3.1829
3.14625
3.10972
3.07342
3.03747
3.00201
2.96724
2.93337
2.90065
2.86933
2.83935
2.81074
0.0371821
0.0758692
0.0962185
0.110642
0.122448
0.132841
0.142413
0.151515
0.160372
0.169141
0.177934
0.186832
0.195892
0.20516
0.21467
0.224455
0.234541
0.244957
0.255731
0.266891
0.278466
0.290483
0.302969
0.31595
0.329448
0.343484
0.358076
0.373239
0.388987
0.405331
0.422279
0.439839
0.458019
0.476825
0.496264
0.516341
0.537064
0.55844
0.580479
0.603189
0.626581
0.650665
0.675455
0.700965
0.727208
0.754202
0.781963
0.810508
0.839855
0.870022
0.901026
0.932883
0.965611
0.999225
1.03374
1.06917
1.10552
1.14281
1.18104
1.22022
1.26036
1.30145
1.3435
1.3865
1.43045
1.47533
1.52114
1.56786
1.61547
1.66396
1.71329
1.76344
1.81439
1.86608
1.91849
1.97158
2.02531
2.07962
2.13448
2.18982
2.2456
2.30177
2.35827
2.41504
2.47204
2.5292
2.58647
2.64381
2.70114
2.75843
2.81561
2.87262
2.92942
2.98595
3.04211
3.09771
3.15271
3.20707
3.26076
3.31372
3.36588
3.41718
3.46757
3.51697
3.56531
3.61253
3.65857
3.70338
3.74688
3.78902
3.82975
3.86901
3.90674
3.94291
3.97746
4.01034
4.04152
4.07095
4.09858
4.12439
4.14834
4.17042
4.19061
4.20887
4.22521
4.23961
4.25206
4.26254
4.27105
4.2776
4.28219
4.28484
4.28555
4.28434
4.28122
4.27623
4.26938
4.26072
4.25026
4.23804
4.2241
4.20849
4.19126
4.17243
4.15206
4.1302
4.10692
4.08225
4.05625
4.02899
4.00052
3.9709
3.94019
3.90845
3.87575
3.84215
3.80771
3.7725
3.73657
3.69999
3.66283
3.62515
3.58701
3.54848
3.50962
3.47051
3.43123
3.39183
3.35239
3.313
3.27375
3.23476
3.19614
3.15807
3.12073
3.08434
3.04913
3.01532
2.98279
2.95162
0.0384109
0.0779073
0.0986583
0.113367
0.12539
0.135946
0.145635
0.15481
0.163703
0.172477
0.181252
0.190116
0.199139
0.208371
0.217857
0.22763
0.237724
0.248166
0.258985
0.270209
0.281862
0.29397
0.306559
0.319649
0.333264
0.347421
0.362139
0.377433
0.393318
0.409806
0.42691
0.44464
0.463007
0.482021
0.501693
0.522034
0.543054
0.564767
0.587185
0.610321
0.634191
0.65881
0.684196
0.710365
0.737339
0.765135
0.793776
0.823281
0.853674
0.884974
0.917203
0.950381
0.98453
1.01967
1.05581
1.09297
1.13117
1.17042
1.21072
1.25209
1.29453
1.33804
1.38262
1.42828
1.47499
1.52275
1.57156
1.62138
1.67221
1.72401
1.77675
1.83041
1.88496
1.94034
1.99652
2.05345
2.11108
2.16937
2.22825
2.28767
2.34757
2.40788
2.46855
2.52951
2.5907
2.65206
2.71353
2.77505
2.83656
2.89801
2.95932
3.02045
3.08133
3.14189
3.2019
3.26129
3.32004
3.37808
3.43537
3.49184
3.54743
3.60208
3.6557
3.70822
3.75957
3.80969
3.85851
3.90598
3.95202
3.99657
4.03959
4.08101
4.12077
4.15883
4.19515
4.22967
4.26236
4.29316
4.32202
4.34891
4.37381
4.39671
4.41757
4.43638
4.45313
4.4678
4.48041
4.49092
4.49932
4.50563
4.50987
4.51204
4.51216
4.51025
4.50633
4.50043
4.49257
4.4828
4.47113
4.45762
4.4423
4.42522
4.40643
4.38597
4.3639
4.34027
4.31514
4.28856
4.26059
4.2313
4.20075
4.16899
4.1361
4.10214
4.06716
4.03125
3.99446
3.95686
3.91852
3.8795
3.83986
3.79968
3.75901
3.71794
3.67652
3.63483
3.59295
3.55095
3.50891
3.46693
3.4251
3.38354
3.34239
3.30182
3.262
3.22316
3.18551
3.14923
3.11418
3.08048
0.0390767
0.0790714
0.100045
0.114913
0.127055
0.137698
0.147444
0.156647
0.165542
0.174293
0.183026
0.191835
0.200792
0.209957
0.219375
0.229087
0.239125
0.249521
0.260301
0.271493
0.283121
0.295209
0.307781
0.320858
0.334461
0.34861
0.363322
0.378616
0.394507
0.41101
0.428142
0.445917
0.464349
0.483453
0.503244
0.523738
0.544951
0.5669
0.589602
0.613076
0.637342
0.662421
0.688334
0.715104
0.742754
0.77131
0.800795
0.831236
0.862658
0.895086
0.928546
0.96306
0.998654
1.03535
1.07316
1.11212
1.15222
1.1935
1.23595
1.27959
1.32441
1.37043
1.41764
1.46603
1.5156
1.56633
1.61822
1.67123
1.72534
1.78052
1.83674
1.89397
1.95215
2.01125
2.07122
2.132
2.19354
2.25578
2.31865
2.3821
2.44605
2.51043
2.57517
2.64019
2.70545
2.77086
2.83636
2.9019
2.96739
3.03279
3.09803
3.16305
3.22777
3.29198
3.35555
3.41846
3.48065
3.54205
3.60261
3.66225
3.72093
3.77856
3.83507
3.89035
3.94435
3.99699
4.04822
4.09797
4.14617
4.19277
4.2377
4.28091
4.32234
4.36194
4.39967
4.43549
4.46937
4.50122
4.53099
4.55866
4.58422
4.60764
4.62891
4.648
4.66492
4.67964
4.69218
4.7025
4.71062
4.71655
4.72029
4.72187
4.72129
4.71859
4.71379
4.70691
4.69799
4.68707
4.67417
4.65936
4.64266
4.62413
4.60381
4.58177
4.55805
4.53271
4.50582
4.47742
4.44758
4.41638
4.38386
4.35009
4.31515
4.2791
4.24201
4.20394
4.16496
4.12515
4.08456
4.04327
4.00134
3.95885
3.91585
3.87241
3.82862
3.78455
3.74027
3.69586
3.65141
3.60702
3.56279
3.51884
3.47532
3.43239
3.39024
3.34906
3.30906
3.2704
3.23291
3.19677
0.039255
0.079486
0.100527
0.115443
0.127615
0.138273
0.148017
0.1572
0.166057
0.174755
0.183418
0.192144
0.201009
0.210073
0.219386
0.228989
0.238918
0.249202
0.259872
0.270952
0.282468
0.294444
0.306903
0.319866
0.333356
0.347393
0.361998
0.37719
0.392988
0.409412
0.426481
0.444213
0.462629
0.481747
0.501589
0.522174
0.543525
0.565664
0.588615
0.6124
0.637045
0.662576
0.68902
0.716404
0.744759
0.774112
0.804493
0.835932
0.868459
0.902103
0.936892
0.972853
1.01001
1.04839
1.08802
1.12892
1.17109
1.21456
1.25932
1.30539
1.35277
1.40146
1.45145
1.50274
1.55532
1.60916
1.66425
1.72056
1.77806
1.83671
1.89647
1.95731
2.01916
2.08199
2.14572
2.21031
2.27569
2.3418
2.40856
2.47592
2.54377
2.61204
2.68064
2.74951
2.81857
2.88777
2.95701
3.02625
3.09541
3.16443
3.23324
3.30178
3.36982
3.43722
3.50393
3.5699
3.63506
3.69934
3.76268
3.82501
3.88626
3.94639
4.0053
4.06284
4.11896
4.17362
4.22674
4.27827
4.32814
4.37628
4.42264
4.46717
4.5098
4.55049
4.58918
4.62585
4.66044
4.6929
4.72319
4.75129
4.77716
4.80079
4.82216
4.84125
4.85807
4.87259
4.88483
4.89476
4.90241
4.90777
4.91086
4.91171
4.91032
4.90673
4.90096
4.89304
4.88302
4.87092
4.85679
4.84068
4.82262
4.80268
4.7809
4.75735
4.73206
4.70512
4.67657
4.64648
4.61491
4.58194
4.54762
4.51202
4.47521
4.43727
4.39825
4.35823
4.31728
4.27547
4.23287
4.18954
4.14555
4.10097
4.05588
4.01033
3.96441
3.91819
3.87175
3.82518
3.77856
3.73199
3.68559
3.63947
3.59378
3.54868
3.50436
3.46102
3.41881
3.3779
3.33812
3.29966
0.03903
0.0792794
0.100257
0.115123
0.127247
0.137851
0.147535
0.15665
0.165428
0.174037
0.1826
0.191215
0.199958
0.208891
0.218063
0.227518
0.23729
0.247413
0.257913
0.26882
0.280157
0.29195
0.304224
0.317002
0.330308
0.344164
0.358596
0.373625
0.389275
0.40557
0.422534
0.44019
0.458564
0.477682
0.497571
0.518256
0.539768
0.562133
0.585383
0.609545
0.63465
0.660731
0.687819
0.715948
0.745152
0.775465
0.806922
0.839555
0.873398
0.908482
0.944839
0.982498
1.02149
1.06183
1.10355
1.14667
1.1912
1.23716
1.28453
1.33331
1.38351
1.43513
1.48815
1.54257
1.59836
1.65549
1.71395
1.77369
1.83468
1.89687
1.96022
2.02467
2.09017
2.15666
2.22407
2.29234
2.36139
2.43116
2.50157
2.57259
2.64407
2.71589
2.78799
2.86031
2.93277
3.00529
3.07782
3.15027
3.22259
3.2947
3.36656
3.43788
3.50856
3.57854
3.64775
3.71612
3.78359
3.85008
3.91553
3.97985
4.04298
4.10486
4.1654
4.22449
4.28208
4.33809
4.39246
4.44514
4.49604
4.54513
4.59232
4.63758
4.68085
4.72207
4.76121
4.79821
4.83305
4.86567
4.89604
4.92412
4.9499
4.97336
4.99448
5.01324
5.02965
5.04369
5.05537
5.06468
5.07163
5.07624
5.07852
5.07849
5.07617
5.0716
5.06479
5.05578
5.04462
5.03134
5.01599
4.99861
4.97925
4.95797
4.93482
4.90985
4.88313
4.85472
4.82467
4.79306
4.75995
4.72541
4.6895
4.65229
4.61385
4.57425
4.53357
4.49186
4.44921
4.40568
4.36133
4.31625
4.27049
4.22413
4.17723
4.12987
4.08212
4.03405
3.98575
3.93731
3.8888
3.84034
3.79203
3.744
3.6964
3.64938
3.60312
3.55781
3.51361
3.47065
3.42877
3.38818
0.0384924
0.0785777
0.09938
0.114114
0.126118
0.136608
0.146177
0.155176
0.163836
0.17232
0.180752
0.189227
0.197821
0.206595
0.215598
0.224872
0.234454
0.244377
0.25467
0.265362
0.276481
0.288053
0.300105
0.312665
0.325758
0.339414
0.35366
0.368525
0.384036
0.400223
0.417115
0.434745
0.453143
0.472344
0.492381
0.51329
0.535106
0.557868
0.581612
0.606374
0.632184
0.659081
0.687105
0.716294
0.746689
0.778326
0.811243
0.845476
0.88106
0.918026
0.956405
0.996225
1.03751
1.08029
1.12457
1.17039
1.21776
1.26669
1.31711
1.36902
1.42243
1.47734
1.53371
1.59153
1.65078
1.7114
1.77338
1.83666
1.9012
1.96694
2.03382
2.10179
2.17079
2.24073
2.31155
2.38319
2.45555
2.52856
2.60215
2.67623
2.75071
2.82548
2.90046
2.97557
3.05075
3.12592
3.201
3.27594
3.35068
3.42509
3.49893
3.57213
3.64461
3.7163
3.78713
3.85702
3.92591
3.99371
4.06037
4.1258
4.18994
4.25271
4.31404
4.37385
4.43206
4.48861
4.54343
4.59647
4.64765
4.69693
4.74425
4.78954
4.83278
4.87389
4.91285
4.94961
4.98412
5.01637
5.0463
5.07389
5.09913
5.12199
5.14246
5.16053
5.17619
5.18944
5.20029
5.20873
5.21477
5.21843
5.21973
5.21869
5.21534
5.20969
5.20179
5.19167
5.17937
5.16493
5.1484
5.12982
5.10925
5.08674
5.06235
5.03613
5.00814
4.97845
4.94712
4.91422
4.8798
4.84394
4.80671
4.76817
4.7284
4.68745
4.64541
4.60235
4.55832
4.5134
4.46766
4.42117
4.37399
4.3262
4.27786
4.22904
4.17981
4.13025
4.08045
4.03048
3.98043
3.93041
3.88053
3.83091
3.7817
3.73305
3.68513
3.63813
3.59218
3.54742
3.50368
3.4612
0.0377016
0.0774637
0.0979908
0.112515
0.124333
0.134648
0.14405
0.152886
0.161384
0.169707
0.177975
0.186281
0.194699
0.203287
0.212096
0.221168
0.230538
0.240243
0.250314
0.260781
0.271677
0.283032
0.294876
0.307243
0.320164
0.333676
0.347812
0.362611
0.378105
0.39433
0.411325
0.42913
0.447788
0.467341
0.487834
0.509311
0.531821
0.555413
0.580143
0.606048
0.633135
0.661461
0.691072
0.722015
0.754329
0.788054
0.823225
0.859878
0.898041
0.937741
0.979003
1.02185
1.06628
1.11233
1.15999
1.20928
1.26018
1.31268
1.36675
1.42238
1.47953
1.53819
1.59831
1.65987
1.72282
1.78712
1.85271
1.91955
1.98757
2.05671
2.12691
2.1981
2.27021
2.34317
2.41689
2.4913
2.56633
2.64188
2.71789
2.79425
2.87089
2.94772
3.02464
3.1016
3.17851
3.2553
3.33192
3.4083
3.48421
3.55952
3.63416
3.70807
3.78117
3.85338
3.92463
3.99485
4.06398
4.13193
4.19864
4.26403
4.32805
4.39062
4.45166
4.51112
4.56891
4.62498
4.67926
4.7317
4.78223
4.83081
4.87737
4.92187
4.96426
5.0045
5.04254
5.07834
5.11188
5.14311
5.17201
5.19856
5.22272
5.24449
5.26386
5.28081
5.29534
5.30745
5.31714
5.32443
5.32932
5.33182
5.33196
5.32976
5.32525
5.31845
5.3094
5.29813
5.2847
5.26913
5.25148
5.23179
5.21011
5.18651
5.16103
5.13374
5.10469
5.07395
5.04157
5.00763
4.97219
4.93531
4.89706
4.85751
4.81673
4.77478
4.73174
4.68767
4.64264
4.59671
4.54996
4.50245
4.45425
4.40542
4.35602
4.30614
4.25583
4.20517
4.15425
4.10314
4.05193
4.00072
3.94963
3.89877
3.84829
3.79833
3.74906
3.70066
3.65325
3.60698
3.56166
3.51757
0.0368866
0.0762009
0.0963719
0.110621
0.122196
0.132287
0.14148
0.150117
0.158425
0.166564
0.174652
0.182778
0.191016
0.199423
0.208049
0.216938
0.22613
0.235661
0.245569
0.255889
0.266659
0.277918
0.289702
0.30205
0.315005
0.328612
0.342924
0.357998
0.373868
0.390563
0.408144
0.426667
0.446188
0.466763
0.488447
0.511296
0.535366
0.560712
0.587386
0.615434
0.644892
0.675804
0.708213
0.742156
0.777666
0.814774
0.853503
0.893872
0.935896
0.979583
1.02494
1.07196
1.12064
1.17097
1.22293
1.27651
1.33168
1.3884
1.44664
1.50636
1.56751
1.63006
1.69394
1.75912
1.82554
1.89315
1.96188
2.03168
2.10249
2.17423
2.24685
2.32027
2.39442
2.46923
2.54462
2.62053
2.69687