/*--------------------------------*- C++ -*----------------------------------*\
  =========                 |
  \\      /  F ield         | OpenFOAM: The Open Source CFD Toolbox
   \\    /   O peration     | Website:  https://openfoam.org
    \\  /    A nd           | Version:  12
     \\/     M anipulation  |
\*---------------------------------------------------------------------------*/
FoamFile
{
    format      ascii;
    class       volScalarField;
    location    "0.14";
    object      nut;
}
// * * * * * * * * * * * * * * * * * * * * * * * * * * * * * * * * * * * * * //

dimensions      [0 2 -1 0 0 0 0];

internalField   nonuniform List<scalar> 
12225
(
4.04768e-05
3.83178e-05
3.62504e-05
3.44199e-05
3.2952e-05
3.18978e-05
3.12564e-05
3.09941e-05
3.10587e-05
3.13911e-05
3.19326e-05
3.26295e-05
3.34354e-05
3.43118e-05
3.52297e-05
3.61647e-05
3.71226e-05
3.8511e-05
0.000281048
0.000209265
0.000176266
0.000157438
0.00014627
0.000139686
0.000135792
0.000133429
0.000131915
0.000130858
0.000130043
0.000129357
0.000128739
0.000128162
0.000127623
0.00012708
0.000126689
0.000125721
0.000556047
0.000419906
0.000349813
0.000304733
0.000272445
0.00024798
0.000228762
0.000213296
0.000200666
0.000190264
0.000181647
0.000174478
0.000168487
0.000163452
0.000159199
0.00015554
0.000152391
0.000149304
0.000740308
0.00062582
0.000544114
0.000484996
0.000439767
0.000403645
0.000373834
0.000348596
0.000326843
0.000307878
0.000291226
0.000276542
0.000263554
0.000252032
0.00024178
0.000232579
0.00022427
0.000216563
0.000817069
0.000759141
0.000700544
0.000648575
0.000603893
0.000565577
0.000532465
0.000503502
0.000477864
0.000454942
0.00043429
0.000415572
0.000398531
0.000382953
0.000368659
0.000355462
0.000343215
0.000331816
0.0008421
0.000819687
0.000789923
0.000757604
0.00072555
0.000695158
0.000666958
0.000641007
0.000617162
0.000595221
0.000574982
0.000556256
0.000538879
0.000522703
0.000507597
0.00049343
0.000480097
0.000467643
0.000849261
0.000841808
0.000829741
0.000814187
0.000796478
0.000777757
0.000758844
0.000740248
0.000722258
0.00070502
0.000688594
0.000672987
0.000658178
0.000644129
0.000630791
0.00061811
0.000606042
0.000594716
0.00085112
0.000848747
0.00084448
0.000838236
0.000830245
0.000820893
0.000810595
0.000799717
0.000788547
0.000777303
0.00076614
0.000755165
0.000744446
0.000734027
0.000723928
0.00071416
0.000704735
0.000695805
0.00085156
0.000850665
0.00084917
0.000846886
0.00084374
0.000839757
0.000835032
0.000829691
0.00082387
0.000817699
0.00081129
0.000804737
0.000798117
0.000791491
0.000784905
0.000778394
0.000771996
0.000765848
0.000851652
0.000851133
0.000850468
0.000849564
0.000848347
0.000846771
0.000844825
0.000842518
0.000839881
0.000836954
0.000833784
0.000830416
0.000826893
0.000823256
0.000819539
0.000815775
0.000811996
0.0008083
0.000851668
0.00085123
0.000850778
0.000850278
0.000849697
0.000849006
0.000848182
0.00084721
0.000846086
0.000844811
0.000843395
0.000841848
0.000840186
0.000838424
0.000836578
0.000834665
0.000832705
0.000830753
0.000851669
0.000851245
0.000850835
0.000850429
0.000850013
0.000849575
0.0008491
0.000848579
0.000848001
0.000847363
0.000846662
0.000845898
0.000845073
0.000844192
0.00084326
0.000842282
0.00084127
0.000840255
0.000851668
0.000851244
0.000850843
0.000850459
0.000850088
0.000849725
0.000849365
0.000849001
0.000848628
0.000848242
0.000847839
0.000847418
0.000846977
0.000846515
0.000846033
0.000845532
0.000845016
0.000844504
0.000851667
0.000851242
0.000850839
0.000850458
0.000850096
0.000849751
0.00084942
0.000849101
0.000848792
0.00084849
0.000848193
0.0008479
0.000847609
0.000847319
0.000847029
0.000846739
0.00084645
0.000846176
0.000851666
0.000851239
0.000850835
0.000850452
0.00085009
0.000849746
0.000849419
0.000849108
0.000848811
0.000848528
0.000848256
0.000847995
0.000847745
0.000847503
0.000847271
0.000847046
0.000846831
0.000846636
0.000851665
0.000851236
0.000850831
0.000850447
0.000850083
0.000849737
0.000849409
0.000849098
0.000848801
0.000848519
0.00084825
0.000847994
0.00084775
0.000847516
0.000847294
0.000847081
0.000846881
0.000846702
0.000851664
0.000851235
0.000850828
0.000850442
0.000850077
0.00084973
0.000849401
0.000849088
0.00084879
0.000848507
0.000848237
0.00084798
0.000847735
0.000847502
0.000847279
0.000847067
0.000846866
0.000846689
0.000851663
0.000851234
0.000850826
0.00085044
0.000850073
0.000849725
0.000849395
0.000849081
0.000848782
0.000848498
0.000848227
0.000847969
0.000847723
0.000847488
0.000847264
0.000847051
0.000846849
0.00084667
0.000851663
0.000851233
0.000850825
0.000850439
0.000850072
0.000849724
0.000849393
0.000849078
0.000848779
0.000848494
0.000848223
0.000847964
0.000847717
0.000847482
0.000847257
0.000847042
0.00084684
0.00084666
0.000851664
0.000851234
0.000850826
0.00085044
0.000850074
0.000849726
0.000849396
0.000849082
0.000848783
0.000848497
0.000848226
0.000847966
0.000847718
0.000847481
0.000847255
0.000847038
0.000846833
0.000846651
0.000851664
0.000851235
0.000850829
0.000850443
0.000850078
0.00084973
0.000849399
0.000849083
0.00084878
0.00084849
0.00084821
0.000847941
0.00084768
0.000847428
0.000847184
0.000846946
0.000846717
0.000846508
0.000851665
0.000851237
0.00085083
0.000850442
0.000850069
0.000849706
0.000849351
0.000848999
0.000848648
0.000848294
0.000847935
0.000847571
0.0008472
0.000846821
0.000846434
0.000846041
0.000845644
0.000845255
0.000851664
0.000851228
0.000850794
0.000850348
0.00084987
0.000849345
0.000848762
0.000848111
0.000847389
0.000846594
0.000845729
0.000844798
0.000843808
0.000842764
0.000841675
0.000840547
0.000839392
0.000838231
0.000851634
0.000851073
0.000850343
0.000849363
0.00084808
0.000846468
0.000844532
0.000842293
0.000839787
0.000837054
0.000834138
0.000831078
0.000827914
0.000824678
0.0008214
0.000818106
0.000814818
0.000811585
0.000851287
0.000849596
0.000846721
0.000842578
0.000837263
0.00083098
0.000823973
0.000816473
0.000808677
0.000800742
0.000792789
0.000784908
0.000777165
0.000769605
0.000762257
0.000755141
0.000748271
0.000741702
0.000848318
0.000839426
0.000826161
0.000810018
0.000792359
0.000774227
0.000756321
0.000739044
0.000722594
0.00070705
0.000692426
0.000678692
0.000665803
0.000653703
0.000642338
0.000631652
0.000621597
0.000612184
0.000828548
0.000788843
0.000746034
0.000705702
0.000669462
0.000637498
0.000609441
0.000584734
0.000562838
0.000543299
0.000525746
0.000509881
0.000495463
0.000482297
0.000470224
0.000459114
0.000448861
0.000439416
0.000730726
0.000627345
0.000554506
0.000501058
0.000460316
0.000428344
0.000402629
0.000381464
0.000363704
0.000348574
0.000335528
0.000324169
0.000314198
0.000305387
0.000297555
0.000290557
0.000284275
0.000278625
0.000439249
0.000338471
0.000287935
0.000256868
0.000236361
0.00022251
0.000212993
0.000206311
0.000201505
0.000197959
0.000195271
0.000193177
0.000191499
0.000190117
0.000188947
0.000187933
0.000187036
0.00018621
7.16431e-05
6.90587e-05
6.65522e-05
6.41646e-05
6.19883e-05
6.00783e-05
5.84564e-05
5.71211e-05
5.60568e-05
5.52399e-05
5.4643e-05
5.42386e-05
5.39998e-05
5.39017e-05
5.39218e-05
5.40399e-05
5.42387e-05
5.45019e-05
5.49438e-07
1.17483e-05
1.86181e-05
2.48497e-05
3.14327e-05
3.88036e-05
4.70934e-05
5.64704e-05
6.67741e-05
7.72105e-05
8.76681e-05
9.80006e-05
0.00010808
0.000117809
0.000127122
0.000135976
0.000144344
0.000152206
0.000159548
0.000166349
0.000172579
0.0001782
0.000183167
0.00018745
0.000191048
0.000194
0.000196356
0.000198126
0.000199277
0.000199735
0.000198747
4.54048e-05
0.00019961
0.000197125
4.57346e-05
0.000198951
4.63481e-05
0.000200585
4.5983e-05
4.67616e-05
4.78064e-05
4.8772e-05
4.97629e-05
5.07656e-05
5.1775e-05
5.27889e-05
5.38058e-05
5.48246e-05
5.58447e-05
5.68658e-05
5.78875e-05
5.89096e-05
5.99318e-05
6.09538e-05
6.19754e-05
6.29963e-05
6.40162e-05
6.50347e-05
6.60516e-05
6.70665e-05
6.8079e-05
6.90886e-05
7.0095e-05
7.10977e-05
7.20962e-05
7.30901e-05
7.4079e-05
7.50622e-05
7.60393e-05
7.70099e-05
7.79734e-05
7.89293e-05
7.98771e-05
8.08164e-05
8.17465e-05
8.26671e-05
8.35776e-05
8.44776e-05
8.53666e-05
8.62441e-05
8.71097e-05
8.79629e-05
8.88033e-05
8.96305e-05
9.0444e-05
9.12435e-05
9.20285e-05
9.27987e-05
9.35535e-05
9.42926e-05
9.50156e-05
9.57221e-05
9.64117e-05
9.7084e-05
9.77388e-05
9.83762e-05
9.89964e-05
9.96006e-05
0.000100191
0.000100769
0.000101325
0.00010186
0.000102373
0.000102866
0.000103336
0.000103785
0.000104211
0.000104615
0.000104996
0.000105353
0.000105686
0.000105996
0.000106281
0.000106542
0.000106777
0.000106988
0.000107174
0.000107334
0.000107469
0.000107578
0.000107662
0.00010772
0.000107752
0.000107759
0.000107739
0.000107695
0.000107624
0.000107529
0.000107407
0.000107261
0.00010709
0.000106894
0.000106673
0.000106428
0.000106159
0.000105867
0.000105551
0.000105213
0.000104851
0.000104468
0.000104063
0.000103637
0.00010319
0.000102723
0.000102237
0.000101731
0.000101207
0.000100665
0.000100106
9.95305e-05
9.89388e-05
9.83319e-05
9.77104e-05
9.7075e-05
9.64264e-05
9.57655e-05
9.50927e-05
9.4409e-05
9.37151e-05
9.30113e-05
9.23001e-05
9.15792e-05
9.08546e-05
9.01317e-05
8.94954e-05
8.9074e-05
8.86727e-05
8.82702e-05
8.78652e-05
8.74579e-05
8.70484e-05
8.66366e-05
8.62219e-05
8.5803e-05
8.53768e-05
8.49363e-05
8.44661e-05
8.39254e-05
8.32105e-05
8.19035e-05
1.70041e-06
3.36551e-05
7.05898e-05
9.76946e-05
0.000117172
0.000131702
0.000144021
0.000155635
0.000167236
0.000179014
0.000190908
0.000202768
0.000214435
0.000225772
0.00023667
0.000247042
0.000256816
0.000265926
0.000274295
0.000281833
0.000288425
0.000293938
0.000298235
0.000301212
0.000302819
0.000303053
0.00030188
0.000299187
0.000294886
0.000288941
0.000280107
0.000261393
0.000271349
0.000262377
0.000254679
0.000261697
0.000255773
0.000263844
0.000259459
0.00026457
0.000271124
0.000277292
0.000283305
0.000289646
0.000296247
0.000303046
0.000310002
0.00031709
0.000324295
0.000331609
0.000339028
0.000346547
0.000354167
0.000361886
0.000369704
0.000377621
0.000385638
0.000393752
0.000401965
0.000410275
0.000418682
0.000427183
0.000435777
0.000444462
0.000453236
0.000462095
0.000471036
0.000480055
0.00048915
0.000498315
0.000507546
0.000516838
0.000526187
0.000535586
0.000545032
0.000554517
0.000564037
0.000573585
0.000583157
0.000592745
0.000602345
0.000611951
0.000621558
0.000631159
0.00064075
0.000650326
0.000659881
0.000669412
0.000678914
0.000688381
0.000697811
0.000707196
0.000716531
0.000725808
0.000735012
0.000744123
0.000753105
0.000761904
0.000770432
0.000778291
0.000785977
0.000793544
0.000800993
0.000808321
0.000815522
0.00082259
0.00082952
0.000836306
0.000842941
0.000849422
0.000855742
0.000861896
0.00086788
0.000873687
0.000879314
0.000884756
0.000890009
0.000895068
0.00089993
0.000904591
0.000909047
0.000913296
0.000917335
0.000921161
0.000924771
0.000928163
0.000931336
0.000934287
0.000937016
0.00093952
0.0009418
0.000943855
0.000945684
0.000947288
0.000948666
0.00094982
0.000950751
0.000951459
0.000951947
0.000952215
0.000952267
0.000952104
0.00095173
0.000951147
0.000950359
0.00094937
0.000948183
0.000946803
0.000945234
0.00094348
0.000941548
0.000939441
0.000937167
0.000934731
0.000932136
0.000929395
0.000926508
0.000923487
0.000920339
0.000917059
0.00091368
0.000910197
0.000906552
0.000902609
0.000897532
0.000890597
0.000883133
0.000875484
0.000867738
0.000859927
0.000852066
0.000844165
0.000836229
0.000828259
0.000820247
0.000812171
0.000803954
0.000795489
0.000785749
0.000766255
3.19738e-06
5.18966e-05
0.000107247
0.000148726
0.000178858
0.00020136
0.000219174
0.000234386
0.000248318
0.00026169
0.000274812
0.000287749
0.000300452
0.000312825
0.000324765
0.000336179
0.000346984
0.000357104
0.000366469
0.000375006
0.000382646
0.000389333
0.000395047
0.000399829
0.000403798
0.000407137
0.000410041
0.000412689
0.000415284
0.000418112
0.000421401
0.000425208
0.00043138
0.000437301
0.000444508
0.00045314
0.000461927
0.0004722
0.000482695
0.000494778
0.000507792
0.000521235
0.000534911
0.000548858
0.000563069
0.00057753
0.000592224
0.000607138
0.000622265
0.0006376
0.000653138
0.000668878
0.00068482
0.000700961
0.000717302
0.000733841
0.000750577
0.000767509
0.000784633
0.000801948
0.000819448
0.000837131
0.00085499
0.000873021
0.000891215
0.000909567
0.000928067
0.000946709
0.000965481
0.000984374
0.00100338
0.00102248
0.00104168
0.00106095
0.00108028
0.00109967
0.0011191
0.00113856
0.00115803
0.00117751
0.00119698
0.00121642
0.00123583
0.0012552
0.00127451
0.00129374
0.0013129
0.00133196
0.00135092
0.00136975
0.00138846
0.00140701
0.00142539
0.00144359
0.00146156
0.00147928
0.00149671
0.0015138
0.00153023
0.00154621
0.00156189
0.00157732
0.0015925
0.00160742
0.00162208
0.00163644
0.00165052
0.00166429
0.00167774
0.00169087
0.00170365
0.00171609
0.00172816
0.00173987
0.00175119
0.00176213
0.00177266
0.00178279
0.00179251
0.00180181
0.00181067
0.0018191
0.00182709
0.00183464
0.00184173
0.00184837
0.00185455
0.00186027
0.00186552
0.0018703
0.00187462
0.00187846
0.00188183
0.00188474
0.00188717
0.00188914
0.00189064
0.00189168
0.00189225
0.00189237
0.00189204
0.00189127
0.00189005
0.0018884
0.00188632
0.00188382
0.00188091
0.0018776
0.0018739
0.00186981
0.00186535
0.00186052
0.00185535
0.00184985
0.00184401
0.00183787
0.00183143
0.00182471
0.00181773
0.0018105
0.00180304
0.00179536
0.00178733
0.00177876
0.00176897
0.00175746
0.00174511
0.00173234
0.00171931
0.00170612
0.00169278
0.00167933
0.00166578
0.00165214
0.00163836
0.0016244
0.00161004
0.00159478
0.00157667
0.00154696
4.90289e-06
6.49818e-05
0.000133382
0.000185964
0.000225129
0.000254671
0.000277762
0.000296792
0.000313427
0.000328728
0.000343298
0.000357426
0.000371211
0.000384653
0.000397705
0.000410309
0.000422413
0.000433974
0.000444962
0.000455362
0.000465178
0.000474442
0.000483226
0.000491651
0.000499891
0.000508154
0.000516649
0.000525564
0.000535066
0.000545317
0.000556432
0.000568478
0.00058152
0.000595377
0.000610134
0.000625727
0.000642084
0.00065926
0.000677178
0.000695854
0.000715128
0.000734822
0.000754827
0.000775113
0.000795676
0.000816515
0.00083763
0.000859019
0.000880681
0.000902616
0.000924823
0.000947302
0.000970053
0.000993075
0.00101637
0.00103993
0.00106375
0.00108784
0.00111219
0.00113678
0.00116163
0.00118671
0.00121203
0.00123756
0.00126331
0.00128925
0.00131538
0.00134169
0.00136816
0.00139477
0.00142152
0.00144838
0.00147533
0.00150237
0.00152947
0.00155661
0.00158379
0.00161097
0.00163814
0.00166529
0.00169239
0.00171943
0.00174639
0.00177325
0.00179999
0.0018266
0.00185306
0.00187935
0.00190546
0.00193135
0.00195702
0.00198245
0.0020076
0.00203245
0.00205697
0.00208113
0.00210489
0.00212819
0.00215087
0.00217309
0.00219493
0.00221642
0.00223756
0.00225833
0.00227873
0.00229872
0.00231831
0.00233748
0.0023562
0.00237446
0.00239226
0.00240957
0.00242638
0.00244268
0.00245845
0.00247368
0.00248837
0.0025025
0.00251605
0.00252902
0.0025414
0.00255318
0.00256435
0.00257491
0.00258485
0.00259416
0.00260283
0.00261087
0.00261826
0.00262501
0.0026311
0.00263655
0.00264135
0.0026455
0.002649
0.00265186
0.00265406
0.00265563
0.00265655
0.00265684
0.00265651
0.00265555
0.00265398
0.00265181
0.00264904
0.00264568
0.00264175
0.00263725
0.0026322
0.00262661
0.0026205
0.00261388
0.00260677
0.00259918
0.00259113
0.00258264
0.00257374
0.00256443
0.00255476
0.00254473
0.00253433
0.00252358
0.00251238
0.00250057
0.00248773
0.00247359
0.00245859
0.00244304
0.00242712
0.00241093
0.00239452
0.00237793
0.00236119
0.0023443
0.00232724
0.00230991
0.00229205
0.00227297
0.00225053
0.00221822
6.54692e-06
7.54435e-05
0.000153914
0.000215722
0.000262562
0.000298251
0.000326127
0.000348789
0.000368132
0.000385458
0.000401596
0.000417028
0.000432004
0.000446634
0.00046095
0.000474953
0.000488635
0.000501995
0.000515045
0.000527817
0.000540362
0.000552756
0.000565104
0.00057754
0.000590222
0.000603317
0.000616982
0.000631348
0.000646516
0.000662554
0.000679496
0.000697344
0.000716071
0.00073563
0.00075599
0.00077711
0.000798949
0.000821474
0.000844634
0.000868364
0.000892579
0.000917191
0.000942143
0.00096741
0.000992984
0.00101887
0.00104506
0.00107157
0.00109839
0.00112552
0.00115298
0.00118075
0.00120884
0.00123725
0.00126597
0.001295
0.00132434
0.00135399
0.00138392
0.00141415
0.00144465
0.00147543
0.00150646
0.00153774
0.00156925
0.00160097
0.0016329
0.00166501
0.00169729
0.00172972
0.00176228
0.00179495
0.00182771
0.00186053
0.00189341
0.0019263
0.0019592
0.00199208
0.00202491
0.00205768
0.00209036
0.00212294
0.00215538
0.00218768
0.0022198
0.00225173
0.00228344
0.00231492
0.00234614
0.00237709
0.00240774
0.00243806
0.00246804
0.00249766
0.00252687
0.00255567
0.00258404
0.00261178
0.00263898
0.00266572
0.00269202
0.00271791
0.00274338
0.0027684
0.00279298
0.00281709
0.00284072
0.00286384
0.00288643
0.0029085
0.00293
0.00295094
0.00297129
0.00299103
0.00301016
0.00302866
0.0030465
0.00306369
0.00308021
0.00309604
0.00311117
0.0031256
0.00313932
0.0031523
0.00316456
0.00317608
0.00318685
0.00319686
0.00320612
0.00321461
0.00322234
0.00322929
0.00323548
0.0032409
0.00324555
0.00324943
0.00325254
0.00325488
0.00325647
0.0032573
0.00325739
0.00325673
0.00325533
0.00325321
0.00325038
0.00324684
0.00324261
0.0032377
0.00323212
0.00322589
0.00321902
0.00321154
0.00320345
0.00319479
0.00318556
0.0031758
0.00316552
0.00315475
0.0031435
0.0031318
0.00311965
0.00310704
0.00309393
0.0030802
0.00306561
0.00305005
0.00303368
0.00301672
0.00299933
0.00298159
0.00296358
0.00294535
0.00292692
0.00290833
0.00288955
0.0028705
0.00285092
0.00283015
0.00280632
0.00277514
8.03521e-06
8.38419e-05
0.000170639
0.00024019
0.000293653
0.000334808
0.000367085
0.000393213
0.000415248
0.000434669
0.000452481
0.000469333
0.000485614
0.000501544
0.000517242
0.00053277
0.000548168
0.000563473
0.000578727
0.000593987
0.000609323
0.000624824
0.000640591
0.000656739
0.000673389
0.000690659
0.000708651
0.000727445
0.000747092
0.000767615
0.000789014
0.000811268
0.000834341
0.000858194
0.000882783
0.000908065
0.000933995
0.00096053
0.000987619
0.00101521
0.00104324
0.00107167
0.00110046
0.00112959
0.00115906
0.00118886
0.00121899
0.00124947
0.00128029
0.00131145
0.00134295
0.0013748
0.00140699
0.00143953
0.0014724
0.0015056
0.00153913
0.00157299
0.00160715
0.00164162
0.00167638
0.00171142
0.00174672
0.00178228
0.00181807
0.00185408
0.00189029
0.00192668
0.00196323
0.00199993
0.00203674
0.00207364
0.00211062
0.00214764
0.00218469
0.00222173
0.00225876
0.00229572
0.00233262
0.00236941
0.00240608
0.0024426
0.00247894
0.00251509
0.00255102
0.00258671
0.00262213
0.00265727
0.0026921
0.0027266
0.00276076
0.00279454
0.00282793
0.00286091
0.00289346
0.00292554
0.00295714
0.00298812
0.00301856
0.00304853
0.00307804
0.0031071
0.00313569
0.00316381
0.00319144
0.00321855
0.00324514
0.00327117
0.00329665
0.00332153
0.00334581
0.00336948
0.0033925
0.00341487
0.00343656
0.00345757
0.00347787
0.00349746
0.00351631
0.00353441
0.00355175
0.00356833
0.00358412
0.00359912
0.00361332
0.0036267
0.00363927
0.00365102
0.00366193
0.003672
0.00368123
0.00368962
0.00369716
0.00370386
0.0037097
0.00371469
0.00371884
0.00372214
0.0037246
0.00372623
0.00372702
0.00372699
0.00372614
0.00372448
0.00372203
0.00371879
0.00371477
0.00370999
0.00370447
0.00369821
0.00369123
0.00368357
0.00367521
0.00366619
0.00365654
0.00364627
0.00363541
0.00362398
0.003612
0.00359949
0.00358646
0.00357292
0.00355883
0.00354413
0.00352869
0.00351245
0.0034955
0.00347797
0.00345996
0.00344156
0.00342286
0.00340389
0.00338473
0.00336539
0.00334589
0.00332617
0.00330603
0.00328491
0.00326137
0.00323266
9.26417e-06
9.07344e-05
0.000184283
0.000260316
0.000319523
0.000365586
0.00040195
0.000431413
0.000456134
0.000477718
0.000497308
0.000515689
0.000533371
0.00055068
0.000567813
0.000584895
0.000602011
0.000619228
0.000636607
0.000654217
0.00067213
0.000690426
0.000709191
0.000728513
0.000748476
0.000769155
0.000790614
0.000812892
0.000836012
0.000859975
0.000884764
0.000910352
0.000936701
0.000963771
0.000991519
0.0010199
0.00104888
0.0010784
0.00110843
0.00113893
0.00116986
0.00120118
0.00123288
0.00126493
0.00129734
0.0013301
0.00136321
0.00139668
0.0014305
0.00146467
0.0014992
0.00153409
0.00156933
0.00160492
0.00164085
0.00167712
0.00171373
0.00175066
0.00178791
0.00182546
0.0018633
0.00190142
0.00193981
0.00197844
0.0020173
0.00205637
0.00209563
0.00213507
0.00217465
0.00221436
0.00225418
0.00229407
0.00233402
0.002374
0.00241399
0.00245395
0.00249386
0.0025337
0.00257344
0.00261305
0.00265251
0.00269179
0.00273087
0.00276971
0.00280831
0.00284662
0.00288464
0.00292235
0.00295971
0.00299671
0.00303333
0.00306956
0.00310537
0.00314074
0.00317565
0.0032101
0.00324398
0.0032773
0.0033101
0.00334243
0.00337429
0.00340569
0.0034366
0.00346702
0.00349693
0.00352632
0.00355515
0.00358341
0.00361109
0.00363815
0.0036646
0.00369039
0.00371552
0.00373997
0.00376371
0.00378674
0.00380903
0.00383057
0.00385134
0.00387133
0.00389052
0.00390891
0.00392647
0.0039432
0.00395909
0.00397413
0.0039883
0.00400161
0.00401403
0.00402557
0.00403622
0.00404598
0.00405484
0.00406281
0.00406987
0.00407603
0.00408129
0.00408565
0.00408912
0.00409171
0.0040934
0.00409421
0.00409414
0.00409321
0.00409144
0.00408881
0.00408535
0.00408107
0.00407599
0.00407011
0.00406345
0.00405603
0.00404788
0.00403901
0.00402944
0.0040192
0.00400831
0.00399679
0.00398466
0.00397195
0.00395867
0.00394482
0.0039304
0.00391537
0.00389967
0.00388328
0.00386624
0.00384863
0.00383053
0.00381203
0.00379319
0.00377408
0.00375476
0.00373529
0.00371569
0.00369596
0.00367596
0.00365526
0.0036328
0.00360681
1.02736e-05
9.61548e-05
0.000195107
0.000276563
0.000340764
0.000391243
0.000431409
0.000464078
0.000491467
0.000515263
0.000536712
0.000556703
0.000575852
0.000594571
0.000613134
0.000631722
0.000650458
0.000669435
0.00068873
0.000708411
0.000728548
0.000749207
0.000770454
0.00079235
0.000814952
0.000838303
0.000862438
0.000887374
0.000913113
0.000939645
0.000966948
0.000994991
0.00102374
0.00105315
0.00108318
0.0011138
0.00114497
0.00117665
0.00120881
0.00124141
0.00127442
0.00130783
0.00134162
0.00137578
0.00141029
0.00144516
0.00148039
0.00151597
0.00155191
0.00158821
0.00162487
0.00166187
0.00169923
0.00173694
0.00177499
0.00181338
0.00185209
0.00189113
0.00193047
0.00197011
0.00201004
0.00205024
0.0020907
0.0021314
0.00217232
0.00221344
0.00225475
0.00229622
0.00233783
0.00237957
0.00242139
0.0024633
0.00250525
0.00254722
0.00258918
0.00263112
0.002673
0.00271479
0.00275647
0.00279801
0.00283938
0.00288057
0.00292153
0.00296224
0.00300269
0.00304284
0.00308268
0.00312219
0.00316133
0.00320011
0.00323849
0.00327645
0.003314
0.00335109
0.00338772
0.00342387
0.00345946
0.00349453
0.00352912
0.00356325
0.00359691
0.00363012
0.00366284
0.00369507
0.00372679
0.00375798
0.00378862
0.00381868
0.00384814
0.003877
0.00390521
0.00393278
0.00395966
0.00398586
0.00401134
0.00403609
0.00406009
0.00408331
0.00410576
0.0041274
0.00414822
0.00416821
0.00418735
0.00420565
0.00422307
0.00423962
0.00425528
0.00427005
0.0042839
0.00429684
0.00430885
0.00431995
0.00433012
0.00433936
0.00434766
0.00435503
0.00436146
0.00436695
0.00437151
0.00437516
0.00437788
0.00437967
0.00438054
0.00438052
0.00437962
0.00437782
0.00437513
0.00437158
0.00436718
0.00436195
0.0043559
0.00434906
0.00434143
0.00433304
0.00432391
0.00431406
0.00430352
0.00429231
0.00428044
0.00426795
0.00425484
0.00424112
0.00422681
0.00421189
0.00419633
0.00418014
0.00416333
0.00414597
0.00412813
0.00410986
0.00409125
0.00407236
0.00405326
0.00403403
0.00401473
0.00399538
0.00397592
0.00395603
0.00393494
0.00391147
1.10645e-05
0.000100223
0.000203358
0.000289279
0.000357784
0.000412212
0.00045589
0.000491613
0.000521617
0.000547634
0.00057098
0.000592624
0.00061326
0.000633378
0.000653315
0.0006733
0.000693493
0.00071401
0.000734936
0.000756344
0.000778294
0.000800841
0.000824032
0.00084791
0.000872508
0.00089785
0.00092395
0.00095081
0.000978423
0.00100677
0.00103583
0.00106557
0.00109596
0.00112695
0.00115853
0.00119064
0.00122326
0.00125636
0.0012899
0.00132387
0.00135824
0.00139299
0.00142812
0.00146361
0.00149945
0.00153565
0.0015722
0.0016091
0.00164635
0.00168395
0.0017219
0.00176019
0.00179883
0.00183781
0.00187712
0.00191676
0.00195672
0.00199699
0.00203757
0.00207843
0.00211958
0.002161
0.00220267
0.00224457
0.0022867
0.00232903
0.00237155
0.00241423
0.00245706
0.00250001
0.00254307
0.0025862
0.00262938
0.0026726
0.00271582
0.00275902
0.00280216
0.00284523
0.00288819
0.00293102
0.00297368
0.00301615
0.00305841
0.00310042
0.00314217
0.00318361
0.00322475
0.00326554
0.00330597
0.00334603
0.00338569
0.00342495
0.00346377
0.00350216
0.00354009
0.00357752
0.00361446
0.00365094
0.00368698
0.00372257
0.00375773
0.00379243
0.00382667
0.00386043
0.00389369
0.00392642
0.00395861
0.00399022
0.00402125
0.00405167
0.00408145
0.00411058
0.00413903
0.00416678
0.00419382
0.00422013
0.00424567
0.00427045
0.00429442
0.00431758
0.00433991
0.0043614
0.00438203
0.00440179
0.00442067
0.00443866
0.00445576
0.00447193
0.00448717
0.00450147
0.00451483
0.00452725
0.00453873
0.00454926
0.00455883
0.00456743
0.00457507
0.00458175
0.00458747
0.00459227
0.0045961
0.00459897
0.0046009
0.0046019
0.00460198
0.00460113
0.00459938
0.00459674
0.00459323
0.00458885
0.00458362
0.00457756
0.00457069
0.00456303
0.00455459
0.0045454
0.00453548
0.00452485
0.00451353
0.00450155
0.00448891
0.00447564
0.00446175
0.00444724
0.00443211
0.00441636
0.00440003
0.00438315
0.00436578
0.00434799
0.00432984
0.0043114
0.00429277
0.00427403
0.00425526
0.00423652
0.0042178
0.00419889
0.0041792
0.0041579
1.1645e-05
0.000103075
0.000209289
0.000298784
0.000370932
0.000428843
0.000475722
0.000514308
0.000546822
0.000575016
0.000600244
0.000623529
0.000645627
0.000667086
0.000688293
0.000709523
0.000730966
0.000752757
0.000774994
0.00079775
0.00082108
0.000845031
0.000869636
0.000894923
0.00092091
0.000947608
0.000975018
0.00100313
0.00103194
0.00106142
0.00109155
0.0011223
0.00115363
0.00118552
0.00121793
0.00125084
0.00128422
0.00131803
0.00135226
0.00138689
0.0014219
0.00145728
0.00149301
0.00152909
0.00156552
0.00160228
0.00163938
0.00167683
0.00171461
0.00175272
0.00179117
0.00182996
0.00186908
0.00190853
0.0019483
0.0019884
0.00202881
0.00206953
0.00211056
0.00215187
0.00219347
0.00223535
0.00227748
0.00231986
0.00236247
0.00240531
0.00244834
0.00249156
0.00253495
0.00257848
0.00262214
0.00266591
0.00270975
0.00275365
0.00279758
0.00284152
0.00288543
0.00292929
0.00297307
0.00301674
0.00306027
0.00310363
0.00314679
0.00318973
0.00323241
0.0032748
0.00331689
0.00335865
0.00340006
0.00344111
0.00348176
0.00352202
0.00356186
0.00360127
0.00364024
0.00367878
0.00371689
0.0037546
0.00379191
0.00382881
0.00386529
0.00390136
0.00393697
0.00397212
0.00400678
0.00404093
0.00407455
0.00410761
0.00414009
0.00417196
0.00420321
0.00423381
0.00426373
0.00429296
0.00432148
0.00434927
0.00437629
0.00440254
0.00442798
0.00445261
0.0044764
0.00449933
0.0045214
0.0045426
0.0045629
0.00458231
0.00460081
0.00461838
0.004635
0.00465067
0.00466538
0.00467913
0.00469192
0.00470377
0.00471465
0.00472452
0.00473342
0.00474133
0.00474827
0.00475425
0.00475926
0.00476329
0.00476636
0.00476848
0.00476967
0.00476991
0.00476923
0.00476764
0.00476515
0.00476178
0.00475753
0.00475243
0.0047465
0.00473974
0.00473219
0.00472386
0.00471477
0.00470493
0.00469438
0.00468313
0.00467121
0.00465862
0.00464538
0.00463151
0.00461702
0.00460191
0.00458623
0.00457
0.00455328
0.00453613
0.00451861
0.0045008
0.0044828
0.00446471
0.00444662
0.00442862
0.00441074
0.00439284
0.00437448
0.00435501
1.20294e-05
0.000104854
0.000213152
0.000305389
0.000380541
0.000441457
0.000491192
0.000532402
0.000567266
0.00059753
0.000624561
0.000649417
0.000672894
0.000695582
0.000717911
0.00074019
0.000762637
0.000785405
0.000808603
0.000832306
0.00085657
0.000881433
0.000906923
0.000933057
0.000959843
0.000987284
0.00101537
0.0010441
0.00107345
0.0011034
0.00113393
0.00116501
0.0011966
0.0012287
0.00126126
0.00129427
0.00132769
0.00136151
0.00139571
0.00143028
0.0014652
0.00150045
0.00153604
0.00157196
0.00160819
0.00164476
0.00168164
0.00171884
0.00175637
0.00179422
0.00183239
0.0018709
0.00190972
0.00194888
0.00198836
0.00202817
0.0020683
0.00210875
0.00214951
0.00219058
0.00223196
0.00227363
0.00231559
0.00235783
0.00240033
0.00244309
0.00248609
0.00252932
0.00257276
0.0026164
0.00266021
0.00270417
0.00274825
0.00279245
0.00283673
0.00288106
0.00292541
0.00296976
0.00301407
0.00305832
0.00310246
0.00314648
0.00319032
0.00323397
0.00327739
0.00332054
0.00336341
0.00340597
0.00344819
0.00349006
0.00353156
0.00357266
0.00361337
0.00365367
0.00369362
0.00373322
0.00377247
0.00381135
0.00384988
0.00388804
0.00392582
0.00396319
0.00400015
0.00403665
0.00407269
0.00410822
0.00414324
0.00417771
0.00421161
0.00424492
0.0042776
0.00430964
0.00434102
0.0043717
0.00440167
0.00443091
0.00445941
0.00448711
0.00451401
0.00454009
0.00456532
0.0045897
0.0046132
0.00463582
0.00465755
0.00467837
0.0046983
0.00471728
0.00473529
0.00475234
0.00476842
0.00478353
0.00479767
0.00481084
0.00482303
0.00483422
0.00484441
0.00485362
0.00486185
0.00486909
0.00487535
0.00488064
0.00488495
0.00488829
0.00489068
0.00489213
0.00489263
0.00489221
0.00489088
0.00488864
0.00488552
0.00488153
0.00487668
0.00487099
0.00486448
0.00485717
0.00484908
0.00484022
0.00483062
0.00482029
0.00480926
0.00479754
0.00478515
0.00477211
0.00475844
0.00474415
0.00472927
0.00471384
0.00469791
0.00468153
0.00466478
0.00464774
0.0046305
0.00461317
0.00459586
0.00457868
0.00456169
0.00454479
0.00452764
0.0045097
1.22377e-05
0.000105707
0.000215205
0.000309408
0.000386933
0.00045036
0.000502569
0.000546107
0.000583093
0.000615244
0.000643927
0.000670208
0.000694911
0.000718655
0.000741899
0.000764979
0.000788136
0.000811539
0.000835308
0.000859525
0.000884245
0.000909505
0.000935328
0.000961726
0.000988703
0.00101626
0.00104438
0.00107305
0.00110226
0.00113199
0.00116221
0.0011929
0.00122404
0.00125561
0.00128757
0.00131992
0.00135263
0.00138569
0.00141909
0.0014528
0.00148683
0.00152117
0.0015558
0.00159074
0.00162598
0.00166153
0.00169738
0.00173354
0.00177001
0.00180681
0.00184393
0.00188138
0.00191917
0.0019573
0.00199578
0.00203461
0.00207378