/*--------------------------------*- C++ -*----------------------------------*\
  =========                 |
  \\      /  F ield         | OpenFOAM: The Open Source CFD Toolbox
   \\    /   O peration     | Website:  https://openfoam.org
    \\  /    A nd           | Version:  12
     \\/     M anipulation  |
\*---------------------------------------------------------------------------*/
FoamFile
{
    format      ascii;
    class       volScalarField;
    location    "0.14";
    object      p;
}
// * * * * * * * * * * * * * * * * * * * * * * * * * * * * * * * * * * * * * //

dimensions      [0 2 -2 0 0 0 0];

internalField   nonuniform List<scalar> 
12225
(
-1.12322
-3.40617
-4.56854
-4.87658
-5.04466
-5.20415
-5.32843
-5.41648
-5.48564
-5.5461
-5.59963
-5.64601
-5.68547
-5.71723
-5.73999
-5.74295
-5.73577
-5.61963
-4.59072
-5.29279
-5.38292
-5.24772
-5.20748
-5.27454
-5.355
-5.4205
-5.47708
-5.52995
-5.57886
-5.62261
-5.66087
-5.69263
-5.71739
-5.7277
-5.7369
-5.71607
-4.79548
-4.69248
-4.84916
-4.97116
-5.07835
-5.20044
-5.30846
-5.39079
-5.45759
-5.51693
-5.57048
-5.61795
-5.65945
-5.69463
-5.72387
-5.74386
-5.76939
-5.79904
-4.65819
-4.58002
-4.856
-5.03459
-5.12888
-5.2258
-5.32066
-5.3979
-5.46211
-5.51985
-5.57258
-5.61989
-5.6619
-5.6987
-5.73131
-5.75972
-5.79617
-5.84721
-4.66517
-4.68239
-4.92238
-5.07216
-5.14803
-5.23254
-5.32191
-5.39768
-5.46129
-5.51859
-5.57124
-5.61901
-5.66216
-5.7012
-5.73765
-5.77327
-5.81709
-5.87626
-4.72688
-4.7693
-4.947
-5.07761
-5.15545
-5.2378
-5.32388
-5.39845
-5.46174
-5.51884
-5.57156
-5.61991
-5.66428
-5.70551
-5.74537
-5.78623
-5.83454
-5.89604
-4.78665
-4.82613
-4.96245
-5.08454
-5.16678
-5.24633
-5.3278
-5.40041
-5.46318
-5.52003
-5.57277
-5.62166
-5.66718
-5.71036
-5.75297
-5.79739
-5.84809
-5.90882
-4.83983
-4.87469
-4.98491
-5.09743
-5.17985
-5.25559
-5.33235
-5.4028
-5.46494
-5.5215
-5.57424
-5.62362
-5.67018
-5.71499
-5.75968
-5.80629
-5.85778
-5.91619
-4.88966
-4.92136
-5.01208
-5.11278
-5.19272
-5.26504
-5.33762
-5.40578
-5.46707
-5.52324
-5.57589
-5.62564
-5.67303
-5.71907
-5.76515
-5.81284
-5.864
-5.91949
-4.93708
-4.96567
-5.04077
-5.12958
-5.20585
-5.2751
-5.34387
-5.40952
-5.46969
-5.52531
-5.57776
-5.62769
-5.67564
-5.72246
-5.76927
-5.81718
-5.8673
-5.91977
-4.98191
-5.00717
-5.0699
-5.14788
-5.21966
-5.28582
-5.35103
-5.41404
-5.47285
-5.52777
-5.57986
-5.62975
-5.67794
-5.72511
-5.77208
-5.8196
-5.86825
-5.91784
-5.02049
-5.0428
-5.09658
-5.16577
-5.23294
-5.29611
-5.35827
-5.41885
-5.47623
-5.53035
-5.58195
-5.6316
-5.67973
-5.72685
-5.77356
-5.82034
-5.86748
-5.91464
-5.05627
-5.07605
-5.12252
-5.18398
-5.24646
-5.3066
-5.36589
-5.42409
-5.47995
-5.53315
-5.58413
-5.63337
-5.68121
-5.72802
-5.7742
-5.82002
-5.86561
-5.91056
-5.09391
-5.11119
-5.15093
-5.20487
-5.26214
-5.31876
-5.37495
-5.43055
-5.48457
-5.53656
-5.58668
-5.63524
-5.6825
-5.72867
-5.77397
-5.81852
-5.86233
-5.90504
-5.13217
-5.14705
-5.18087
-5.22783
-5.27969
-5.33241
-5.38534
-5.43815
-5.49006
-5.54053
-5.58949
-5.63706
-5.68338
-5.72855
-5.77263
-5.81564
-5.85754
-5.89802
-5.16912
-5.18186
-5.2107
-5.2516
-5.29823
-5.34693
-5.39655
-5.44651
-5.49612
-5.5448
-5.59229
-5.63856
-5.68361
-5.72744
-5.77002
-5.8113
-5.85123
-5.88958
-5.2019
-5.2129
-5.23787
-5.27388
-5.31598
-5.36097
-5.40747
-5.45473
-5.50202
-5.54876
-5.59458
-5.63931
-5.68284
-5.72509
-5.76599
-5.80548
-5.84347
-5.87984
-5.22614
-5.23595
-5.25834
-5.29104
-5.32992
-5.3721
-5.41613
-5.46117
-5.50647
-5.55143
-5.59561
-5.63876
-5.6807
-5.72134
-5.76057
-5.79831
-5.83451
-5.86911
-5.23489
-5.24426
-5.26576
-5.29734
-5.3351
-5.37618
-5.41911
-5.46301
-5.50718
-5.55099
-5.59398
-5.63588
-5.67651
-5.71577
-5.75356
-5.78983
-5.82455
-5.85771
-5.22022
-5.2303
-5.25333
-5.28704
-5.32692
-5.36964
-5.41364
-5.45827
-5.50288
-5.54685
-5.58974
-5.63131
-5.67145
-5.71007
-5.74712
-5.78258
-5.81645
-5.84874
-5.19423
-5.20544
-5.23128
-5.26909
-5.31296
-5.35866
-5.40487
-5.45126
-5.49721
-5.54202
-5.58536
-5.62712
-5.66726
-5.70572
-5.74249
-5.77759
-5.81103
-5.84289
-5.15943
-5.17184
-5.20194
-5.2465
-5.29612
-5.3454
-5.39431
-5.44321
-5.49115
-5.53724
-5.58133
-5.62352
-5.66387
-5.70237
-5.73905
-5.77396
-5.80716
-5.83875
-5.11893
-5.13156
-5.16699
-5.22168
-5.27893
-5.33209
-5.38384
-5.43544
-5.48546
-5.53289
-5.57786
-5.62065
-5.66135
-5.7
-5.73667
-5.7715
-5.80458
-5.83602
-5.07517
-5.08676
-5.12922
-5.19593
-5.26076
-5.31856
-5.37465
-5.42954
-5.4813
-5.52963
-5.57525
-5.61855
-5.65953
-5.69827
-5.73494
-5.76969
-5.80266
-5.83396
-5.02837
-5.03615
-5.09726
-5.17716
-5.24242
-5.30224
-5.36433
-5.42412
-5.47812
-5.52743
-5.57374
-5.61752
-5.65873
-5.69751
-5.73411
-5.76875
-5.80161
-5.83284
-4.98045
-4.95683
-5.0677
-5.17673
-5.23743
-5.29168
-5.35529
-5.41786
-5.47337
-5.52362
-5.57076
-5.61513
-5.65667
-5.6956
-5.73225
-5.76689
-5.79971
-5.83088
-4.97116
-4.82686
-4.98597
-5.15226
-5.23688
-5.29804
-5.36301
-5.42436
-5.47831
-5.52769
-5.57434
-5.61828
-5.65936
-5.69784
-5.73407
-5.76832
-5.80084
-5.8318
-5.11658
-4.8328
-4.8676
-4.99815
-5.11784
-5.22499
-5.31921
-5.39515
-5.45759
-5.51304
-5.56401
-5.61084
-5.65388
-5.69374
-5.73093
-5.76585
-5.799
-5.83101
-5.05338
-5.5531
-5.56328
-5.40411
-5.32325
-5.34759
-5.40188
-5.45146
-5.49675
-5.54151
-5.58537
-5.62703
-5.66613
-5.70287
-5.73744
-5.76995
-5.80064
-5.83137
-1.71471
-3.58529
-4.65663
-4.94977
-5.08471
-5.22159
-5.33365
-5.41381
-5.47695
-5.53317
-5.58468
-5.63158
-5.67441
-5.71393
-5.75054
-5.78426
-5.81475
-5.84022
-6.73687
-6.73675
-6.73709
-6.73788
-6.73897
-6.74032
-6.74194
-6.74388
-6.74615
-6.74878
-6.75181
-6.75528
-6.75924
-6.76373
-6.76881
-6.7745
-6.78087
-6.78794
-6.79576
-6.80437
-6.81381
-6.82411
-6.83532
-6.84745
-6.86053
-6.87461
-6.88981
-6.9063
-6.92399
-6.94294
-6.96405
-6.9882
-7.01207
-7.02633
-7.04873
-7.07315
-7.10105
-7.12957
-7.14544
-7.16594
-7.18919
-7.21553
-7.24263
-7.27017
-7.29842
-7.32723
-7.35654
-7.38623
-7.41622
-7.44644
-7.47679
-7.5072
-7.53758
-7.56785
-7.59792
-7.6277
-7.65708
-7.68596
-7.71424
-7.7418
-7.7685
-7.79424
-7.81886
-7.84223
-7.86421
-7.88464
-7.90336
-7.92022
-7.93504
-7.94765
-7.95789
-7.96556
-7.9705
-7.97251
-7.97141
-7.96703
-7.95916
-7.94763
-7.93224
-7.91282
-7.88918
-7.86114
-7.82852
-7.79115
-7.74885
-7.70146
-7.64882
-7.59076
-7.52714
-7.45782
-7.38264
-7.30148
-7.21423
-7.12076
-7.02098
-6.91483
-6.80234
-6.68348
-6.55798
-6.42578
-6.28646
-6.14022
-5.98711
-5.82716
-5.66038
-5.4868
-5.30646
-5.1194
-4.92569
-4.72542
-4.51868
-4.30558
-4.08626
-3.86087
-3.62955
-3.39249
-3.14989
-2.90193
-2.64885
-2.39086
-2.12822
-1.86118
-1.59001
-1.31497
-1.03635
-0.754455
-0.46957
-0.182006
0.107926
0.399912
0.693632
0.988766
1.28499
1.58199
1.87944
2.17703
2.47443
2.77134
3.06746
3.36248
3.65612
3.94809
4.23812
4.52595
4.81131
5.09397
5.3737
5.65027
5.92348
6.19314
6.45905
6.72106
6.979
7.23274
7.48213
7.72705
7.96741
8.2031
8.43404
8.66015
8.88137
9.09767
9.30901
9.51536
9.71666
9.91274
10.1035
10.2889
10.469
10.6438
10.8133
10.9775
11.1365
11.2902
11.4388
11.5827
11.7228
11.8607
12.0062
12.1602
-6.73531
-6.73557
-6.73603
-6.73666
-6.73725
-6.73777
-6.73838
-6.73926
-6.74055
-6.74228
-6.7445
-6.74722
-6.75047
-6.75427
-6.75866
-6.76367
-6.76934
-6.77572
-6.78283
-6.7907
-6.79937
-6.80885
-6.81913
-6.83022
-6.84215
-6.85498
-6.86871
-6.88319
-6.89837
-6.91448
-6.93122
-6.94707
-6.96106
-6.9863
-7.00806
-7.02992
-7.0501
-7.06777
-7.09778
-7.12903
-7.16142
-7.19135
-7.21972
-7.24826
-7.27709
-7.30619
-7.33558
-7.36524
-7.39513
-7.4252
-7.45538
-7.48561
-7.51583
-7.54594
-7.57587
-7.60552
-7.6348
-7.6636
-7.69183
-7.71936
-7.74607
-7.77184
-7.79654
-7.82002
-7.84213
-7.86274
-7.88167
-7.89878
-7.91389
-7.92683
-7.93744
-7.94552
-7.95091
-7.95342
-7.95286
-7.94905
-7.94181
-7.93095
-7.91627
-7.89761
-7.87477
-7.84758
-7.81586
-7.77943
-7.73812
-7.69177
-7.64022
-7.58331
-7.52089
-7.45282
-7.37895
-7.29917
-7.21334
-7.12135
-7.02309
-6.91843
-6.80728
-6.68958
-6.56493
-6.43333
-6.29526
-6.15052
-5.99901
-5.8407
-5.67558
-5.50368
-5.32502
-5.13965
-4.94764
-4.74905
-4.544
-4.33258
-4.11492
-3.89117
-3.66148
-3.42602
-3.18499
-2.93858
-2.68701
-2.4305
-2.1693
-1.90365
-1.63383
-1.36009
-1.08273
-0.802028
-0.518287
-0.231809
0.0570953
0.348114
0.640929
0.935221
1.23067
1.52696
1.82376
2.12076
2.41765
2.71412
3.00985
3.30456
3.59795
3.88973
4.17963
4.46739
4.75275
5.03546
5.31529
5.59203
5.86545
6.13537
6.40159
6.66395
6.92228
7.17644
7.42629
7.67171
7.91259
8.14883
8.38035
8.60706
8.82892
9.04586
9.25786
9.46489
9.66686
9.8636
10.055
10.2412
10.422
10.5976
10.7678
10.9328
11.0925
11.2472
11.3969
11.5421
11.6841
11.8241
11.9727
12.1203
-6.7311
-6.73242
-6.73378
-6.73497
-6.73576
-6.7363
-6.73682
-6.73753
-6.73858
-6.74006
-6.74201
-6.74449
-6.74751
-6.75111
-6.75533
-6.76018
-6.76572
-6.77196
-6.77895
-6.78671
-6.79526
-6.80462
-6.81481
-6.82585
-6.83776
-6.85059
-6.86438
-6.87908
-6.89463
-6.9111
-6.9284
-6.94616
-6.96444
-6.98531
-7.00739
-7.02923
-7.05176
-7.07406
-7.09893
-7.12481
-7.15172
-7.1789
-7.20629
-7.23415
-7.26241
-7.29102
-7.31993
-7.3491
-7.37851
-7.40808
-7.43778
-7.46754
-7.49728
-7.52694
-7.55644
-7.58568
-7.61457
-7.64302
-7.67092
-7.69815
-7.7246
-7.75014
-7.77464
-7.79796
-7.81996
-7.8405
-7.8594
-7.87652
-7.8917
-7.90476
-7.91552
-7.92382
-7.92948
-7.93231
-7.93213
-7.92876
-7.92201
-7.91169
-7.89763
-7.87964
-7.85753
-7.83112
-7.80025
-7.76473
-7.72439
-7.67908
-7.62861
-7.57285
-7.51164
-7.44482
-7.37228
-7.29386
-7.20945
-7.11893
-7.02218
-6.91909
-6.80949
-6.69318
-6.57049
-6.44094
-6.30474
-6.16183
-6.01218
-5.85576
-5.69256
-5.5226
-5.34589
-5.16249
-4.97245
-4.77584
-4.57275
-4.3633
-4.14761
-3.9258
-3.69804
-3.4645
-3.22535
-2.9808
-2.73105
-2.47633
-2.21687
-1.95293
-1.68476
-1.41262
-1.13681
-0.857598
-0.575288
-0.290178
-0.00257552
0.287209
0.57886
0.87206
1.16649
1.46183
1.75777
2.05398
2.35016
2.64599
2.94117
3.23539
3.52838
3.81983
4.10949
4.39707
4.68232
4.965
5.24487
5.52171
5.7953
6.06544
6.33195
6.59465
6.85337
7.10797
7.35831
7.60427
7.84572
8.08257
8.31473
8.5421
8.76463
8.98225
9.19492
9.40259
9.60519
9.80267
9.99494
10.182
10.3637
10.5401
10.7113
10.8773
11.038
11.1938
11.3447
11.4915
11.6354
11.7771
11.9281
12.0647
-6.72461
-6.72702
-6.72977
-6.73203
-6.73355
-6.7346
-6.73548
-6.73642
-6.73758
-6.73909
-6.74104
-6.74347
-6.74645
-6.75
-6.75417
-6.75898
-6.76446
-6.77065
-6.77758
-6.78527
-6.79374
-6.80301
-6.8131
-6.82403
-6.83582
-6.84849
-6.86207
-6.87656
-6.89193
-6.90818
-6.9253
-6.94325
-6.96213
-6.98212
-7.00321
-7.02496
-7.0475
-7.07081
-7.09517
-7.1204
-7.14628
-7.17266
-7.19951
-7.22682
-7.25455
-7.28265
-7.31108
-7.3398
-7.36876
-7.39791
-7.42721
-7.45657
-7.48595
-7.51527
-7.54444
-7.57338
-7.602
-7.63021
-7.65789
-7.68494
-7.71123
-7.73665
-7.76106
-7.78433
-7.80631
-7.82685
-7.84581
-7.86302
-7.87832
-7.89154
-7.9025
-7.91105
-7.91698
-7.92014
-7.92032
-7.91736
-7.91105
-7.90123
-7.8877
-7.87029
-7.8488
-7.82306
-7.79289
-7.75813
-7.71858
-7.6741
-7.62452
-7.56968
-7.50943
-7.44362
-7.37211
-7.29476
-7.21145
-7.12205
-7.02644
-6.92452
-6.81614
-6.70119
-6.57971
-6.45159
-6.31682
-6.17536
-6.02717
-5.87223
-5.71052
-5.54207
-5.36688
-5.185
-4.99648
-4.8014
-4.59985
-4.39192
-4.17775
-3.95745
-3.73119
-3.49913
-3.26145
-3.01834
-2.77
-2.51667
-2.25857
-1.99595
-1.72907
-1.45819
-1.18358
-0.905538
-0.624349
-0.340312
-0.0537322
0.235081
0.525814
0.818151
1.11177
1.40637
1.70161
1.99719
2.2928
2.58811
2.88284
3.17668
3.46933
3.76051
4.04995
4.33738
4.62253
4.90517
5.18505
5.46195
5.73566
6.00597
6.27269
6.53564
6.79467
7.04961
7.30033
7.5467
7.78859
8.02591
8.25855
8.48645
8.70953
8.92772
9.14096
9.34916
9.55227
9.75025
9.94308
10.1307
10.3131
10.4902
10.662
10.8287
10.9902
11.1467
11.2986
11.4462
11.5911
11.7328
11.8824
12.0063
-6.71741
-6.721
-6.72527
-6.72881
-6.73128
-6.73306
-6.73452
-6.73592
-6.73744
-6.73923
-6.7414
-6.74403
-6.74717
-6.75087
-6.75518
-6.76012
-6.76574
-6.77206
-6.77911
-6.78692
-6.7955
-6.80488
-6.81509
-6.82612
-6.83802
-6.85078
-6.86444
-6.87897
-6.89439
-6.91069
-6.92786
-6.94589
-6.96482
-6.98466
-7.00536
-7.02686
-7.04914
-7.0722
-7.09612
-7.12085
-7.14624
-7.17218
-7.19861
-7.22549
-7.25279
-7.28047
-7.30851
-7.33686
-7.36546
-7.39429
-7.42327
-7.45235
-7.48146
-7.51053
-7.53948
-7.56822
-7.59667
-7.62472
-7.65228
-7.67922
-7.70544
-7.7308
-7.75519
-7.77846
-7.80046
-7.82106
-7.84009
-7.85741
-7.87284
-7.88622
-7.89737
-7.90613
-7.91231
-7.91573
-7.91621
-7.91357
-7.90762
-7.89818
-7.88506
-7.86808
-7.84705
-7.82181
-7.79217
-7.75795
-7.71898
-7.67511
-7.62616
-7.57198
-7.51242
-7.44732
-7.37656
-7.29998
-7.21746
-7.12887
-7.03409
-6.93302
-6.82555
-6.71158
-6.59106
-6.46394
-6.33018
-6.18973
-6.04256
-5.88863
-5.72796
-5.56053
-5.38638
-5.20554
-5.01807
-4.82403
-4.62352
-4.41663
-4.20349
-3.98422
-3.75898
-3.52792
-3.29123
-3.04909
-2.80172
-2.54933
-2.29215
-2.03043
-1.76442
-1.49439
-1.22061
-0.943361
-0.662936
-0.379632
-0.0937514
0.194396
0.484499
0.776243
1.06931
1.36339
1.65815
1.95329
2.2485
2.54346
2.83786
3.13142
3.42384
3.71483
4.00411
4.29142
4.5765
4.8591
5.13899
5.41592
5.6897
5.96012
6.22698
6.49011
6.74934
7.00451
7.25549
7.50213
7.74433
7.98199
8.21499
8.44326
8.66673
8.88531
9.09892
9.30749
9.51093
9.70923
9.9024
10.0904
10.2731
10.4506
10.6229
10.79
10.9519
11.1089
11.2612
11.4091
11.554
11.6945
11.841
11.9529
-6.71104
-6.71565
-6.7213
-6.72606
-6.72952
-6.73213
-6.73429
-6.73629
-6.73833
-6.74057
-6.74314
-6.74612
-6.7496
-6.75362
-6.75823
-6.76347
-6.76937
-6.77597
-6.7833
-6.79137
-6.80022
-6.80985
-6.8203
-6.83158
-6.8437
-6.85667
-6.87051
-6.8852
-6.90075
-6.91715
-6.93439
-6.95247
-6.97138
-6.99111
-7.01165
-7.03295
-7.055
-7.07778
-7.1013
-7.12552
-7.1504
-7.17585
-7.20184
-7.22831
-7.25524
-7.28258
-7.31029
-7.33834
-7.36668
-7.39525
-7.42401
-7.45288
-7.48181
-7.51072
-7.53953
-7.56816
-7.59652
-7.6245
-7.652
-7.67892
-7.70513
-7.73051
-7.75492
-7.77824
-7.80032
-7.82101
-7.84015
-7.8576
-7.87317
-7.88671
-7.89805
-7.907
-7.9134
-7.91705
-7.91778
-7.91541
-7.90974
-7.90059
-7.88779
-7.87114
-7.85047
-7.82559
-7.79632
-7.7625
-7.72396
-7.68052
-7.63202
-7.57831
-7.51923
-7.45464
-7.3844
-7.30836
-7.22639
-7.13838
-7.0442
-6.94374
-6.83691
-6.72362
-6.6038
-6.47737
-6.3443
-6.20454
-6.05805
-5.90482
-5.74483
-5.57809
-5.40463
-5.22448
-5.0377
-4.84435
-4.64452
-4.43832
-4.22586
-4.00727
-3.78269
-3.5523
-3.31627
-3.07478
-2.82805
-2.57629
-2.31973
-2.05861
-1.79319
-1.52373
-1.25051
-0.973797
-0.693893
-0.411089
-0.125689
0.162
0.451666
0.742996
1.03567
1.32938
1.62381
1.91864
2.21355
2.50825
2.80242
3.09577
3.38801
3.67884
3.968
4.25521
4.54022
4.82277
5.10264
5.37958
5.65339
5.92386
6.1908
6.45403
6.71338
6.9687
7.21985
7.46668
7.7091
7.94697
8.18022
8.40873
8.63245
8.85127
9.06513
9.27393
9.4776
9.67612
9.86951
10.0577
10.2407
10.4185
10.591
10.7584
10.9206
11.0778
11.2302
11.378
11.5222
11.6609
11.8042
11.9054
-6.70664
-6.71204
-6.71875
-6.72452
-6.72887
-6.73227
-6.73513
-6.73777
-6.74038
-6.74314
-6.74619
-6.74962
-6.75352
-6.75795
-6.76295
-6.76857
-6.77485
-6.7818
-6.78948
-6.79788
-6.80705
-6.81699
-6.82772
-6.83926
-6.85162
-6.86479
-6.87879
-6.89362
-6.90926
-6.92572
-6.94298
-6.96104
-6.97988
-6.9995
-7.01988
-7.041
-7.06284
-7.08538
-7.10861
-7.13251
-7.15703
-7.18213
-7.20779
-7.23396
-7.2606
-7.28769
-7.31517
-7.34301
-7.37117
-7.39958
-7.4282
-7.45696
-7.48579
-7.51463
-7.54339
-7.57199
-7.60033
-7.62832
-7.65585
-7.6828
-7.70907
-7.73452
-7.75902
-7.78244
-7.80463
-7.82545
-7.84473
-7.86232
-7.87805
-7.89176
-7.90327
-7.91241
-7.919
-7.92285
-7.92379
-7.92163
-7.91618
-7.90726
-7.89469
-7.87829
-7.85786
-7.83324
-7.80424
-7.7707
-7.73243
-7.68928
-7.64109
-7.58769
-7.52893
-7.46468
-7.39477
-7.31909
-7.2375
-7.14987
-7.05608
-6.95604
-6.84964
-6.73678
-6.6174
-6.49142
-6.35879
-6.21946
-6.0734
-5.9206
-5.76103
-5.59472
-5.42169
-5.24196
-5.05561
-4.86269
-4.66329
-4.45752
-4.24548
-4.02731
-3.80316
-3.57319
-3.33758
-3.09651
-2.85019
-2.59883
-2.34267
-2.08195
-1.81692
-1.54784
-1.275
-0.998652
-0.719104
-0.436646
-0.15158
0.135786
0.425142
0.716174
1.00857
1.30201
1.59618
1.89077
2.18546
2.47995
2.77393
3.06711
3.35919
3.64988
3.93892
4.22603
4.51095
4.79344
5.07326
5.35018
5.62397
5.89445
6.16141
6.42468
6.6841
6.93949
7.19073
7.43768
7.68021
7.91822
8.1516
8.38027
8.60414
8.82312
9.03712
9.24608
9.44991
9.6486
9.84215
10.0305
10.2137
10.3916
10.5643
10.7318
10.8942
11.0514
11.2038
11.3512
11.4945
11.6312
11.7714
11.8633
-6.70479
-6.7107
-6.71815
-6.72468
-6.72974
-6.73381
-6.73731
-6.74054
-6.7437
-6.74699
-6.75052
-6.75442
-6.75877
-6.76362
-6.76903
-6.77505
-6.78171
-6.78904
-6.79706
-6.8058
-6.81528
-6.82552
-6.83651
-6.84829
-6.86085
-6.8742
-6.88833
-6.90326
-6.91896
-6.93545
-6.9527
-6.97072
-6.98948
-7.009
-7.02924
-7.05019
-7.07186
-7.0942
-7.11722
-7.14089
-7.16517
-7.19005
-7.21549
-7.24146
-7.26792
-7.29485
-7.3222
-7.34993
-7.37799
-7.40633
-7.4349
-7.46363
-7.49246
-7.52131
-7.5501
-7.57875
-7.60715
-7.63521
-7.66283
-7.68989
-7.71627
-7.74185
-7.76648
-7.79004
-7.81238
-7.83335
-7.85278
-7.87053
-7.88643
-7.9003
-7.91197
-7.92128
-7.92803
-7.93204
-7.93314
-7.93114
-7.92586
-7.9171
-7.90469
-7.88844
-7.86817
-7.84371
-7.81487
-7.78149
-7.74338
-7.7004
-7.65238
-7.59915
-7.54058
-7.47651
-7.4068
-7.33132
-7.24994
-7.16253
-7.06897
-6.96917
-6.86301
-6.7504
-6.63126
-6.50552
-6.37312
-6.23402
-6.08819
-5.9356
-5.77626
-5.61017
-5.43735
-5.25785
-5.07172
-4.87902
-4.67985
-4.47431
-4.2625
-4.04457
-3.82066
-3.59093
-3.35556
-3.11473
-2.86865
-2.61754
-2.36163
-2.10115
-1.83637
-1.56754
-1.29493
-1.01883
-0.739525
-0.457303
-0.17247
0.114667
0.403798
0.694611
0.986791
1.28002
1.574
1.86839
2.1629
2.45722
2.75103
3.04405
3.33599
3.62655
3.91546
4.20246
4.48728
4.76968
5.04942
5.32627
5.60001
5.87045
6.13739
6.40066
6.66007
6.91549
7.16676
7.41374
7.65633
7.8944
8.12786
8.35661
8.58056
8.79962
9.01372
9.22277
9.42671
9.62552
9.81918
10.0077
10.1909
10.369
10.5418
10.7094
10.8717
11.0289
11.181
11.3279
11.47
11.6046
11.742
11.8259
-6.70573
-6.7119
-6.71974
-6.72673
-6.7323
-6.73689
-6.7409
-6.74463
-6.74828
-6.75203
-6.75601
-6.76034
-6.76509
-6.77033
-6.77612
-6.7825
-6.7895
-6.79715
-6.80548
-6.81451
-6.82426
-6.83473
-6.84594
-6.8579
-6.87062
-6.88409
-6.89832
-6.9133
-6.92904
-6.94553
-6.96276
-6.98073
-6.99943
-7.01885
-7.03898
-7.05982
-7.08135
-7.10356
-7.12644
-7.14996
-7.1741
-7.19885
-7.22417
-7.25004
-7.27642
-7.30329
-7.33059
-7.3583
-7.38636
-7.41472
-7.44333
-7.47212
-7.50102
-7.52995
-7.55885
-7.5876
-7.61613
-7.64433
-7.6721
-7.69931
-7.72584
-7.75158
-7.77638
-7.8001
-7.8226
-7.84373
-7.86333
-7.88123
-7.89728
-7.91129
-7.92311
-7.93254
-7.93942
-7.94355
-7.94476
-7.94286
-7.93767
-7.929
-7.91667
-7.9005
-7.8803
-7.8559
-7.82712
-7.79379
-7.75575
-7.71282
-7.66485
-7.61168
-7.55317
-7.48916
-7.41952
-7.34411
-7.26281
-7.17548
-7.08201
-6.9823
-6.87622
-6.7637
-6.64463
-6.51896
-6.38663
-6.24759
-6.10182
-5.94929
-5.79001
-5.62398
-5.45122
-5.27179
-5.08572
-4.8931
-4.69401
-4.48854
-4.27683
-4.05899
-3.83518
-3.60556
-3.3703
-3.12959
-2.88364
-2.63266
-2.37689
-2.11656
-1.85192
-1.58324
-1.31079
-1.03485
-0.75571
-0.473655
-0.18899
0.0979765
0.386936
0.677577
0.969584
1.26264
1.55645
1.85068
2.14502
2.43917
2.73283
3.02569
3.31747
3.60789
3.89666
4.18353
4.46823
4.75051
5.03014
5.30689
5.58055
5.85092
6.11779
6.381
6.64037
6.89575
7.14699
7.39396
7.63655
7.87463
8.1081
8.33687
8.56085
8.77995
8.99409
9.20319
9.4072
9.60608
9.79981
9.98837
10.1717
10.3498
10.5227
10.6903
10.8525
11.0095
11.1612
11.3074
11.4483
11.5807
11.7157
11.7926
-6.7094
-6.71557
-6.72349
-6.73068
-6.73653
-6.74146
-6.74584
-6.74995
-6.75398
-6.7581
-6.76243
-6.7671
-6.77218
-6.77773
-6.78382
-6.79047
-6.79774
-6.80564
-6.8142
-6.82344
-6.83338
-6.84402
-6.85537
-6.86745
-6.88026
-6.8938
-6.90808
-6.92309
-6.93884
-6.95531
-6.97251
-6.99044
-7.00909
-7.02845
-7.04851
-7.06928
-7.09074
-7.11287
-7.13568
-7.15914
-7.18323
-7.20793
-7.23323
-7.25909
-7.28548
-7.31237
-7.33972
-7.36749
-7.39563
-7.42409
-7.45281
-7.48172
-7.51076
-7.53984
-7.56889
-7.59781
-7.62652
-7.65489
-7.68284
-7.71023
-7.73694
-7.76285
-7.78783
-7.81172
-7.83438
-7.85566
-7.8754
-7.89343
-7.9096
-7.92372
-7.93563
-7.94515
-7.9521
-7.95629
-7.95754
-7.95567
-7.9505
-7.94184
-7.92951
-7.91332
-7.8931
-7.86867
-7.83986
-7.80649
-7.7684
-7.72542
-7.6774
-7.62419
-7.56562
-7.50157
-7.43189
-7.35644
-7.2751
-7.18775
-7.09425
-6.9945
-6.88838
-6.7758
-6.65668
-6.53094
-6.39855
-6.25944
-6.1136
-5.96101
-5.80166
-5.63557
-5.46275
-5.28327
-5.09716
-4.9045
-4.70538
-4.4999
-4.28817
-4.07034
-3.84654
-3.61694
-3.38171
-3.14104
-2.89514
-2.64422
-2.38852
-2.12827
-1.86372
-1.59514
-1.3228
-1.04698
-0.76796
-0.486036
-0.20151
0.0853117
0.374122
0.664608
0.956457
1.24935
1.54299
1.83704
2.13121
2.42519
2.71868
3.01137
3.30298
3.59323
3.88184
4.16855
4.45309
4.73522
5.01471
5.29133
5.56486
5.8351
6.10186
6.36497
6.62424
6.87954
7.13071
7.37762
7.62015
7.85819
8.09163
8.32037
8.54434
8.76343
8.97757
9.18669
9.39072
9.58964
9.78341
9.97201
10.1554
10.3335
10.5063
10.6739
10.836
10.9927
11.1439
11.2893
11.429
11.5593
11.6919
11.7629
-6.71548
-6.72146
-6.72918
-6.73631
-6.74224
-6.74733
-6.75192
-6.75627
-6.76054
-6.76491
-6.76949
-6.77438
-6.77968
-6.78544
-6.79171
-6.79855
-6.80598
-6.81403
-6.82273
-6.83208
-6.84212
-6.85284
-6.86427
-6.8764
-6.88925
-6.90282
-6.9171
-6.93211
-6.94785
-6.9643
-6.98148
-6.99937
-7.01799
-7.03732
-7.05735
-7.0781
-7.09954
-7.12167
-7.14447
-7.16794
-7.19206
-7.21681
-7.24216
-7.26809
-7.29456
-7.32156
-7.34903
-7.37693
-7.40522
-7.43383
-7.46272
-7.49181
-7.52103
-7.55031
-7.57955
-7.60867
-7.63757
-7.66614
-7.69427
-7.72184
-7.74873
-7.7748
-7.79993
-7.82396
-7.84675
-7.86814
-7.88798
-7.9061
-7.92233
-7.9365
-7.94844
-7.95797
-7.96491
-7.96908
-7.9703
-7.96838
-7.96314
-7.95439
-7.94197
-7.92568
-7.90535
-7.8808
-7.85185
-7.81835
-7.78012
-7.73701
-7.68885
-7.63549
-7.57679
-7.5126
-7.44279
-7.36721
-7.28575
-7.19827
-7.10464
-7.00474
-6.89846
-6.78572
-6.66643
-6.54053
-6.40797
-6.26871
-6.1227
-5.96995
-5.81045
-5.64421
-5.47127
-5.29165
-5.10543
-4.91266
-4.71345
-4.50789
-4.2961
-4.07821
-3.85437
-3.62474
-3.3895
-3.14883
-2.90295
-2.65206
-2.3964
-2.13621
-1.87173
-1.60323
-1.33099
-1.05527
-0.776369
-0.494579
-0.210198
0.0764714
0.36512
0.655437
0.947111
1.23983
1.53327
1.82713
2.12111
2.41488
2.70817
3.00066
3.29206
3.58211
3.87051
4.15702
4.44137
4.72331
5.0026
5.27904
5.55239
5.82246
6.08907
6.35202
6.61115
6.86632
7.11737
7.36417
7.6066
7.84455
8.07791
8.30659
8.5305
8.74954
8.96365
9.17275
9.37679
9.57571
9.76949
9.95809
10.1415
10.3196
10.4924
10.6598
10.8217
10.9781
11.1288
11.2732
11.4116
11.54
11.6704
11.7365
-6.72354
-6.72916
-6.73647
-6.74333
-6.74915
-6.75422
-6.75886
-6.76329
-6.76766
-6.77214
-6.77682
-6.78182
-6.78721
-6.79305
-6.7994
-6.8063
-6.81378
-6.82188
-6.8306
-6.83998
-6.85003
-6.86077
-6.87219
-6.88432
-6.89715
-6.9107
-6.92497
-6.93996
-6.95567
-6.9721
-6.98926
-7.00715
-7.02576
-7.04509
-7.06515
-7.08592
-7.1074
-7.12958
-7.15245
-7.176
-7.20021
-7.22506
-7.25054
-7.2766
-7.30323
-7.33039
-7.35803
-7.38611
-7.41459
-7.4434
-7.47249
-7.50178
-7.53121
-7.56068
-7.59012
-7.61943
-7.64851
-7.67725
-7.70554
-7.73326
-7.76028
-7.78647
-7.8117
-7.83581
-7.85866
-7.88009
-7.89995
-7.91807
-7.93428
-7.94841
-7.96029
-7.96973
-7.97657
-7.98062
-7.9817
-7.97963
-7.97422
-7.9653
-7.95269
-7.9362
-7.91566
-7.8909
-7.86174
-7.82802
-7.78958
-7.74624
-7.69787
-7.6443
-7.58539
-7.52099
-7.45098
-7.37521
-7.29356
-7.20586
-7.112
-7.01187
-6.90535
-6.79236
-6.67283
-6.5467
-6.4139
-6.27441
-6.12818
-5.97522
-5.81552
-5.64909
-5.47596
-5.29619
-5.10981
-4.91691
-4.71758
-4.51192
-4.30004
-4.08208
-3.85819
-3.62852
-3.39327
-3.15261
-2.90674
-2.6559
-2.40029
-2.14017
-1.87578
-1.60738
-1.33525
-1.05967
-0.780913
-0.499284
-0.215076
0.0714089
0.359862
0.649975
0.941434
1.23393
1.52714
1.82076
2.11449
2.40802
2.70105
2.99328
3.28443
3.57422
3.86237
4.14862
4.43271
4.7144
4.99346
5.26965
5.54278
5.81263
6.07902
6.34176
6.60071
6.85569
7.10657
7.35321
7.5955
7.83332
8.06656
8.29513
8.51895
8.73791
8.95196
9.16102
9.36502
9.56393
9.75769
9.94628
10.1296
10.3077
10.4804
10.6477
10.8094
10.9654
11.1154
11.259
11.396
11.5225
11.651
11.7129
-6.73308
-6.73824
-6.74498
-6.75139
-6.75693
-6.76182
-6.76635
-6.7707
-6.77502
-6.77945
-6.78409
-6.78905
-6.7944
-6.80019
-6.80649
-6.81333
-6.82075
-6.82878
-6.83744
-6.84676
-6.85674
-6.86741
-6.87878
-6.89085
-6.90363
-6.91713
-6.93135
-6.94631
-6.96199
-6.97842
-6.99558
-7.01348
-7.03211
-7.05149
-7.0716
-7.09244
-7.11401
-7.13629
-7.15928
-7.18296
-7.20732
-7.23233
-7.25797
-7.28422
-7.31103
-7.33838
-7.36622
-7.3945
-7.42317
-7.45218
-7.48146
-7.51093
-7.54053
-7.57017
-7.59976
-7.62921
-7.65841
-7.68725
-7.71563
-7.74341
-7.77048
-7.79669
-7.82191
-7.846
-7.86881
-7.89017
-7.90993
-7.92793
-7.94401
-7.95798
-7.96967
-7.97892
-7.98554
-7.98936
-7.99019
-7.98786
-7.98219
-7.97299
-7.96009
-7.94332
-7.92249
-7.89744
-7.86799
-7.83398
-7.79526
-7.75164
-7.703
-7.64916
-7.59
-7.52536
-7.45511
-7.3791
-7.29718
-7.20919
-7.11504
-7.0146
-6.90779
-6.79451
-6.6747
-6.54829
-6.41523
-6.27548
-6.12902
-5.97583
-5.81592
-5.64929
-5.47599
-5.29605
-5.10954
-4.91652
-4.71708
-4.51133
-4.29939
-4.08138
-3.85747
-3.6278
-3.39256
-3.15194
-2.90614
-2.65537
-2.39986
-2.13985
-1.8756
-1.60735
-1.33539
-1.05999
-0.781439
-0.500027
-0.216051
0.0701871
0.358382
0.648224
0.939402
1.2316
1.52452
1.81783
2.11125
2.40446
2.69717
2.98908
3.2799
3.56936
3.85719
4.14312
4.42689
4.70827
4.98702
5.26291
5.53575
5.80531
6.07143
6.33392
6.59261
6.84736
7.09802
7.34446
7.58656
7.8242
8.05728
8.28571
8.5094
8.72826
8.94222
9.1512
9.35515
9.55402
9.74775
9.9363
10.1196
10.2976
10.4702
10.6373
10.7987
10.9543
11.1037
11.2463
11.3821
11.5068
11.6333
11.6919
-6.74365
-6.74828
-6.75435
-6.76019
-6.7653
-6.76985
-6.77409
-6.77819
-6.78229
-6.78651
-6.79096
-6.79572
-6.80088
-6.80649
-6.81261
-6.81928
-6.82653
-6.8344
-6.84291
-6.85208
-6.86193
-6.87247
-6.88373
-6.8957
-6.90839
-6.92183
-6.936
-6.95091
-6.96658
-6.983
-7.00018
-7.01812
-7.03681
-7.05626
-7.07646
-7.09741
-7.1191
-7.14151
-7.16465
-7.18849
-7.21301
-7.23819
-7.26401
-7.29043
-7.31742
-7.34494
-7.37295
-7.40139
-7.43021
-7.45935
-7.48875
-7.51833
-7.54802
-7.57772
-7.60736
-7.63683
-7.66603
-7.69485
-7.72317
-7.75088
-7.77784
-7.80393
-7.82901
-7.85292
-7.87553
-7.89667
-7.91619
-7.93393
-7.94972
-7.96339
-7.97477
-7.98369
-7.98998
-7.99344
-7.99392
-7.99122
-7.98518
-7.97562
-7.96236
-7.94523
-7.92405
-7.89865
-7.86887
-7.83454
-7.7955
-7.75158
-7.70265
-7.64854
-7.58911
-7.52422
-7.45371
-7.37741
-7.29516
-7.20685
-7.11237
-7.01162
-6.9045
-6.79093
-6.67084
-6.54416
-6.41084
-6.27085
-6.12417
-5.97078
-5.81069
-5.64391
-5.47046
-5.2904
-5.10379
-4.91069
-4.7112
-4.50542
-4.29348
-4.07549
-3.85161
-3.62201
-3.38685
-3.14634
-2.90067
-2.65005
-2.39472
-2.13491
-1.87087
-1.60286
-1.33116
-1.05603
-0.777764
-0.496656
-0.213
0.0729045
0.360752
0.650235
0.941043
1.23286
1.52539
1.81831
2.11133
2.40414
2.69644
2.98794
3.27836
3.56741
3.85483
4.14036
4.42374
4.70473
4.9831
5.25862
5.53109
5.80032
6.0661
6.32826
6.58665
6.84111
7.0915
7.33769
7.57955
7.81697
8.04986
8.27811
8.50164
8.72037
8.93421
9.1431
9.34698
9.54578
9.73946
9.92796
10.1112
10.2891
10.4616
10.6285
10.7896
10.9447
11.0935
11.2351
11.3696
11.4927
11.6174
11.6734
-6.75488
-6.75897
-6.76433
-6.7695
-6.77403
-6.77808
-6.78186
-6.78551
-6.7892
-6.79302
-6.79709
-6.8015
-6.80632
-6.8116
-6.81742
-6.8238
-6.83078
-6.8384
-6.84668
-6.85564
-6.86529
-6.87567
-6.88677
-6.89861
-6.9112
-6.92455
-6.93866
-6.95354
-6.96919
-6.98562
-7.00283
-7.02081
-7.03957
-7.0591
-7.0794
-7.10046
-7.12227
-7.14481
-7.16808
-7.19205
-7.2167
-7.24201
-7.26795
-7.29447
-7.32156
-7.34915
-7.37722
-7.4057
-7.43453
-7.46367
-7.49303
-7.52255
-7.55215
-7.58175
-7.61124
-7.64055
-7.66955
-7.69815
-7.72624
-7.75368
-7.78036
-7.80613
-7.83087
-7.85444
-7.87667
-7.89743
-7.91655
-7.93388
-7.94924
-7.96248
-7.97343
-7.98191
-7.98774
-7.99077
-7.9908
-7.98767
-7.9812
-7.97122
-7.95755
-7.94002
-7.91847
-7.89271
-7.86259
-7.82793
-7.78858
-7.74439
-7.69519
-7.64083
-7.58117
-7.51602
-7.4452
-7.36856
-7.28599
-7.19736
-7.10258
-7.00153
-6.89414
-6.78031
-6.65997
-6.53307
-6.39955
-6.25939
-6.11255
-5.95903
-5.79883
-5.63196
-5.45846
-5.27836
-5.09174
-4.89866
-4.69921
-4.4935
-4.28164
-4.06377
-3.84004
-3.6106
-3.37564
-3.13534
-2.88991
-2.63956
-2.38452
-2.12501
-1.8613
-1.59365
-1.32231
-1.04756
-0.769704
-0.489015
-0.205792
0.0796645
0.367052
0.656063
0.94639
1.23772
1.52975
1.82218
2.11469
2.40699
2.69878
2.98977
3.27968
3.56824
3.85516
4.1402
4.4231
4.70362
4.98152
5.2566
5.52864
5.79744
6.06283
6.32461
6.58263
6.83675
7.08681
7.33269
7.57427
7.81144
8.04409
8.27214
8.49548
8.71405
8.92775
9.13654
9.34033
9.53906
9.73268
9.92112
10.1043
10.2821
10.4544
10.6211
10.7819
10.9366
11.0847
11.2254
11.3587
11.4802
11.603
11.6571
-6.76698
-6.77056
-6.77518
-6.7796
-6.7834
-6.78672
-6.78979
-6.79276
-6.79577
-6.79897
-6.80244
-6.80629
-6.81059
-6.81539
-6.82076
-6.82672
-6.83333
-6.8406
-6.84856
-6.85723
-6.86663
-6.87678
-6.88768
-6.89936
-6.9118
-6.92503
-6.93905
-6.95387
-6.96948
-6.98588
-7.00308
-7.02108
-7.03986
-7.05943
-7.07977
-7.10087
-7.12272
-7.1453
-7.16859
-7.19257
-7.21722
-7.2425
-7.26838
-7.29483
-7.32181
-7.34928
-7.37718
-7.40547
-7.43409
-7.46297
-7.49205
-7.52126
-7.55053
-7.57975
-7.60886
-7.63775
-7.66632
-7.69447
-7.72207
-7.74902
-7.77519
-7.80045
-7.82466
-7.84768
-7.86937
-7.88957
-7.90814
-7.92491
-7.93973
-7.95242
-7.96282
-7.97077
-7.97608
-7.9786
-7.97814
-7.97454
-7.96761
-7.9572
-7.94312
-7.92521
-7.9033
-7.87721
-7.84679
-7.81186
-7.77227
-7.72787
-7.67849
-7.62394
-7.56403
-7.49859
-7.42746
-7.35053
-7.26768
-7.1788
-7.08378
-6.98252
-6.87493
-6.76093
-6.64045
-6.51342
-6.37981
-6.23958
-6.0927
-5.93916
-5.77897
-5.61214
-5.43871
-5.25871
-5.07221
-4.87928
-4.68001
-4.47451
-4.26289
-4.04528
-3.82184
-3.59272
-3.3581
-3.11818
-2.87314
-2.62321
-2.3686
-2.10956
-1.84634
-1.57918
-1.30837
-1.03416
-0.756859
-0.476741
-0.194102
0.0907577
0.377537
0.665932
0.955634
1.24634
1.53773
1.82952