/*--------------------------------*- C++ -*----------------------------------*\
  =========                 |
  \\      /  F ield         | OpenFOAM: The Open Source CFD Toolbox
   \\    /   O peration     | Website:  https://openfoam.org
    \\  /    A nd           | Version:  12
     \\/     M anipulation  |
\*---------------------------------------------------------------------------*/
FoamFile
{
    format      ascii;
    class       volScalarField;
    location    "14.74";
    object      p_rgh;
}
// * * * * * * * * * * * * * * * * * * * * * * * * * * * * * * * * * * * * * //

dimensions      [1 -1 -2 0 0 0 0];

internalField   nonuniform List<scalar> 
3829
(
2.53025
2.52939
2.52762
2.52492
2.52124
2.51655
2.5108
2.50395
2.49594
2.48673
2.47626
2.46446
2.45128
2.43666
2.42052
2.40281
2.38346
2.3624
2.33956
2.31488
2.2883
2.25975
2.22918
2.19652
2.16171
2.12473
2.0855
2.04401
2.00022
1.95411
1.90566
1.85487
1.80175
1.74631
1.68858
1.62884
1.56704
1.50326
1.43758
1.37014
1.30108
1.23057
1.1588
1.08599
1.01236
0.938174
0.863708
0.789257
0.715136
0.641679
0.569236
0.498173
0.428871
0.361714
0.297098
0.235414
0.177066
0.122439
0.0719165
0.0258613
-0.015385
-0.0514652
-0.0818544
-0.106868
-0.126114
-0.139452
-0.146794
-0.148127
-0.14295
-0.131831
-0.115081
-0.0929877
-0.0658303
-0.0338294
0.00203037
0.0411422
0.0828517
0.126429
0.171059
0.215872
0.259963
0.30239
0.342196
0.378434
0.410187
0.436599
0.456877
0.470335
0.47643
0.474806
0.464316
0.44515
0.417567
0.381936
0.338746
0.28864
0.232452
0.171249
0.106279
0.0389531
-0.029151
-0.0961962
-0.16082
-0.221111
-0.275399
-0.322103
-0.359817
-0.387366
-0.403879
-0.408857
-0.401152
-0.38153
-0.350801
-0.310004
-0.260512
-0.204111
-0.142862
-0.079415
-0.016487
0.0433358
0.0973472
0.143002
0.178049
0.200695
0.209708
0.203005
0.181587
0.14659
0.0995609
0.0426748
-0.0211406
-0.0890024
-0.155985
-0.21864
-0.273085
-0.315724
-0.343587
-0.354623
-0.347718
-0.322316
-0.280276
-0.224084
-0.157283
-0.0842022
-0.00738228
0.0622202
0.12236
0.168313
0.196449
0.204487
0.184992
0.145131
0.0877583
0.0169319
-0.0619666
-0.143626
-0.217934
-0.279875
-0.323861
-0.346009
-0.344509
-0.318992
-0.273139
-0.211704
-0.141165
-0.0688134
-0.00423965
0.0463094
0.0776228
0.0869688
0.0739018
0.0418792
-0.00478755
-0.0596936
-0.112643
-0.15745
-0.188082
-0.194647
-0.182411
-0.154046
-0.113427
-0.0683274
-0.0259409
0.00704195
0.0254533
0.0236961
0.00524225
-0.0270174
-0.0677966
-0.110947
-0.149174
-0.178121
-0.195096
-0.199955
-0.19429
-0.181403
-0.165605
-0.15012
-0.138047
-0.131444
2.61318
2.61239
2.61079
2.60833
2.60499
2.60072
2.59548
2.58921
2.58187
2.57338
2.56368
2.5527
2.54036
2.52658
2.51126
2.49433
2.47569
2.45525
2.4329
2.40856
2.38213
2.35352
2.32265
2.28943
2.25378
2.21565
2.17496
2.13168
2.08577
2.03719
1.98595
1.93204
1.8755
1.81639
1.75488
1.69014
1.62257
1.55236
1.47974
1.40492
1.32817
1.24973
1.16984
1.0887
1.00657
0.923726
0.84048
0.757176
0.674186
0.591904
0.510752
0.431168
0.353606
0.278538
0.206441
0.137799
0.0730981
0.0127827
-0.0426885
-0.0928568
-0.136646
-0.174923
-0.206769
-0.231881
-0.250009
-0.260945
-0.264528
-0.260578
-0.249592
-0.23161
-0.206848
-0.17566
-0.138576
-0.0961739
-0.0462732
0.00491151
0.0591972
0.115669
0.173305
0.231018
0.287684
0.342138
0.3932
0.439714
0.480554
0.514676
0.541112
0.558974
0.567608
0.566358
0.554441
0.53201
0.499271
0.456583
0.404503
0.34385
0.275703
0.201412
0.122535
0.040833
-0.0417385
-0.123129
-0.201226
-0.273901
-0.339077
-0.394806
-0.439367
-0.47133
-0.489553
-0.493248
-0.481912
-0.456062
-0.416491
-0.364476
-0.301847
-0.230855
-0.154113
-0.0747663
0.00365139
0.0779803
0.144867
0.201159
0.244118
0.271483
0.281591
0.272814
0.245978
0.202192
0.143311
0.0721947
-0.00748846
-0.0920954
-0.175493
-0.253374
-0.32093
-0.373745
-0.40811
-0.421376
-0.412337
-0.38077
-0.328609
-0.258965
-0.176342
-0.0861807
0.00692909
0.0922985
0.165611
0.221103
0.2544
0.263257
0.239572
0.191714
0.122377
0.0366341
-0.058785
-0.159013
-0.248298
-0.322154
-0.373903
-0.398885
-0.394748
-0.362343
-0.305361
-0.230004
-0.144076
-0.0544313
0.0226913
0.0820012
0.117518
0.125845
0.107451
0.0660133
0.00730586
-0.0606634
-0.125301
-0.179221
-0.215101
-0.222208
-0.206306
-0.170621
-0.120311
-0.065028
-0.0137001
0.0254337
0.0458126
0.0442806
0.0219349
-0.0167487
-0.0646913
-0.116058
-0.159179
-0.19094
-0.208153
-0.211003
-0.201842
-0.185148
-0.165498
-0.146955
-0.132766
-0.12513
2.73849
2.73796
2.73688
2.7352
2.7329
2.7299
2.72616
2.72159
2.71611
2.70963
2.70204
2.69323
2.68307
2.67145
2.65826
2.64334
2.62655
2.60773
2.58673
2.56343
2.53767
2.50932
2.47825
2.44434
2.40748
2.36756
2.32451
2.27822
2.22862
2.17561
2.11912
2.05908
1.9954
1.92798
1.85661
1.78255
1.70558
1.62567
1.54285
1.45716
1.36873
1.27772
1.18439
1.08907
0.992141
0.893995
0.795068
0.695826
0.596763
0.498415
0.401337
0.306118
0.213379
0.123739
0.0378608
-0.0435767
-0.119215
-0.189924
-0.254358
-0.311916
-0.362021
-0.404211
-0.438099
-0.46335
-0.479812
-0.487435
-0.486459
-0.471188
-0.447445
-0.415096
-0.374258
-0.325263
-0.268654
-0.205106
-0.135416
-0.0607452
0.0177279
0.0986777
0.180802
0.262671
0.342789
0.4196
0.491529
0.557024
0.614575
0.662789
0.700365
0.726164
0.739283
0.738645
0.723869
0.695013
0.65223
0.595934
0.526878
0.446232
0.355512
0.256578
0.151569
0.0428766
-0.0668479
-0.17478
-0.278076
-0.373853
-0.459337
-0.531877
-0.589102
-0.629038
-0.650192
-0.651659
-0.633103
-0.594993
-0.538357
-0.464997
-0.377465
-0.278931
-0.173015
-0.0639401
0.0435082
0.144967
0.235845
0.311868
0.369308
0.40521
0.417356
0.404368
0.366854
0.306115
0.224773
0.126731
0.0170782
-0.0992361
-0.213396
-0.319637
-0.411569
-0.483272
-0.529762
-0.54733
-0.533708
-0.489894
-0.418309
-0.323266
-0.210982
-0.0888694
0.0354929
0.150115
0.247839
0.320643
0.362081
0.367271
0.340271
0.278056
0.186058
0.0725501
-0.0522143
-0.190568
-0.305841
-0.401408
-0.467386
-0.497203
-0.488159
-0.442053
-0.363723
-0.262523
-0.150948
-0.0229664
0.074174
0.1491
0.191945
0.19827
0.169175
0.10971
0.0282834
-0.063969
-0.150238
-0.220797
-0.266182
-0.273715
-0.250443
-0.200792
-0.132247
-0.0579449
0.0100388
0.0607716
0.0857818
0.0827144
0.0522417
0.000972338
-0.0617061
-0.124684
-0.177868
-0.214685
-0.231854
-0.230687
-0.214967
-0.191151
-0.164666
-0.140796
-0.123104
-0.113775
2.88921
2.88914
2.88902
2.8888
2.88846
2.88792
2.88712
2.88593
2.88427
2.88202
2.87895
2.87484
2.86949
2.8627
2.85429
2.84408
2.83184
2.81735
2.80039
2.78072
2.75811
2.73234
2.7032
2.67047
2.63397
2.59351
2.54892
2.50006
2.44685
2.38923
2.32717
2.26072
2.18995
2.11511
2.03365
1.94687
1.85533
1.75946
1.65955
1.5558
1.44839
1.33754
1.22356
1.10683
0.987786
0.866932
0.744817
0.622061
0.499326
0.377331
0.256825
0.138622
0.0235443
-0.0875431
-0.19376
-0.292653
-0.386311
-0.47243
-0.550116
-0.61854
-0.676921
-0.724538
-0.760669
-0.784733
-0.796132
-0.794354
-0.778807
-0.755388
-0.718663
-0.669011
-0.607116
-0.533821
-0.450103
-0.357062
-0.255962
-0.14828
-0.0355024
0.0804031
0.197584
0.314076
0.427824
0.536672
0.638459
0.731071
0.81244
0.880658
0.933873
0.970627
0.989568
0.989807
0.970624
0.93201
0.874132
0.79759
0.703494
0.593533
0.469827
0.334975
0.191958
0.0441081
-0.105104
-0.251408
-0.391097
-0.520208
-0.634864
-0.731485
-0.806919
-0.858427
-0.883783
-0.88143
-0.851834
-0.795332
-0.713416
-0.608679
-0.484743
-0.346035
-0.197567
-0.0452802
0.104267
0.24498
0.370572
0.475059
0.553322
0.601223
0.61604
0.596393
0.542677
0.456789
0.342512
0.205282
0.0519804
-0.111791
-0.270393
-0.417465
-0.544277
-0.642986
-0.707075
-0.731673
-0.710132
-0.647567
-0.547186
-0.415043
-0.259721
-0.0912385
0.0790305
0.235985
0.369233
0.467737
0.522996
0.52957
0.490065
0.403511
0.276762
0.120699
-0.0517199
-0.230284
-0.387847
-0.515961
-0.602371
-0.638889
-0.622186
-0.555097
-0.444653
-0.303408
-0.146199
0.0128067
0.146924
0.246119
0.299664
0.30242
0.25684
0.1707
0.0560436
-0.0711912
-0.188352
-0.282146
-0.340144
-0.347999
-0.313554
-0.243327
-0.148106
-0.0463606
0.0454823
0.112639
0.144151
0.137591
0.0946883
0.0250213
-0.0584492
-0.139273
-0.205549
-0.24876
-0.265006
-0.257589
-0.232291
-0.198268
-0.16248
-0.131588
-0.109501
-0.0981177
3.03419
3.03503
3.03671
3.03921
3.0429
3.04715
3.05194
3.05717
3.0625
3.06766
3.07243
3.0766
3.07984
3.08183
3.08211
3.08032
3.07605
3.06897
3.05873
3.04502
3.02749
3.00584
2.97976
2.94895
2.91314
2.87208
2.82555
2.77337
2.71536
2.65138
2.58126
2.50476
2.42156
2.33123
2.23745
2.13801
2.03253
1.92082
1.8029
1.67904
1.54959
1.41499
1.27571
1.1323
0.985387
0.835655
0.683887
0.530913
0.377658
0.2251
0.0742921
-0.0736852
-0.217595
-0.356264
-0.488651
-0.613441
-0.72947
-0.835522
-0.930439
-1.01314
-1.08254
-1.13773
-1.17781
-1.20201
-1.20978
-1.20065
-1.17459
-1.13206
-1.07288
-0.997366
-0.906127
-0.800054
-0.68036
-0.548474
-0.406063
-0.255109
-0.0977491
0.0636673
0.226412
0.387831
0.545134
0.695458
0.835837
0.963427
1.07544
1.16931
1.24258
1.29322
1.31931
1.31989
1.29439
1.24241
1.16419
1.0606
0.933277
0.784557
0.617361
0.43525
0.242299
0.0430612
-0.157442
-0.353947
-0.541084
-0.713541
-0.86621
-0.994159
-1.09307
-1.15932
-1.18992
-1.18228
-1.13727
-1.05582
-0.940135
-0.793806
-0.621829
-0.43022
-0.225889
-0.0169443
0.187688
0.379676
0.550426
0.691937
0.797072
0.860297
0.877808
0.848743
0.773088
0.653596
0.495762
0.307156
0.096793
-0.131596
-0.347995
-0.547787
-0.719559
-0.852826
-0.939545
-0.97489
-0.940002
-0.852111
-0.71389
-0.533089
-0.321206
-0.0920778
0.13823
0.350503
0.529941
0.661962
0.735103
0.742283
0.686116
0.566672
0.393665
0.181849
-0.0510726
-0.286622
-0.497038
-0.666467
-0.778686
-0.823131
-0.795546
-0.700047
-0.547167
-0.354103
-0.141099
0.0672409
0.245108
0.374121
0.440351
0.437315
0.369046
0.247259
0.0888062
-0.083884
-0.240917
-0.3638
-0.436055
-0.444585
-0.395012
-0.297285
-0.166955
-0.029458
0.0931189
0.181004
0.220268
0.207914
0.148078
0.0541626
-0.0566223
-0.160361
-0.242392
-0.291787
-0.30668
-0.290561
-0.252618
-0.205491
-0.158352
-0.119284
-0.0923488
-0.078824
3.13608
3.1386
3.14371
3.1514
3.16101
3.17304
3.18691
3.20166
3.21818
3.23608
3.25424
3.27195
3.28851
3.30346
3.31638
3.32692
3.33465
3.33937
3.34022
3.33694
3.32912
3.31634
3.29812
3.27403
3.24352
3.20623
3.1617
3.10984
3.05034
2.98304
2.90758
2.82387
2.73186
2.63221
2.52391
2.40702
2.28159
2.14772
2.0056
1.8555
1.69782
1.53305
1.36181
1.1848
1.00285
0.816878
0.627926
0.43712
0.245676
0.0549041
-0.133812
-0.319028
-0.498674
-0.672176
-0.837497
-0.99305
-1.13722
-1.26842
-1.3851
-1.48579
-1.56918
-1.63392
-1.67896
-1.70338
-1.7065
-1.68795
-1.64636
-1.58305
-1.49788
-1.39137
-1.26443
-1.11824
-0.954454
-0.774932
-0.581882
-0.377935
-0.165959
0.0513592
0.269708
0.485985
0.69645
0.897285
1.08462
1.25468
1.40381
1.52862
1.62593
1.69303
1.72759
1.728
1.69391
1.62467
1.52066
1.38316
1.2144
1.01752
0.79641
0.555848
0.301287
0.0387571
-0.224992
-0.483055
-0.728377
-0.953773
-1.1525
-1.31838
-1.44595
-1.53086
-1.56992
-1.55224
-1.48685
-1.37403
-1.21637
-1.01848
-0.786933
-0.52985
-0.256482
0.022353
0.294863
0.549912
0.775973
0.962548
1.10036
1.18188
1.20219
1.16043
1.0567
0.895062
0.683136
0.431173
0.15122
-0.160892
-0.447255
-0.710848
-0.936727
-1.1107
-1.22172
-1.2646
-1.21799
-1.10104
-0.916842
-0.676107
-0.394489
-0.0906182
0.213644
0.49373
0.729779
0.902335
0.996759
1.0044
0.926393
0.765544
0.535042
0.254587
-0.0525372
-0.359388
-0.633655
-0.852795
-0.995616
-1.04851
-1.00637
-0.875068
-0.669507
-0.412683
-0.131887
0.138847
0.368971
0.533069
0.613051
0.601595
0.504227
0.337683
0.124928
-0.103518
-0.309157
-0.466535
-0.552703
-0.563163
-0.49413
-0.361722
-0.187815
-0.00652308
0.153239
0.265577
0.313223
0.29253
0.211144
0.0873611
-0.057658
-0.188566
-0.288734
-0.345274
-0.356286
-0.328533
-0.27483
-0.211963
-0.151829
-0.103934
-0.0721159
-0.0566083
3.18064
3.18406
3.19106
3.20164
3.21545
3.23254
3.25275
3.27809
3.30796
3.3433
3.38197
3.42303
3.4649
3.50665
3.54694
3.58444
3.61726
3.64393
3.66388
3.6772
3.6839
3.68389
3.67661
3.66166
3.63821
3.60596
3.5639
3.51193
3.44977
3.37748
3.29458
3.20111
3.0977
2.98337
2.85814
2.7219
2.57458
2.41622
2.24696
2.06712
1.87715
1.67765
1.46943
1.25341
1.03065
0.802371
0.56995
0.334835
0.0986099
-0.137008
-0.370018
-0.598802
-0.821417
-1.0358
-1.23987
-1.43155
-1.60876
-1.76946
-1.91167
-2.03349
-2.13321
-2.20915
-2.25989
-2.28419
-2.28118
-2.24989
-2.19095
-2.10356
-1.98812
-1.84545
-1.67673
-1.48354
-1.268
-1.03256
-0.780063
-0.513902
-0.237782
0.0446238
0.32822
0.608682
0.881321
1.14114
1.38324
1.60271
1.79492
1.95551
2.08045
2.16626
2.21013
2.20972
2.16478
2.0745
1.93944
1.7614
1.5433
1.28923
1.00426
0.6946
0.367318
0.0301379
-0.308089
-0.638511
-0.951951
-1.23932
-1.49172
-1.70106
-1.86057
-1.96528
-2.01404
-1.98403
-1.89518
-1.74568
-1.53852
-1.27965
-0.977635
-0.643087
-0.288031
0.0734122
0.425892
0.754966
1.04597
1.2851
1.46068
1.56319
1.58608
1.52825
1.3903
1.17799
0.901495
0.575241
0.217399
-0.20384
-0.56801
-0.905838
-1.19488
-1.41558
-1.55155
-1.58938
-1.54146
-1.39254
-1.15422
-0.842451
-0.478405
-0.0860739
0.305113
0.664829
0.966801
1.18645
1.30514
1.31184
1.20744
0.997096
0.698359
0.336818
-0.0573702
-0.448193
-0.796935
-1.07342
-1.25072
-1.31192
-1.25169
-1.07749
-0.809341
-0.477372
-0.116789
0.227364
0.517719
0.721536
0.816494
0.793162
0.660247
0.440131
0.162868
-0.131056
-0.393574
-0.591239
-0.692767
-0.703604
-0.609785
-0.435407
-0.209728
0.0228974
0.225691
0.36564
0.421703
0.389903
0.282395
0.124103
-0.0631457
-0.224111
-0.344166
-0.407552
-0.412695
-0.370328
-0.297883
-0.216987
-0.142636
-0.085705
-0.0493611
-0.0322553
3.16332
3.17344
3.19512
3.22897
3.27567
3.33605
3.41265
3.49389
3.57926
3.6601
3.73283
3.79769
3.85323
3.90052
3.9402
3.97354
4.00244
4.0284
4.05162
4.07203
4.0885
4.09985
4.10455
4.10121
4.08731
4.06179
4.02069
3.96309
3.89708
3.82079
3.73095
3.63136
3.51975
3.39474
3.25525
3.10051
2.93037
2.745
2.54481
2.33048
2.10281
1.86276
1.61142
1.35003
1.07998
0.802839
0.520282
0.234209
-0.0533865
-0.340423
-0.624434
-0.903521
-1.17498
-1.43626
-1.68477
-1.91788
-2.13295
-2.32748
-2.49898
-2.64511
-2.7636
-2.85246
-2.90992
-2.93448
-2.92484
-2.88032
-2.80075
-2.68576
-2.53589
-2.35216
-2.13604
-1.88955
-1.61534
-1.31651
-0.996638
-0.660012
-0.311267
0.0447193
0.402058
0.755122
1.09789
1.42423
1.72799
2.00304
2.24359
2.44416
2.59981
2.70616
2.75983
2.758
2.7
2.58506
2.41407
2.18937
1.91468
1.59516
1.23725
0.848786
0.43865
0.0165288
-0.406308
-0.818857
-1.20945
-1.56668
-1.8795
-2.13743
-2.33111
-2.4521
-2.49145
-2.46612
-2.35565
-2.16549
-1.90196
-1.57335
-1.19069
-0.767601
-0.319251
0.136187
0.579518
0.992718
1.35726
1.65579
1.8736
1.99895
2.02401
1.9469
1.76878
1.49735
1.14575
0.732413
0.280932
-0.248113
-0.705428
-1.12958
-1.49159
-1.76659
-1.93427
-1.97947
-1.91495
-1.72504
-1.42314
-1.02959
-0.571045
-0.0783079
0.411846
0.861692
1.23808
1.51031
1.65547
1.66049
1.52482
1.2574
0.880514
0.426505
-0.0664107
-0.552474
-0.984943
-1.32539
-1.54056
-1.60991
-1.52763
-1.30378
-0.96395
-0.54643
-0.0948739
0.332154
0.689666
0.93704
1.048
1.00886
0.83424
0.552371
0.201405
-0.166735
-0.493634
-0.73727
-0.861354
-0.864571
-0.739979
-0.516639
-0.231803
0.0589207
0.309803
0.479842
0.543897
0.498105
0.359941
0.164473
-0.0748678
-0.266588
-0.407905
-0.477463
-0.474648
-0.41479
-0.320877
-0.22003
-0.130674
-0.0649029
-0.0247172
-0.0065621
2.95163
2.95741
2.97108
2.99061
3.01276
3.03327
3.03383
3.03206
3.09319
3.20926
3.33623
3.45877
3.57227
3.67909
3.77978
3.87448
3.96259
4.04342
4.11638
4.18103
4.23633
4.286
4.32709
4.36171
4.38811
4.40839
4.41962
4.40356
4.3762
4.31821
4.23559
4.13104
4.00805
3.86645
3.70602
3.52679
3.32892
3.11257
2.87814
2.62624
2.35772
2.0737
1.77545
1.46452
1.14262
0.811711
0.473913
0.131675
-0.212171
-0.555915
-0.896711
-1.2314
-1.55689
-1.87004
-2.16762
-2.44649
-2.70343
-2.93533
-3.13916
-3.31205
-3.4513
-3.55441
-3.61924
-3.64395
-3.62715
-3.56765
-3.4652
-3.31975
-3.13189
-2.90287
-2.63448
-2.32924
-1.99043
-1.62183
-1.22782
-0.813644
-0.385051
0.0519159
0.490255
0.922966
1.34269
1.74196
2.11316
2.44891
2.74214
2.98617
3.17499
3.30331
3.36706
3.3631
3.29005
3.14727
2.93607
2.65936
2.32175
1.92964
1.49095
1.01525
0.513495
-0.0024231
-0.518549
-1.02154
-1.49714
-1.93123
-2.31036
-2.62189
-2.8545
-2.99861
-3.04682
-3.00619
-2.86544
-2.62799
-2.30087
-1.89451
-1.42237
-0.901107
-0.349516
0.209754
0.753553
1.25958
1.70493
2.06859
2.33232
2.48214
2.50874
2.40923
2.18569
1.84771
1.41147
0.898816
0.336207
-0.289519
-0.857262
-1.37896
-1.82217
-2.15759
-2.3614
-2.41767
-2.3303
-2.09251
-1.71897
-1.23416
-0.670822
-0.0666297
0.532447
1.08128
1.53908
1.86854
2.04188
2.04363
1.87265
1.54151
1.07783
0.521842
-0.0802451
-0.670851
-1.19483
-1.60466
-1.86035
-1.93749
-1.82935
-1.54964
-1.13025
-0.618363
-0.065806
0.451814
0.882009
1.1756
1.30278
1.24446
1.02285
0.672025
0.23948
-0.210356
-0.607707
-0.901214
-1.04898
-1.04222
-0.881993
-0.603536
-0.253244
0.101316
0.40437
0.60629
0.677612
0.614976
0.44124
0.197495
-0.0831392
-0.314779
-0.478895
-0.553776
-0.540831
-0.460779
-0.343055
-0.220762
-0.116022
-0.0419467
0.00116728
0.0196994
2.53382
2.55387
2.60418
2.68901
2.81627
2.98895
3.21524
3.56508
4.03785
4.25885
4.46685
4.62951
4.7514
4.84606
4.91813
4.97528
5.02278
5.06486
5.10439
5.14294
5.18291
5.22407
5.25967
5.28931
5.29985
5.28308
5.2877
5.02359
4.91265
4.81505
4.72108
4.62317
4.50599
4.36496
4.19588
3.99761
3.77328
3.52467
3.25323
2.96018
2.64695
2.31494
1.96569
1.601
1.22284
0.833473
0.435315
0.0307947
-0.369525
-0.776497
-1.17913
-1.57418
-1.95813
-2.32733
-2.678
-3.00635
-3.30851
-3.58078
-3.81953
-4.02134
-4.18297
-4.30145
-4.3742
-4.399
-4.37415
-4.29881
-4.17203
-3.9939
-3.76521
-3.4875
-3.16297
-2.79462
-2.38639
-1.94284
-1.46929
-0.972004
-0.457827
0.0660383
0.591163
1.1091
1.61116
2.08836
2.53158
2.93205
3.28132
3.57148
3.79534
3.94667
4.02057
4.01365
3.92381
3.75058
3.49563
3.1625
2.75679
2.28622
1.7603
1.19061
0.590227
-0.0265997
-0.64306
-1.24311
-1.80986
-2.32644
-2.7767
-3.14566
-3.42013
-3.58924
-3.64525
-3.58879
-3.41398
-3.1245
-2.72803
-2.23712
-1.66823
-1.04106
-0.378141
0.293049
0.945
1.55071
2.08275
2.51598
2.82868
3.00416
3.03148
2.90679
2.63346
2.22297
1.6946
1.07454
0.394072
-0.339418
-1.02409
-1.65059
-2.18101
-2.58104
-2.82324
-2.88968
-2.7778
-2.48745
-2.03572
-1.45184
-0.77556
-0.0512856
0.664825
1.31975
1.86441
2.25441
2.45703
2.45414
2.24435
1.84396
1.28643
0.62026
-0.0985495
-0.801278
-1.42283
-1.90619
-2.20405
-2.28784
-2.15108
-1.81039
-1.30489
-0.691073
-0.0302928
0.584252
1.09131
1.43255
1.56749
1.49531
1.22254
0.796631
0.276268
-0.261215
-0.733653
-1.07965
-1.25079
-1.23263
-1.03286
-0.694303
-0.27334
0.149519
0.507807
0.742739
0.820413
0.738341
0.525261
0.230313
-0.0958193
-0.368512
-0.555932
-0.635059
-0.609898
-0.507268
-0.363838
-0.219047
-0.0989167
-0.0173205
0.0276745
0.0458547
1.75655
1.77928
1.82785
1.89086
1.94974
1.96258
1.83055
1.56897
2.12349
2.41364
2.73259
3.00695
3.25118
3.46801
3.66049
3.83186
3.98379
4.11764
4.23461
4.33529
4.42714
4.51436
4.59356
4.67307
4.75812
4.85725
5.0683
5.08679
5.39254
5.46729
5.42152
5.30937
5.15202
4.96096
4.74586
4.50917
4.24919
3.96436
3.65428
3.31919
2.96008
2.57832
2.17576
1.75456
1.31721
0.866508
0.405592
-0.0620543
-0.532486
-1.00327
-1.46994
-1.92817
-2.3736
-2.80185
-3.20842
-3.58886
-3.93865
-4.25342
-4.52893
-4.76116
-4.94633
-5.08098
-5.16206
-5.18703
-5.15393
-5.06148
-4.90894
-4.69636
-4.4247
-4.09578
-3.7122
-3.2775
-2.79636
-2.27414
-1.71707
-1.13253
-0.528551
0.0864203
0.702447
1.3097
1.89793
2.45663
2.97517
3.44322
3.85091
4.18902
4.44916
4.6241
4.70813
4.69742
4.58932
4.38356
4.08211
3.68922
3.2115
2.65807
2.0402
1.3715
0.66738
-0.0557125
-0.777472
-1.47945
-2.14178
-2.74478
-3.26959
-3.69868
-4.01679
-4.21151
-4.27404
-4.2012
-3.99025
-3.64534
-3.1754
-2.59499
-1.92366
-1.18473
-0.404619
0.384507
1.15025
1.86065
2.48364
2.98967
3.35341
3.5551
3.58235
3.43042
3.1038
2.61615
1.99034
1.2575
0.454414
-0.398243
-1.20384
-1.93975
-2.56151
-3.02902
-3.3106
-3.38572
-3.24828
-2.90201
-2.36726
-1.67866
-0.882705
-0.0326984
0.806554
1.57266
2.208
2.66086
2.89326
2.88436
2.63303
2.15905
1.50223
0.720376
-0.121455
-0.941411
-1.66475
-2.22437
-2.56538
-2.65479
-2.48684
-2.0811
-1.48467
-0.764027
0.0117739
0.727088
1.31371
1.70448
1.85509
1.75816
1.42969
0.923997
0.311022
-0.31831
-0.868975
-1.26897
-1.46285
-1.43197
-1.18958
-0.787037
-0.291711
0.202679
0.618224
0.886669
0.969695
0.865974
0.610658
0.262362
-0.112723
-0.427015
-0.637623
-0.7198
-0.680542
-0.553354
-0.38284
-0.214917
-0.0797029
0.00846652
0.0542407
0.0713397
0.123552
0.0583686
-0.0772126
-0.32167
-0.679056
-1.17019
-1.82282
-2.70168
4.99707
5.22976
5.45778
5.55589
5.58295
5.53884
5.41522
5.23624
5.00718
4.73553
4.42508
4.0798
3.70253
3.29575
2.8619
2.40345
1.92317
1.42402
0.909318
0.382637
-0.152122
-0.690833
-1.22928
-1.76284
-2.2867
-2.79584
-3.28519
-3.74959
-4.18389
-4.58288
-4.94155
-5.25502
-5.51866
-5.72813
-5.87943
-5.9691
-5.99419
-5.95247
-5.84241
-5.66325
-5.4151
-5.09907
-4.7173
-4.27282
-3.76975
-3.21348
-2.61023
-1.96718
-1.29285
-0.596498
0.112137
0.821651
1.52067
2.19743
2.83978
3.43553
3.97283
4.44028
4.82733
5.12437
5.32316
5.41719
5.40191
5.27448
5.03469
4.68488
4.22997
3.67765
3.03851
2.32565
1.55473
0.743543
-0.0890329
-0.919302
-1.72617
-2.48675
-3.1785
-3.77978
-4.27048
-4.63312
-4.85351
-4.92147
-4.83196
-4.58356
-4.18098
-3.63492
-2.96179
-2.18429
-1.32975
-0.428699
0.482194
1.36527
2.18359
2.90017
3.48094
3.89674
4.12492
4.1513
3.9706
3.58823
3.02027
2.29347
1.44427
0.515006
-0.463731
-1.393
-2.2412
-2.95662
-3.49315
-3.81443
-3.89711
-3.73306
-3.32854
-2.70759
-1.91042
-0.990929
-0.0107456
0.955088
1.83538
2.56362
3.08054
3.34272
3.3267
3.03171
2.48112
1.72155
0.81998
-0.148089
-1.08861
-1.91615
-2.55342
-2.93788
-3.03252
-2.83075
-2.35697
-1.66656
-0.836755
0.0601737
0.877537
1.54494
1.98581
2.15045
2.02779
1.64066
1.05187
0.343353
-0.380412
-1.011
-1.46556
-1.68134
-1.63656
-1.34934
-0.880011
-0.308147
0.259774
0.733576
1.03548
1.12282
0.995703
0.696063
0.292967
-0.133215
-0.489216
-0.72249
-0.806495
-0.751566
-0.598304
-0.39983
-0.208546
-0.0588019
0.0349136
0.0803896
0.0957178
-0.732298
-0.758476
-0.800447
-0.870005
-0.934968
-1.00397
-1.08788
-1.09331
6.77319
6.64713
6.64583
6.5326
6.40966
6.25773
6.06766
5.84198
5.57338
5.26415
4.91482
4.52766
4.10442
3.64757
3.15969
2.64366
2.10262
1.54003
0.959682
0.365608
-0.237636
-0.84541
-1.45277
-2.0545
-2.64515
-3.21907
-3.7705
-4.29359
-4.78254
-5.23144
-5.63463
-5.98656
-6.28203
-6.51611
-6.68429
-6.78263
-6.80779
-6.75724
-6.62927
-6.42305
-6.13877
-5.77772
-5.34235
-4.83614
-4.26379
-3.63144
-2.94616
-2.2161
-1.45094
-0.661174
0.142203
0.946202
1.73794
2.50406
3.23085
3.90449
4.51154
5.03913
5.47535
5.80933
6.03181
6.13547
6.11512
5.96772
5.69305
5.29382
4.77572
4.14754
3.42131
2.61194
1.73734
0.817643
-0.125759
-1.06589
-1.97882
-2.83871
-3.62005
-4.29844
-4.85115
-5.25843
-5.50426
-5.57699
-5.47049
-5.18388
-4.72247
-4.09892
-3.3315
-2.44617
-1.47406
-0.450237
0.584185
1.58618
2.51378
3.32501
3.98121
4.44928
4.70385
4.72861
4.51814
4.0786
3.42862
2.59896
1.63121
0.574129
-0.533439
-1.58788
-2.5496
-3.35944
-3.96533
-4.32609
-4.41548
-4.22397
-3.75987
-3.05092
-2.14312
-1.09856
0.0139841
1.10773
2.10334
2.92515
3.50626
3.79784
3.77381
3.43377
2.805
1.94085
0.917664
-0.177862
-1.24018
-2.17264
-2.88772
-3.31524
-3.41403
-3.17711
-2.63348
-1.84757
-0.908549
0.113945
1.03263
1.78082
2.27149
2.44885
2.29957
1.85206
1.17829
0.373009
-0.446189
-1.15709
-1.66593
-1.90263
-1.84299
-1.50954
-0.971808
-0.322532
0.319696
0.851814
1.18663
1.27728
1.1255
0.780262
0.32166
-0.156586
-0.553935
-0.809065
-0.893726
-0.821908
-0.641557
-0.4147
-0.200199
-0.0366672
0.0615555
0.105736
0.118683
-1.32848
-1.33943
-1.35812
-1.39463
-1.42806
-1.48355
-1.53808
-1.57807
7.37761
7.31641
7.32628
7.24411
7.11707
6.94829
6.72864
6.46863
6.16301
5.81448
5.42288
4.99039
4.51841
4.00948
3.46612
2.89145
2.28889
1.66225
1.01573
0.353837
-0.318097
-0.995036
-1.67144
-2.34145
-2.99897
-3.63768
-4.25117
-4.83292
-5.37644
-5.87517
-6.32278
-6.7131
-7.04032
-7.29895
-7.48396
-7.59093
-7.61614
-7.5567
-7.41075
-7.17745
-6.85703
-6.45097
-5.96206
-5.39423
-4.75275
-4.04452
-3.27745
-2.46068
-1.60504
-0.722228
0.17557
1.07362
1.95761
2.81265
3.62341
4.37444
5.05075
5.638
6.12289
6.49333
6.73901
6.85183
6.82608
6.65841
6.3486
5.89975
5.3183
4.61413
3.80078
2.895
1.91688
0.889044
-0.16523
-1.21472
-2.23323
-3.19196
-4.06242
-4.8174
-5.43162
-5.88304
-6.15375
-6.23078
-6.10712
-5.78209
-5.26173
-4.56043
-3.69872
-2.70556
-1.61589
-0.46919
0.688569
1.8092
2.8458
3.75132
4.48247
5.00237
5.28282
5.30546
5.06459
4.56743
3.83505
2.90218
1.8155
0.6308
-0.60565
-1.78502
-2.85986
-3.76358
-4.43811
-4.83766
-4.93303
-4.71355
-4.18941
-3.39207
-2.37344
-1.20356
0.0403917
1.26187
2.37225
3.28693
3.93146
4.25171
4.21893
3.83328
3.12602
2.15695
1.01257
-0.21026
-1.39358
-2.43011
-3.22205
-3.69166
-3.79368
-3.5208
-2.90672
-2.02509
-0.979454
0.172773
1.18946
2.01742
2.55699
2.74594
2.56946
2.06091
1.3016
0.399864
-0.514291
-1.30476
-1.86686
-2.12339
-2.04815
-1.66791
-1.06137
-0.334732
0.381328
0.970989
1.33776
1.43079
1.25358
0.862212
0.348149
-0.182118
-0.619999
-0.895957
-0.98022
-0.890661
-0.682697
-0.427452
-0.190208
-0.0137532
0.087979
0.129987
0.140035
-1.81797
-1.82492
-1.83698
-1.86122
-1.88093
-1.91671
-1.93947
-1.95482
8.21268
8.11965
8.08738
7.98054
7.8271
7.6333
7.38625
7.09464
6.7539
6.36681
5.93313
5.45527
4.93455
4.37349
3.77477
3.14166
2.47787
1.78762
1.07527
0.346379
-0.393525
-1.13882
-1.88342
-2.62084
-3.34433
-4.04694
-4.72159
-5.36111
-5.95836
-6.50613
-6.99746
-7.42555
-7.78401
-8.06679
-8.26835
-8.38385
-8.4091
-8.3408
-8.17705
-7.91698
-7.56089
-7.11045
-6.56878
-5.94024
-5.23071
-4.44781
-3.60029
-2.69827
-1.75368
-0.779444
0.211184
1.20162
2.17622
3.11855
4.01171
4.83867
5.58286
6.22851
6.76098
7.16696
7.43512
7.55656
7.52521
7.3373
6.99261
6.49465
5.85059
5.0714
4.17212
3.1713
2.09124
0.95717
-0.206651
-1.36344
-2.48565
-3.54144
-4.49936
-5.32945
-6.00389
-6.4984
-6.79325
-6.87422
-6.73339
-6.37021
-5.79162
-5.01343
-4.05871
-2.95919
-1.75373
-0.485626
0.793487
2.03092
3.17477
4.17296
4.97768
5.54831
5.8538
5.87397
5.6026
5.04818
4.23416
3.19906
1.99486
0.684405
-0.678919
-1.98135
-3.16745
-4.16331
-4.9049
-5.34212
-5.44281
-5.19525
-4.61142
-3.72662
-2.59863
-1.30468
0.0679186
1.41519
2.63827
3.64391
4.35036
4.69822
4.65617
4.22511
3.44006
2.3673
1.10337
-0.244231
-1.54643
-2.6849
-3.5518
-4.06211
-4.16648
-3.85747
-3.17324
-2.19676
-1.05007
0.236554
1.34522
2.25128
2.83835
3.03787
2.83396
2.26469
1.42061
0.423783
-0.583434
-1.45174
-2.06551
-2.34068
-2.24939
-1.82251
-1.14765
-0.344903
0.443596
1.08934
1.4868
1.58135
1.37841
0.941092
0.37229
-0.209119
-0.686311
-0.981928
-1.06488
-0.957085
-0.721425
-0.4382
-0.17893
0.00950871
0.113833
0.152931
0.159668
-2.2323
-2.23696
-2.24449
-2.25995
-2.27004
-2.29149
-2.29964
-2.30721
8.98133
8.88624
8.828
8.70262
8.5265
8.30769
8.03313
7.71059
7.33565
6.91093
6.4362
5.91391
5.34534
4.73319
4.08015
3.38974
2.66597
1.91342
1.13653
0.342199
-0.464041
-1.27604
-2.08714
-2.89028
-3.67807
-4.44289
-5.17704
-5.87274
-6.52224
-7.1177
-7.65152
-8.11631
-8.50512
-8.81137
-9.02903
-9.15285
-9.17828
-9.10115
-8.91993
-8.63372
-8.24286
-7.74918
-7.15614
-6.46853
-5.69279
-4.8373
-3.91158
-2.92672
-1.89575
-0.832747
0.248107
1.32821
2.39075
3.41779
4.39089
5.29147
6.10146
6.80362
7.3821
7.82234
8.11203
8.2415
8.20449
7.99669
7.61782
7.07186
6.3667
5.51437
4.53135
3.43799
2.25877
1.02126
-0.248996
-1.50996
-2.73282
-3.88281
-4.92557
-5.82846
-6.56121
-7.09733
-7.41538
-7.49997
-7.34215
-6.94162
-6.30617
-5.45299
-4.4076
-3.20439
-1.88613
-0.499913
0.897277
2.24838
3.49653
4.58472
5.46081
6.08053
6.40999
6.42745
6.12595
5.51536
4.62146
3.4864
2.16752
0.734528
-0.752025
-2.17422
-3.46848
-4.55373
-5.36014
-5.83349
-5.93894
-5.66355
-5.02116
-4.05096
-2.81633
-1.40142
0.0963722
1.56569
2.89813
3.99183
4.75809
5.13223
5.08065
4.60496
3.74376
2.56996
1.18919
-0.278945
-1.69668
-2.93385
-3.87306
-4.42232
-4.52834
-4.18351
-3.43031
-2.3605
-1.11801
0.302116
1.49738
2.47948
3.11225
3.32138
3.09018
2.46133
1.53427
0.444871
-0.652439
-1.59606
-2.25944
-2.552
-2.44447
-1.97177
-1.22993
-0.353212
0.505526
1.20533
1.63199
1.72731
1.49875
1.01627
0.394072
-0.236941
-0.751901
-1.06592
-1.14679
-1.02061
-0.757579
-0.447089
-0.166722
0.0327316
0.13883
0.174433
0.177556
-2.58949
-2.59289
-2.59763
-2.60885
-2.61468
-2.62958
-2.63343
-2.64009
9.71004
9.61146
9.53616
9.39641
9.20093
8.95967
8.6596
8.3078
7.90001
7.43909
6.92481
6.35968
5.74501
5.08352
4.37794
3.63204
2.8503
2.03772
1.19766
0.340389
-0.529773
-1.40611
-2.28138
-3.14791
-3.99766
-4.82237
-5.61378
-6.3635
-7.06325
-7.70457
-8.27925
-8.77933
-9.19731
-9.52611
-9.75924
-9.89108
-9.91708
-9.83099
-9.63283
-9.32137
-8.89698
-8.36161
-7.71907
-6.97458
-6.13513
-5.20979
-4.20887
-3.14436
-2.03037
-0.882138
0.285565
1.45175
2.59875
3.70714
4.75698
5.72824
6.60134
7.35762
7.98014
8.45311
8.76327
8.89998
8.85753
8.63039
8.21839
7.62604
6.86194
5.93908
4.87533
3.69281
2.41806
1.08105
-0.291478
-1.6525
-2.97209
-4.21256
-5.33675
-6.30949
-7.09813
-7.67406
-8.01419
-8.10211
-7.92762
-7.49099
-6.80061
-5.87515
-4.74225
-3.43906
-2.01209
-0.512279
0.998609
2.45915
3.80764
4.98234
5.92698
6.5937
6.9459
6.96048
6.62958
5.96455
4.99334
3.76177
2.33223
0.780783
-0.823921
-2.36143
-3.75976
-4.93083
-5.79927
-6.30696
-6.41667
-6.11398
-5.41484
-4.36221
-3.02455
-1.4932
0.125262
1.71169
3.14915
4.32724
5.1507
5.54963
5.48847
4.96936
4.03453
2.76333
1.27003
-0.314198
-1.84261
-3.17441
-4.18267
-4.76886
-4.87595
-4.49605
-3.6759
-2.51488
-1.17401
0.359624
1.64385
2.6997
3.37604
3.59382
3.33586
2.64925
1.64186
0.463256
-0.720273
-1.7361
-2.44666
-2.75532
-2.63162
-2.11446
-1.30771
-0.359829
0.566269
1.3177
1.77189
1.86736
1.61364
1.08732
0.413532
-0.265002
-0.815945
-1.14705
-1.22524
-1.08081
-0.791102
-0.454291
-0.153927
0.0555804
0.162748
0.194423
0.193729
-2.89932
-2.90203
-2.90549
-2.91493
-2.91973
-2.93221
-2.93556
-2.94234
10.4015
10.2968
10.208
10.057
9.84364
9.5827
9.25898
8.8798
8.44089
7.94545
7.39354
6.78767
6.12915
5.42066
4.66484
3.86573
3.02822
2.15789
1.25818
0.340516
-0.590775
-1.52858