# vtk DataFile Version 2.0
tracks
ASCII
DATASET POLYDATA
POINTS 1100 float
-0.5 -0.189972 -0.0352625 -0.5 -0.189972 -0.0352625 -0.5 -0.189972 -0.0352625 -0.5 -0.189972
-0.0352625 -0.5 -0.189972 -0.0352625 -0.5 -0.189972 -0.0352625 -0.3 -0.189972 -0.0352625
-0.1 -0.189972 -0.0352625 0.1 -0.189972 -0.0352625 0.3 -0.189972 -0.0352625 0.5
-0.189972 -0.0352625 -0.5 -0.311408 0.0407339 -0.5 -0.311408 0.0407339 -0.5 -0.311408
0.0407339 -0.5 -0.311408 0.0407339 -0.5 -0.311408 0.0407339 -0.5 -0.311408 0.0407339
-0.3 -0.311408 0.0407339 -0.1 -0.311408 0.0407339 0.1 -0.311408 0.0407339 0.3
-0.311408 0.0407339 0.5 -0.311408 0.0407339 -0.5 -0.394599 0.048131 -0.5 -0.394599
0.048131 -0.5 -0.394599 0.048131 -0.5 -0.394599 0.048131 -0.5 -0.394599 0.048131
-0.5 -0.394599 0.048131 -0.3 -0.394599 0.048131 -0.1 -0.394599 0.048131 0.1
-0.394599 0.048131 0.3 -0.394599 0.048131 0.5 -0.394599 0.048131 -0.5 0.0787885
0.0305379 -0.5 0.0787885 0.0305379 -0.5 0.0787885 0.0305379 -0.5 0.0787885 0.0305379
-0.5 0.0787885 0.0305379 -0.5 0.0787885 0.0305379 -0.3 0.0787885 0.0305379 -0.1
0.0787885 0.0305379 0.1 0.0787885 0.0305379 0.3 0.0787885 0.0305379 0.5 0.0787885
0.0305379 -0.5 -0.137608 0.00861092 -0.5 -0.137608 0.00861092 -0.5 -0.137608 0.00861092
-0.5 -0.137608 0.00861092 -0.5 -0.137608 0.00861092 -0.5 -0.137608 0.00861092 -0.3
-0.137608 0.00861092 -0.1 -0.137608 0.00861092 0.1 -0.137608 0.00861092 0.3 -0.137608
0.00861092 0.5 -0.137608 0.00861092 -0.5 -0.0662189 -0.013454 -0.5 -0.0662189 -0.013454
-0.5 -0.0662189 -0.013454 -0.5 -0.0662189 -0.013454 -0.5 -0.0662189 -0.013454 -0.5
-0.0662189 -0.013454 -0.3 -0.0662189 -0.013454 -0.1 -0.0662189 -0.013454 0.1 -0.0662189
-0.013454 0.3 -0.0662189 -0.013454 0.5 -0.0662189 -0.013454 -0.5 0.229636 -0.00019387
-0.5 0.229636 -0.00019387 -0.5 0.229636 -0.00019387 -0.5 0.229636 -0.00019387 -0.5
0.229636 -0.00019387 -0.5 0.229636 -0.00019387 -0.3 0.229636 -0.00019387 -0.1 0.229636
-0.00019387 0.1 0.229636 -0.00019387 0.3 0.229636 -0.00019387 0.5 0.229636 -0.00019387
-0.5 -0.306116 0.0180773 -0.5 -0.306116 0.0180773 -0.5 -0.306116 0.0180773 -0.5
-0.306116 0.0180773 -0.5 -0.306116 0.0180773 -0.5 -0.306116 0.0180773 -0.3 -0.306116
0.0180773 -0.1 -0.306116 0.0180773 0.1 -0.306116 0.0180773 0.3 -0.306116 0.0180773
0.5 -0.306116 0.0180773 -0.5 0.434905 -0.0224249 -0.5 0.434905 -0.0224249 -0.5
0.434905 -0.0224249 -0.5 0.434905 -0.0224249 -0.5 0.434905 -0.0224249 -0.5 0.434905
-0.0224249 -0.3 0.434905 -0.0224249 -0.1 0.434905 -0.0224249 0.1 0.434905 -0.0224249
0.3 0.434905 -0.0224249 0.5 0.434905 -0.0224249 -0.5 0.389732 0.0266011 -0.5
0.389732 0.0266011 -0.5 0.389732 0.0266011 -0.5 0.389732 0.0266011 -0.5 0.389732
0.0266011 -0.5 0.389732 0.0266011 -0.3 0.389732 0.0266011 -0.1 0.389732 0.0266011
0.1 0.389732 0.0266011 0.3 0.389732 0.0266011 0.5 0.389732 0.0266011 -0.5
-0.130349 0.0109152 -0.5 -0.130349 0.0109152 -0.5 -0.130349 0.0109152 -0.5 -0.130349
0.0109152 -0.5 -0.130349 0.0109152 -0.5 -0.130349 0.0109152 -0.3 -0.130349 0.0109152
-0.1 -0.130349 0.0109152 0.1 -0.130349 0.0109152 0.3 -0.130349 0.0109152 0.5
-0.130349 0.0109152 -0.5 -0.158636 0.00487096 -0.5 -0.158636 0.00487096 -0.5 -0.158636
0.00487096 -0.5 -0.158636 0.00487096 -0.5 -0.158636 0.00487096 -0.5 -0.158636 0.00487096
-0.3 -0.158636 0.00487096 -0.1 -0.158636 0.00487096 0.1 -0.158636 0.00487096 0.3
-0.158636 0.00487096 0.5 -0.158636 0.00487096 -0.5 0.255085 0.00824315 -0.5 0.255085
0.00824315 -0.5 0.255085 0.00824315 -0.5 0.255085 0.00824315 -0.5 0.255085 0.00824315
-0.5 0.255085 0.00824315 -0.3 0.255085 0.00824315 -0.1 0.255085 0.00824315 0.1
0.255085 0.00824315 0.3 0.255085 0.00824315 0.5 0.255085 0.00824315 -0.5 -0.258471
-0.0471 -0.5 -0.258471 -0.0471 -0.5 -0.258471 -0.0471 -0.5 -0.258471 -0.0471
-0.5 -0.258471 -0.0471 -0.5 -0.258471 -0.0471 -0.3 -0.258471 -0.0471 -0.1
-0.258471 -0.0471 0.1 -0.258471 -0.0471 0.3 -0.258471 -0.0471 0.5 -0.258471
-0.0471 -0.5 -0.399434 -0.0432172 -0.5 -0.399434 -0.0432172 -0.5 -0.399434 -0.0432172
-0.5 -0.399434 -0.0432172 -0.5 -0.399434 -0.0432172 -0.5 -0.399434 -0.0432172 -0.3
-0.399434 -0.0432172 -0.1 -0.399434 -0.0432172 0.1 -0.399434 -0.0432172 0.3 -0.399434
-0.0432172 0.5 -0.399434 -0.0432172 -0.5 -0.382991 -0.0448543 -0.5 -0.382991 -0.0448543
-0.5 -0.382991 -0.0448543 -0.5 -0.382991 -0.0448543 -0.5 -0.382991 -0.0448543 -0.5
-0.382991 -0.0448543 -0.3 -0.382991 -0.0448543 -0.1 -0.382991 -0.0448543 0.1 -0.382991
-0.0448543 0.3 -0.382991 -0.0448543 0.5 -0.382991 -0.0448543 -0.5 -0.247931 -0.0323432
-0.5 -0.247931 -0.0323432 -0.5 -0.247931 -0.0323432 -0.5 -0.247931 -0.0323432 -0.5
-0.247931 -0.0323432 -0.5 -0.247931 -0.0323432 -0.3 -0.247931 -0.0323432 -0.1 -0.247931
-0.0323432 0.1 -0.247931 -0.0323432 0.3 -0.247931 -0.0323432 0.5 -0.247931 -0.0323432
-0.5 -0.0309219 -0.037949 -0.5 -0.0309219 -0.037949 -0.5 -0.0309219 -0.037949 -0.5
-0.0309219 -0.037949 -0.5 -0.0309219 -0.037949 -0.5 -0.0309219 -0.037949 -0.3 -0.0309219
-0.037949 -0.1 -0.0309219 -0.037949 0.1 -0.0309219 -0.037949 0.3 -0.0309219 -0.037949
0.5 -0.0309219 -0.037949 -0.5 -0.0344928 0.046765 -0.5 -0.0344928 0.046765 -0.5
-0.0344928 0.046765 -0.5 -0.0344928 0.046765 -0.5 -0.0344928 0.046765 -0.5 -0.0344928
0.046765 -0.3 -0.0344928 0.046765 -0.1 -0.0344928 0.046765 0.1 -0.0344928 0.046765
0.3 -0.0344928 0.046765 0.5 -0.0344928 0.046765 -0.5 -0.288132 -0.038824 -0.5
-0.288132 -0.038824 -0.5 -0.288132 -0.038824 -0.5 -0.288132 -0.038824 -0.5 -0.288132
-0.038824 -0.5 -0.288132 -0.038824 -0.3 -0.288132 -0.038824 -0.1 -0.288132 -0.038824
0.1 -0.288132 -0.038824 0.3 -0.288132 -0.038824 0.5 -0.288132 -0.038824 -0.5
-0.398513 0.0244622 -0.5 -0.398513 0.0244622 -0.5 -0.398513 0.0244622 -0.5 -0.398513
0.0244622 -0.5 -0.398513 0.0244622 -0.5 -0.398513 0.0244622 -0.3 -0.398513 0.0244622
-0.1 -0.398513 0.0244622 0.1 -0.398513 0.0244622 0.3 -0.398513 0.0244622 0.5
-0.398513 0.0244622 -0.5 0.30208 -0.00294058 -0.5 0.30208 -0.00294058 -0.5 0.30208
-0.00294058 -0.5 0.30208 -0.00294058 -0.5 0.30208 -0.00294058 -0.5 0.30208 -0.00294058
-0.3 0.30208 -0.00294058 -0.1 0.30208 -0.00294058 0.1 0.30208 -0.00294058 0.3
0.30208 -0.00294058 0.5 0.30208 -0.00294058 -0.5 0.117703 -0.0147248 -0.5 0.117703
-0.0147248 -0.5 0.117703 -0.0147248 -0.5 0.117703 -0.0147248 -0.5 0.117703 -0.0147248
-0.5 0.117703 -0.0147248 -0.3 0.117703 -0.0147248 -0.1 0.117703 -0.0147248 0.1
0.117703 -0.0147248 0.3 0.117703 -0.0147248 0.5 0.117703 -0.0147248 -0.5 -0.127487
0.0376027 -0.5 -0.127487 0.0376027 -0.5 -0.127487 0.0376027 -0.5 -0.127487 0.0376027
-0.5 -0.127487 0.0376027 -0.5 -0.127487 0.0376027 -0.3 -0.127487 0.0376027 -0.1
-0.127487 0.0376027 0.1 -0.127487 0.0376027 0.3 -0.127487 0.0376027 0.5 -0.127487
0.0376027 -0.5 -0.368987 -0.028997 -0.5 -0.368987 -0.028997 -0.5 -0.368987 -0.028997
-0.5 -0.368987 -0.028997 -0.5 -0.368987 -0.028997 -0.5 -0.368987 -0.028997 -0.3
-0.368987 -0.028997 -0.1 -0.368987 -0.028997 0.1 -0.368987 -0.028997 0.3 -0.368987
-0.028997 0.5 -0.368987 -0.028997 -0.5 -0.231916 -0.0422718 -0.5 -0.231916 -0.0422718
-0.5 -0.231916 -0.0422718 -0.5 -0.231916 -0.0422718 -0.5 -0.231916 -0.0422718 -0.5
-0.231916 -0.0422718 -0.3 -0.231916 -0.0422718 -0.1 -0.231916 -0.0422718 0.1 -0.231916
-0.0422718 0.3 -0.231916 -0.0422718 0.5 -0.231916 -0.0422718 -0.5 0.0662113 0.0490083
-0.5 0.0662113 0.0490083 -0.5 0.0662113 0.0490083 -0.5 0.0662113 0.0490083 -0.5
0.0662113 0.0490083 -0.5 0.0662113 0.0490083 -0.3 0.0662113 0.0490083 -0.1 0.0662113
0.0490083 0.1 0.0662113 0.0490083 0.3 0.0662113 0.0490083 0.5 0.0662113 0.0490083
-0.5 0.320022 0.0102047 -0.5 0.320022 0.0102047 -0.5 0.320022 0.0102047 -0.5
0.320022 0.0102047 -0.5 0.320022 0.0102047 -0.5 0.320022 0.0102047 -0.3 0.320022
0.0102047 -0.1 0.320022 0.0102047 0.1 0.320022 0.0102047 0.3 0.320022 0.0102047
0.5 0.320022 0.0102047 -0.5 -0.246047 0.0188817 -0.5 -0.246047 0.0188817 -0.5
-0.246047 0.0188817 -0.5 -0.246047 0.0188817 -0.5 -0.246047 0.0188817 -0.5 -0.246047
0.0188817 -0.3 -0.246047 0.0188817 -0.1 -0.246047 0.0188817 0.1 -0.246047 0.0188817
0.3 -0.246047 0.0188817 0.5 -0.246047 0.0188817 -0.5 -0.391727 0.011292 -0.5
-0.391727 0.011292 -0.5 -0.391727 0.011292 -0.5 -0.391727 0.011292 -0.5 -0.391727
0.011292 -0.5 -0.391727 0.011292 -0.3 -0.391727 0.011292 -0.1 -0.391727 0.011292
0.1 -0.391727 0.011292 0.3 -0.391727 0.011292 0.5 -0.391727 0.011292 -0.5
0.176341 -0.0447677 -0.5 0.176341 -0.0447677 -0.5 0.176341 -0.0447677 -0.5 0.176341
-0.0447677 -0.5 0.176341 -0.0447677 -0.5 0.176341 -0.0447677 -0.3 0.176341 -0.0447677
-0.1 0.176341 -0.0447677 0.1 0.176341 -0.0447677 0.3 0.176341 -0.0447677 0.5
0.176341 -0.0447677 -0.5 -0.45402 -0.0451537 -0.5 -0.45402 -0.0451537 -0.5 -0.45402
-0.0451537 -0.5 -0.45402 -0.0451537 -0.5 -0.45402 -0.0451537 -0.5 -0.45402 -0.0451537
-0.3 -0.45402 -0.0451537 -0.1 -0.45402 -0.0451537 0.1 -0.45402 -0.0451537 0.3
-0.45402 -0.0451537 0.5 -0.45402 -0.0451537 -0.5 -0.297722 0.0445895 -0.5 -0.297722
0.0445895 -0.5 -0.297722 0.0445895 -0.5 -0.297722 0.0445895 -0.5 -0.297722 0.0445895
-0.5 -0.297722 0.0445895 -0.3 -0.297722 0.0445895 -0.1 -0.297722 0.0445895 0.1
-0.297722 0.0445895 0.3 -0.297722 0.0445895 0.5 -0.297722 0.0445895 -0.5 0.489687
-0.0408618 -0.5 0.489687 -0.0408618 -0.5 0.489687 -0.0408618 -0.5 0.489687 -0.0408618
-0.5 0.489687 -0.0408618 -0.5 0.489687 -0.0408618 -0.3 0.489687 -0.0408618 -0.1
0.489687 -0.0408618 0.1 0.489687 -0.0408618 0.3 0.489687 -0.0408618 0.5 0.489687
-0.0408618 -0.5 -0.241787 0.0440961 -0.5 -0.241787 0.0440961 -0.5 -0.241787 0.0440961
-0.5 -0.241787 0.0440961 -0.5 -0.241787 0.0440961 -0.5 -0.241787 0.0440961 -0.3
-0.241787 0.0440961 -0.1 -0.241787 0.0440961 0.1 -0.241787 0.0440961 0.3 -0.241787
0.0440961 0.5 -0.241787 0.0440961 -0.5 -0.1515 0.00971065 -0.5 -0.1515 0.00971065
-0.5 -0.1515 0.00971065 -0.5 -0.1515 0.00971065 -0.5 -0.1515 0.00971065 -0.5
-0.1515 0.00971065 -0.3 -0.1515 0.00971065 -0.1 -0.1515 0.00971065 0.1 -0.1515
0.00971065 0.3 -0.1515 0.00971065 0.5 -0.1515 0.00971065 -0.5 0.449251 -0.0148932
[...]
POINT_DATA 1100
FIELD attributes 3
age 1 1100 float
-1.72649e-09 -1.38119e-09 -1.03589e-09 -6.90594e-10 -3.45297e-10 0 0.046345 0.0821427 0.117941 0.153741 0.189541
-1.72649e-09 -1.38119e-09 -1.03589e-09 -6.90594e-10 -3.45297e-10 0 0.046345 0.0854468 0.12455 0.163654
0.202759 -1.72649e-09 -1.38119e-09 -1.03589e-09 -6.90594e-10 -3.45297e-10 0 0.046345 0.091022 0.1357
0.18038 0.225062 -1.72649e-09 -1.38119e-09 -1.03589e-09 -6.90594e-10 -3.45297e-10 0 0.046345 0.0797082
0.113072 0.146437 0.179803 -1.72649e-09 -1.38119e-09 -1.03589e-09 -6.90594e-10 -3.45297e-10 0 0.046345
0.0794519 0.106326 0.1332 0.16631 -1.72649e-09 -1.38119e-09 -1.03589e-09 -6.90594e-10 -3.45297e-10 0
0.046345 0.0794519 0.106231 0.13301 0.166119 -1.72649e-09 -1.38119e-09 -1.03589e-09 -6.90594e-10 -3.45297e-10
0 0.046345 0.0794519 0.109536 0.139621 0.17273 -1.72649e-09 -1.38119e-09 -1.03589e-09 -6.90594e-10
-3.45297e-10 0 0.046345 0.0797436 0.113143 0.146543 0.179945 -1.72649e-09 -1.38119e-09 -1.03589e-09
-6.90594e-10 -3.45297e-10 0 0.046345 0.0873539 0.128364 0.169375 0.210388 -1.72649e-09 -1.38119e-09
-1.03589e-09 -6.90594e-10 -3.45297e-10 0 0.046345 0.0843189 0.122294 0.16027 0.198247 -1.72649e-09
-1.38119e-09 -1.03589e-09 -6.90594e-10 -3.45297e-10 0 0.046345 0.0794519 0.106102 0.132752 0.165861
-1.72649e-09 -1.38119e-09 -1.03589e-09 -6.90594e-10 -3.45297e-10 0 0.046345 0.0794519 0.106998 0.134544
0.167653 -1.72649e-09 -1.38119e-09 -1.03589e-09 -6.90594e-10 -3.45297e-10 0 0.046345 0.0794519 0.110564
0.141676 0.174785 -1.72649e-09 -1.38119e-09 -1.03589e-09 -6.90594e-10 -3.45297e-10 0 0.046345 0.0901514
0.133959 0.177769 0.221579 -1.72649e-09 -1.38119e-09 -1.03589e-09 -6.90594e-10 -3.45297e-10 0 0.046345
0.0871565 0.127969 0.168783 0.209598 -1.72649e-09 -1.38119e-09 -1.03589e-09 -6.90594e-10 -3.45297e-10 0
0.046345 0.0883679 0.130392 0.172418 0.214444 -1.72649e-09 -1.38119e-09 -1.03589e-09 -6.90594e-10 -3.45297e-10
0 0.046345 0.0805983 0.114852 0.149107 0.183363 -1.72649e-09 -1.38119e-09 -1.03589e-09 -6.90594e-10
-3.45297e-10 0 0.046345 0.0836922 0.12104 0.15839 0.19574 -1.72649e-09 -1.38119e-09 -1.03589e-09
-6.90594e-10 -3.45297e-10 0 0.046345 0.0898758 0.133408 0.176942 0.220477 -1.72649e-09 -1.38119e-09
-1.03589e-09 -6.90594e-10 -3.45297e-10 0 0.046345 0.0842263 0.122109 0.159992 0.197877 -1.72649e-09
-1.38119e-09 -1.03589e-09 -6.90594e-10 -3.45297e-10 0 0.046345 0.0848732 0.123402 0.161933 0.200464
-1.72649e-09 -1.38119e-09 -1.03589e-09 -6.90594e-10 -3.45297e-10 0 0.046345 0.0795505 0.112757 0.145964
0.179172 -1.72649e-09 -1.38119e-09 -1.03589e-09 -6.90594e-10 -3.45297e-10 0 0.046345 0.0794519 0.10663
0.133808 0.166917 -1.72649e-09 -1.38119e-09 -1.03589e-09 -6.90594e-10 -3.45297e-10 0 0.046345 0.083485
0.120626 0.157768 0.194911 -1.72649e-09 -1.38119e-09 -1.03589e-09 -6.90594e-10 -3.45297e-10 0 0.046345
0.0830707 0.119797 0.156525 0.193254 -1.72649e-09 -1.38119e-09 -1.03589e-09 -6.90594e-10 -3.45297e-10 0
0.046345 0.0864883 0.126633 0.166779 0.206925 -1.72649e-09 -1.38119e-09 -1.03589e-09 -6.90594e-10 -3.45297e-10
0 0.046345 0.0917905 0.137238 0.182686 0.228136 -1.72649e-09 -1.38119e-09 -1.03589e-09 -6.90594e-10
-3.45297e-10 0 0.046345 0.0804265 0.114509 0.148592 0.182676 -1.72649e-09 -1.38119e-09 -1.03589e-09
-6.90594e-10 -3.45297e-10 0 0.046345 0.0794519 0.110191 0.14093 0.174039 -1.72649e-09 -1.38119e-09
-1.03589e-09 -6.90594e-10 -3.45297e-10 0 0.046345 0.0844434 0.122543 0.160644 0.198745 -1.72649e-09
-1.38119e-09 -1.03589e-09 -6.90594e-10 -3.45297e-10 0 0.046345 0.088302 0.13026 0.17222 0.214181
-1.72649e-09 -1.38119e-09 -1.03589e-09 -6.90594e-10 -3.45297e-10 0 0.046345 0.0887893 0.131235 0.173682
0.21613 -1.72649e-09 -1.38119e-09 -1.03589e-09 -6.90594e-10 -3.45297e-10 0 0.046345 0.0881671 0.12999
0.171815 0.213641 -1.72649e-09 -1.38119e-09 -1.03589e-09 -6.90594e-10 -3.45297e-10 0 0.046345 0.0917552
0.137167 0.18258 0.227995 -1.72649e-09 -1.38119e-09 -1.03589e-09 -6.90594e-10 -3.45297e-10 0 0.046345
0.0877981 0.129252 0.170708 0.212165 -1.72649e-09 -1.38119e-09 -1.03589e-09 -6.90594e-10 -3.45297e-10 0
0.046345 0.0794519 0.106766 0.13408 0.16719 -1.72649e-09 -1.38119e-09 -1.03589e-09 -6.90594e-10 -3.45297e-10
0 0.046345 0.0884219 0.1305 0.17258 0.21466 -1.72649e-09 -1.38119e-09 -1.03589e-09 -6.90594e-10
-3.45297e-10 0 0.046345 0.0794519 0.107724 0.135997 0.169107 -1.72649e-09 -1.38119e-09 -1.03589e-09
-6.90594e-10 -3.45297e-10 0 0.046345 0.0794519 0.108391 0.137331 0.17044 -1.72649e-09 -1.38119e-09
-1.03589e-09 -6.90594e-10 -3.45297e-10 0 0.046345 0.090751 0.135158 0.179567 0.223978 -1.72649e-09
-1.38119e-09 -1.03589e-09 -6.90594e-10 -3.45297e-10 0 0.046345 0.0794519 0.106728 0.134004 0.167114
-1.72649e-09 -1.38119e-09 -1.03589e-09 -6.90594e-10 -3.45297e-10 0 0.046345 0.0794519 0.10914 0.138828
0.171938 -1.72649e-09 -1.38119e-09 -1.03589e-09 -6.90594e-10 -3.45297e-10 0 0.046345 0.0841161 0.121888
0.159662 0.197436 -1.72649e-09 -1.38119e-09 -1.03589e-09 -6.90594e-10 -3.45297e-10 0 0.046345 0.0794519
0.107889 0.136326 0.169436 -1.72649e-09 -1.38119e-09 -1.03589e-09 -6.90594e-10 -3.45297e-10 0 0.046345
0.0807645 0.115185 0.149606 0.184028 -1.72649e-09 -1.38119e-09 -1.03589e-09 -6.90594e-10 -3.45297e-10 0
0.046345 0.0818233 0.117303 0.152783 0.188264 -1.72649e-09 -1.38119e-09 -1.03589e-09 -6.90594e-10 -3.45297e-10
0 0.046345 0.0794519 0.107851 0.13625 0.16936 -1.72649e-09 -1.38119e-09 -1.03589e-09 -6.90594e-10
-3.45297e-10 0 0.046345 0.0827484 0.119153 0.155558 0.191965 -1.72649e-09 -1.38119e-09 -1.03589e-09
-6.90594e-10 -3.45297e-10 0 0.046345 0.0794519 0.108551 0.137651 0.170761 -1.72649e-09 -1.38119e-09
-1.03589e-09 -6.90594e-10 -3.45297e-10 0 0.046345 0.0821426 0.117941 0.153741 0.189541 -1.72649e-09
-1.38119e-09 -1.03589e-09 -6.90594e-10 -3.45297e-10 0 0.046345 0.0842745 0.122205 0.160137 0.198069
-1.72649e-09 -1.38119e-09 -1.03589e-09 -6.90594e-10 -3.45297e-10 0 0.046345 0.0794519 0.112408 0.145364
0.178474 -1.72649e-09 -1.38119e-09 -1.03589e-09 -6.90594e-10 -3.45297e-10 0 0.046345 0.0894413 0.132539
0.175638 0.218738 -1.72649e-09 -1.38119e-09 -1.03589e-09 -6.90594e-10 -3.45297e-10 0 0.046345 0.0794519
0.105203 0.130955 0.164064 -1.72649e-09 -1.38119e-09 -1.03589e-09 -6.90594e-10 -3.45297e-10 0 0.046345
0.0864147 0.126485 0.166558 0.206631 -1.72649e-09 -1.38119e-09 -1.03589e-09 -6.90594e-10 -3.45297e-10 0
0.046345 0.0794519 0.111913 0.144375 0.177485 -1.72649e-09 -1.38119e-09 -1.03589e-09 -6.90594e-10 -3.45297e-10
0 0.046345 0.0794519 0.109729 0.140007 0.173117 -1.72649e-09 -1.38119e-09 -1.03589e-09 -6.90594e-10
-3.45297e-10 0 0.046345 0.0834405 0.120537 0.157634 0.194733 -1.72649e-09 -1.38119e-09 -1.03589e-09
-6.90594e-10 -3.45297e-10 0 0.046345 0.0872553 0.128167 0.16908 0.209994 -1.72649e-09 -1.38119e-09
-1.03589e-09 -6.90594e-10 -3.45297e-10 0 0.046345 0.0794519 0.112425 0.145399 0.178509 -1.72649e-09
-1.38119e-09 -1.03589e-09 -6.90594e-10 -3.45297e-10 0 0.046345 0.0801593 0.113974 0.14779 0.181607
-1.72649e-09 -1.38119e-09 -1.03589e-09 -6.90594e-10 -3.45297e-10 0 0.046345 0.0848719 0.1234 0.161929
0.200459 -1.72649e-09 -1.38119e-09 -1.03589e-09 -6.90594e-10 -3.45297e-10 0 0.046345 0.0794519 0.10735
0.135249 0.168359 -1.72649e-09 -1.38119e-09 -1.03589e-09 -6.90594e-10 -3.45297e-10 0 0.046345 0.0904376
0.134532 0.178627 0.222724 -1.72649e-09 -1.38119e-09 -1.03589e-09 -6.90594e-10 -3.45297e-10 0 0.046345
0.0794519 0.111411 0.14337 0.176479 -1.72649e-09 -1.38119e-09 -1.03589e-09 -6.90594e-10 -3.45297e-10 0
0.046345 0.0798369 0.11333 0.146823 0.180318 -1.72649e-09 -1.38119e-09 -1.03589e-09 -6.90594e-10 -3.45297e-10
0 0.046345 0.0794519 0.106154 0.132856 0.165966 -1.72649e-09 -1.38119e-09 -1.03589e-09 -6.90594e-10
-3.45297e-10 0 0.046345 0.0794519 0.105203 0.130955 0.164064 -1.72649e-09 -1.38119e-09 -1.03589e-09
-6.90594e-10 -3.45297e-10 0 0.046345 0.0794519 0.112399 0.145347 0.178456 -1.72649e-09 -1.38119e-09
-1.03589e-09 -6.90594e-10 -3.45297e-10 0 0.046345 0.0856763 0.125009 0.164342 0.203677 -1.72649e-09
-1.38119e-09 -1.03589e-09 -6.90594e-10 -3.45297e-10 0 0.046345 0.0910112 0.135679 0.180348 0.225019
-1.72649e-09 -1.38119e-09 -1.03589e-09 -6.90594e-10 -3.45297e-10 0 0.046345 0.0884743 0.130605 0.172737
0.21487 -1.72649e-09 -1.38119e-09 -1.03589e-09 -6.90594e-10 -3.45297e-10 0 0.046345 0.0826805 0.119017
0.155355 0.191693 -1.72649e-09 -1.38119e-09 -1.03589e-09 -6.90594e-10 -3.45297e-10 0 0.046345 0.0794519
0.111591 0.143731 0.17684 -1.72649e-09 -1.38119e-09 -1.03589e-09 -6.90594e-10 -3.45297e-10 0 0.046345
0.0853462 0.124349 0.163352 0.202357 -1.72649e-09 -1.38119e-09 -1.03589e-09 -6.90594e-10 -3.45297e-10 0
0.046345 0.0794519 0.112165 0.144879 0.177988 -1.72649e-09 -1.38119e-09 -1.03589e-09 -6.90594e-10 -3.45297e-10
0 0.046345 0.0913875 0.136431 0.181477 0.226524 -1.72649e-09 -1.38119e-09 -1.03589e-09 -6.90594e-10
-3.45297e-10 0 0.046345 0.0794519 0.107781 0.136112 0.169221 -1.72649e-09 -1.38119e-09 -1.03589e-09
-6.90594e-10 -3.45297e-10 0 0.046345 0.0794519 0.105203 0.130955 0.164064 -1.72649e-09 -1.38119e-09
-1.03589e-09 -6.90594e-10 -3.45297e-10 0 0.046345 0.0807725 0.115201 0.14963 0.18406 -1.72649e-09
-1.38119e-09 -1.03589e-09 -6.90594e-10 -3.45297e-10 0 0.046345 0.0794519 0.112213 0.144975 0.178084
-1.72649e-09 -1.38119e-09 -1.03589e-09 -6.90594e-10 -3.45297e-10 0 0.046345 0.0827827 0.119221 0.155661
0.192102 -1.72649e-09 -1.38119e-09 -1.03589e-09 -6.90594e-10 -3.45297e-10 0 0.046345 0.0893005 0.132257
0.175216 0.218175 -1.72649e-09 -1.38119e-09 -1.03589e-09 -6.90594e-10 -3.45297e-10 0 0.046345 0.0794519
0.109342 0.139232 0.172342 -1.72649e-09 -1.38119e-09 -1.03589e-09 -6.90594e-10 -3.45297e-10 0 0.046345
0.0901315 0.133919 0.177709 0.2215 -1.72649e-09 -1.38119e-09 -1.03589e-09 -6.90594e-10 -3.45297e-10 0
0.046345 0.0859129 0.125482 0.165052 0.204624 -1.72649e-09 -1.38119e-09 -1.03589e-09 -6.90594e-10 -3.45297e-10
0 0.046345 0.0815556 0.116767 0.151979 0.187193 -1.72649e-09 -1.38119e-09 -1.03589e-09 -6.90594e-10
-3.45297e-10 0 0.046345 0.0904329 0.134522 0.178613 0.222705 -1.72649e-09 -1.38119e-09 -1.03589e-09
-6.90594e-10 -3.45297e-10 0 0.046345 0.0794519 0.110488 0.141525 0.174634 -1.72649e-09 -1.38119e-09
-1.03589e-09 -6.90594e-10 -3.45297e-10 0 0.046345 0.0805591 0.114774 0.14899 0.183206 -1.72649e-09
-1.38119e-09 -1.03589e-09 -6.90594e-10 -3.45297e-10 0 0.046345 0.0794519 0.109405 0.139359 0.172468
-1.72649e-09 -1.38119e-09 -1.03589e-09 -6.90594e-10 -3.45297e-10 0 0.046345 0.0821946 0.118045 0.153897
0.189749 -1.72649e-09 -1.38119e-09 -1.03589e-09 -6.90594e-10 -3.45297e-10 0 0.046345 0.0912362 0.136129
0.181023 0.225919 -1.72649e-09 -1.38119e-09 -1.03589e-09 -6.90594e-10 -3.45297e-10 0 0.046345 0.0794519
0.110523 0.141596 0.174705 -1.72649e-09 -1.38119e-09 -1.03589e-09 -6.90594e-10 -3.45297e-10 0 0.046345
0.0796649 0.112986 0.146307 0.17963 -1.72649e-09 -1.38119e-09 -1.03589e-09 -6.90594e-10 -3.45297e-10 0
0.046345 0.0836591 0.120974 0.15829 0.195608 -1.72649e-09 -1.38119e-09 -1.03589e-09 -6.90594e-10 -3.45297e-10
0 0.046345 0.0815603 0.116777 0.151994 0.187212 -1.72649e-09 -1.38119e-09 -1.03589e-09 -6.90594e-10
-3.45297e-10 0 0.046345 0.0924046 0.138466 0.184529 0.230593 -1.72649e-09 -1.38119e-09 -1.03589e-09
-6.90594e-10 -3.45297e-10 0 0.046345 0.0794519 0.112038 0.144624 0.177734 -1.72649e-09 -1.38119e-09
-1.03589e-09 -6.90594e-10 -3.45297e-10 0 0.046345 0.0794519 0.108389 0.137326 0.170435 
p 1 1100 float
100001 100001 100001 100001 100001 100001 100001 100001 100001 100001 100001
100002 100002 100002 100002 100002 100002 100002 100002 100002 100002
100002 100002 100002 100002 100002 100002 100002 100002 100002 100002
100002 100002 99999.7 99999.7 99999.7 99999.7 99999.7 99999.7 99999.7 99999.7
99999.7 99999.7 99999.6 100001 100001 100001 100001 100001 100001 100001
100001 100001 100001 100001 100001 100001 100001 100001 100001 100001
100001 100001 100001 100001 100000 99998.9 99998.9 99998.9 99998.9 99998.9
99998.9 99998.9 99998.9 99998.9 99998.8 99998.8 100002 100002 100002 100002
100002 100002 100002 100002 100002 100002 100002 99997.7 99997.7 99997.7
99997.7 99997.7 99997.7 99997.7 99997.7 99997.7 99997.6 99997.6 99998 99998
99998 99998 99998 99998 99998 99998 99997.9 99997.9 99997.9 100001
100001 100001 100001 100001 100001 100001 100001 100001 100001 100001
100001 100001 100001 100001 100001 100001 100001 100001 100001 100001
100001 99998.7 99998.7 99998.7 99998.7 99998.7 99998.7 99998.7 99998.7 99998.7
99998.7 99998.6 100002 100002 100002 100002 100002 100002 100002 100002
100002 100002 100002 100002 100002 100002 100002 100002 100002 100002
100002 100002 100002 100002 100002 100002 100002 100002 100002 100002
100002 100002 100002 100002 100002 100002 100002 100002 100002 100002
100002 100002 100002 100002 100002 100002 100000 100000 100000 100000
100000 100000 100000 100000 100000 100000 100000 100000 100000 100000
100000 100000 100000 100000 100000 100000 100000 100000 100002 100002
100002 100002 100002 100002 100002 100002 100002 100002 100002 100002
100002 100002 100002 100002 100002 100002 100002 100002 100002 100002
99998.5 99998.5 99998.5 99998.5 99998.5 99998.5 99998.5 99998.5 99998.4 99998.4
99998.4 99999.5 99999.5 99999.5 99999.5 99999.5 99999.5 99999.5 99999.5 99999.5
99999.5 99999.4 100001 100001 100001 100001 100001 100001 100001 100001
100001 100001 100001 100002 100002 100002 100002 100002 100002 100002
100002 100002 100002 100002 100002 100002 100002 100002 100002 100002
100002 100001 100001 100001 100001 99999.8 99999.8 99999.8 99999.8 99999.8
99999.8 99999.8 99999.8 99999.8 99999.7 99999.7 99998.4 99998.4 99998.4 99998.4
99998.4 99998.4 99998.4 99998.4 99998.3 99998.3 99998.3 100002 100002 100002
100002 100002 100002 100002 100002 100002 100002 100001 100002 100002
100002 100002 100002 100002 100002 100002 100002 100002 100002 99999.2
99999.2 99999.2 99999.2 99999.2 99999.2 99999.2 99999.2 99999.1 99999.1 99999.1
100003 100003 100003 100003 100003 100003 100003 100003 100003 100003
100003 100002 100002 100002 100002 100002 100002 100002 100002 100002
100002 100002 99997.4 99997.4 99997.4 99997.4 99997.4 99997.4 99997.4 99997.4
99997.4 99997.3 99997.3 100002 100002 100002 100002 100002 100002 100002
100002 100002 100001 100001 100001 100001 100001 100001 100001 100001
100001 100001 100001 100001 100001 99997.6 99997.6 99997.6 99997.6 99997.6
99997.6 99997.6 99997.6 99997.6 99997.6 99997.5 99999.2 99999.2 99999.2 99999.2
99999.2 99999.2 99999.2 99999.2 99999.1 99999.1 99999.1 100001 100001 100001
100001 100001 100001 100001 100001 100001 100001 100001 99997.5 99997.5
99997.5 99997.5 99997.5 99997.5 99997.5 99997.4 99997.4 99997.4 99997.4 99999.7
99999.7 99999.7 99999.7 99999.7 99999.7 99999.7 99999.7 99999.7 99999.7 99999.6
99998.9 99998.9 99998.9 99998.9 99998.9 99998.9 99998.9 99998.9 99998.9 99998.9
99998.9 100002 100002 100002 100002 100002 100002 100002 100002 100002
100002 100002 99999.7 99999.7 99999.7 99999.7 99999.7 99999.7 99999.7 99999.7
99999.6 99999.6 99999.6 99998.6 99998.6 99998.6 99998.6 99998.6 99998.6 99998.6
99998.5 99998.5 99998.5 99998.5 99998.8 99998.8 99998.8 99998.8 99998.8 99998.8
99998.8 99998.8 99998.8 99998.8 99998.7 99999.1 99999.1 99999.1 99999.1 99999.1
99999.1 99999.1 99999.1 99999.1 99999.1 99999.1 100002 100002 100002 100002
100002 100002 100002 100002 100002 100002 100002 100000 100000 100000
100000 100000 100000 100000 100000 100000 100000 100000 99998.2 99998.2
99998.2 99998.2 99998.2 99998.2 99998.2 99998.2 99998.1 99998.1 99998.1 100001
100001 100001 100001 100001 100001 100001 100001 100001 100001 100001
100000 100000 100000 100000 100000 100000 100000 100000 100000 100000
100000 99997.6 99997.6 99997.6 99997.6 99997.6 99997.6 99997.5 99997.5 99997.5
99997.5 99997.5 99999.6 99999.6 99999.6 99999.6 99999.6 99999.6 99999.6 99999.6
99999.6 99999.6 99999.5 100001 100001 100001 100001 100001 100001 100001
100001 100001 100001 100001 100001 100001 100001 100001 100001 100001
100001 100001 100000 100000 100000 100000 100000 100000 100000 100000
100000 100000 100000 100000 100000 100000 99999.6 99999.6 99999.6 99999.6
99999.6 99999.6 99999.5 99999.5 99999.5 99999.5 99999.5 99997.7 99997.7 99997.7
99997.7 99997.7 99997.7 99997.7 99997.7 99997.7 99997.7 99997.6 100001 100001
100001 100001 100001 100001 100001 100001 100001 100001 100001 100002
100002 100002 100002 100002 100002 100002 100002 100002 100002 100002
100002 100002 100002 100002 100002 100002 100002 100002 100002 100002
100002 100000 100000 100000 100000 100000 100000 100000 100000 100000
100000 100000 100000 100000 100000 100000 100000 100000 100000 100000
100000 100000 100000 100001 100001 100001 100001 100001 100001 100001
100001 100001 100001 100001 99998.4 99998.4 99998.4 99998.4 99998.4 99998.4
99998.4 99998.4 99998.4 99998.4 99998.3 100001 100001 100001 100001 100001
100001 100001 100001 100001 100001 100001 100000 100000 100000 100000
100000 100000 100000 100000 100000 100000 100000 99998.5 99998.5 99998.5
99998.5 99998.5 99998.5 99998.5 99998.5 99998.5 99998.5 99998.4 99999.3 99999.3
99999.3 99999.3 99999.3 99999.3 99999.3 99999.2 99999.2 99999.2 99999.2 100003
100003 100003 100003 100003 100003 100003 100003 100003 100003 100003
100000 100000 100000 100000 100000 100000 100000 100000 100000 100000
100000 99999.1 99999.1 99999.1 99999.1 99999.1 99999.1 99999.1 99999.1 99999.1
99999 99999 100002 100002 100002 100002 100002 100002 100002 100002
100002 100002 100002 99997.9 99997.9 99997.9 99997.9 99997.9 99997.9 99997.9
99997.9 99997.8 99997.8 99997.8 100002 100002 100002 100002 100002 100002
100002 100002 100002 100002 100002 99997.4 99997.4 99997.4 99997.4 99997.4
99997.4 99997.4 99997.4 99997.4 99997.4 99997.3 100001 100001 100001 100001
100001 100001 100001 100001 100001 100001 100001 100001 100001 100001
100001 100001 100001 100001 100001 100001 100001 100000 100002 100002
100002 100002 100002 100002 100002 100002 100002 100002 100002 100002
100002 100002 100002 100002 100002 100002 100002 100002 100002 100002
99998.1 99998.1 99998.1 99998.1 99998.1 99998.1 99998.1 99998.1 99998.1 99998.1
99998 100003 100003 100003 100003 100003 100003 100003 100003 100003
100003 100003 100001 100001 100001 100001 100001 100001 100001 100001
100001 100001 100001 100002 100002 100002 100002 100002 100002 100002
100002 100001 100001 100001 100003 100003 100003 100003 100003 100003
100003 100003 100002 100002 100002 99998.2 99998.2 99998.2 99998.2 99998.2
99998.2 99998.2 99998.2 99998.2 99998.2 99998.2 99998.8 99998.8 99998.8 99998.8
99998.8 99998.8 99998.8 99998.8 99998.8 99998.8 99998.7 100000 100000 100000
100000 100000 100000 100000 100000 100000 100000 99999.9 99999.2 99999.2
99999.2 99999.2 99999.2 99999.2 99999.2 99999.2 99999.2 99999.1 99999.1 99998.9
99998.9 99998.9 99998.9 99998.9 99998.9 99998.9 99998.9 99998.9 99998.9 99998.8
99998.8 99998.8 99998.8 99998.8 99998.8 99998.8 99998.8 99998.8 99998.8 99998.8
99998.8 99998.7 99998.7 99998.7 99998.7 99998.7 99998.7 99998.7 99998.7 99998.6
99998.6 99998.6 100002 100002 100002 100002 100002 100002 100002 100002
100002 100002 100002 99998.5 99998.5 99998.5 99998.5 99998.5 99998.5 99998.5
99998.5 99998.5 99998.5 99998.5 99998 99998 99998 99998 99998 99998
99998 99998 99998 99998 99997.9 100002 100002 100002 100002 100002
100002 100002 100002 100002 100002 100002 100002 100002 100002 100002
100002 100002 100002 100002 100001 100001 100001 100001 100001 100001
100001 100001 100001 100001 100001 100001 100001 100001 99999.1 99999.1
99999.1 99999.1 99999.1 99999.1 99999.1 99999.1 99999.1 99999.1 99999 
U 3 1100 float
4.31546 0 0 4.31546 1.00448e-17 0 4.31546 2.00897e-17 0 4.31546 3.01345e-17
0 4.31546 4.01794e-17 0 4.31546 5.02242e-17 0 5.58696 1.08214e-09 0
5.58681 1.41918e-09 0 5.58666 1.75623e-09 0 5.58651 2.09328e-09 0 4.31471
1.68524e-09 0 4.31546 0 0 4.31546 1.00448e-17 0 4.31546 2.00897e-17
0 4.31546 3.01345e-17 0 4.31546 4.01794e-17 0 4.31546 5.02242e-17 0
5.11485 8.05518e-10 0 5.1147 1.14257e-09 0 5.11455 1.47962e-09 0 5.1144
1.81666e-09 0 4.31471 1.68524e-09 0 4.31546 0 0 4.31546 1.00448e-17