/*--------------------------------*- C++ -*----------------------------------*\
  =========                 |
  \\      /  F ield         | OpenFOAM: The Open Source CFD Toolbox
   \\    /   O peration     | Website:  https://openfoam.org
    \\  /    A nd           | Version:  12
     \\/     M anipulation  |
\*---------------------------------------------------------------------------*/
FoamFile
{
    format      ascii;
    class       surfaceScalarField;
    location    "5.44";
    object      phi;
}
// * * * * * * * * * * * * * * * * * * * * * * * * * * * * * * * * * * * * * //

dimensions      [1 0 -1 0 0 0 0];

internalField   nonuniform List<scalar> 
7429
(
-0.000114999
0.000114999
-0.000231677
0.000116677
-0.000350214
0.000118538
-0.000470894
0.00012068
-0.000594
0.000123106
-0.000719812
0.000125812
-0.000848597
0.000128785
-0.000980603
0.000132006
-0.00111605
0.00013545
-0.00125513
0.000139075
-0.00139795
0.000142817
-0.00154459
0.000146647
-0.00169508
0.00015049
-0.00184934
0.000154262
-0.00200724
0.000157895
-0.00216854
0.000161302
-0.00233292
0.000164381
-0.00249997
0.000167049
-0.0026692
0.000169232
-0.00284001
0.000170805
-0.00301171
0.000171705
-0.00318356
0.000171841
-0.00335471
0.000171157
-0.00352428
0.000169567
-0.00369133
0.000167048
-0.00385488
0.000163554
-0.00401397
0.000159082
-0.00416756
0.000153599
-0.00431473
0.000147169
-0.00445453
0.000139794
-0.00458605
0.000131524
-0.00470846
0.00012241
-0.00482095
0.00011249
-0.00492275
0.000101795
-0.00501318
9.04365e-05
-0.0050916
7.8415e-05
-0.00515742
6.58276e-05
-0.00521015
5.27269e-05
-0.00524932
3.91688e-05
-0.0052746
2.5278e-05
-0.00528583
1.1235e-05
-0.00528092
-4.90846e-06
-0.00525887
-2.20529e-05
-0.0052201
-3.87728e-05
-0.00516477
-5.53273e-05
-0.00509308
-7.1695e-05
-0.00500523
-8.7846e-05
-0.00490154
-0.000103689
-0.00478236
-0.000119186
-0.00464816
-0.000134197
-0.00449947
-0.000148688
-0.00433698
-0.000162486
-0.00416142
-0.000175566
-0.0039736
-0.00018782
-0.00377446
-0.000199142
-0.00356501
-0.00020945
-0.0033465
-0.000218508
-0.00312025
-0.000226251
-0.00288767
-0.000232577
-0.00265026
-0.000237409
-0.00240975
-0.000240509
-0.00216788
-0.000241875
-0.00192643
-0.000241448
-0.00168737
-0.000239062
-0.0014525
-0.000234867
-0.00122387
-0.000228631
-0.00100334
-0.000220532
-0.000792831
-0.000210505
-0.00059423
-0.000198601
-0.000409314
-0.000184915
-0.000239659
-0.000169655
-8.68114e-05
-0.000152847
4.79819e-05
-0.000134793
0.000163661
-0.000115679
0.00025936
-9.56986e-05
0.000334428
-7.50683e-05
0.000388616
-5.41876e-05
0.000421872
-3.3256e-05
0.000434662
-1.27901e-05
0.00042639
8.27206e-06
0.000398698
2.76922e-05
0.000353334
4.53642e-05
0.000291926
6.14078e-05
0.000216269
7.56568e-05
0.000128658
8.76115e-05
3.16127e-05
9.70449e-05
-7.21331e-05
0.000103746
-0.000179749
0.000107616
-0.000288266
0.000108517
-0.00039458
0.000106314
-0.000495697
0.000101116
-0.00058868
9.29829e-05
-0.000670723
8.20437e-05
-0.00073934
6.86165e-05
-0.000792349
5.3009e-05
-0.00082803
3.56809e-05
-0.000844935
1.69053e-05
-0.000840854
-4.08122e-06
-0.000815438
-2.54154e-05
-0.000770061
-4.5377e-05
-0.000706019
-6.40425e-05
-0.000624819
-8.11995e-05
-0.000528416
-9.64034e-05
-0.000419313
-0.000109103
-0.000300586
-0.000118727
-0.000175701
-0.000124885
-4.84279e-05
-0.000127273
7.72897e-05
-0.000125718
0.00019744
-0.00012015
0.000308113
-0.000110673
0.000405675
-9.75613e-05
0.000486782
-8.11078e-05
0.000548814
-6.20318e-05
0.000589612
-4.07982e-05
0.000608034
-1.84217e-05
0.000601861
6.17312e-06
0.00057196
2.9901e-05
0.000520424
5.1536e-05
0.000449484
7.09398e-05
0.000361759
8.77255e-05
0.000260774
0.000100985
0.000150595
0.00011018
3.57044e-05
0.00011489
-7.9198e-05
0.000114902
-0.000189308
0.00011011
-0.000290145
0.000100837
-0.000377581
8.74359e-05
-0.000448083
7.05021e-05
-0.000498865
5.07822e-05
-0.000527947
2.9082e-05
-0.000534683
6.73586e-06
-0.000517084
-1.75992e-05
-0.000477749
-3.93349e-05
-0.000418551
-5.91985e-05
-0.000342075
-7.64756e-05
-0.000251626
-9.04489e-05
-0.000151087
-0.000100539
-4.47222e-05
-0.000106365
6.31117e-05
-0.000107834
0.000168036
-0.000104924
0.000265896
-9.78603e-05
0.000352976
-8.70799e-05
0.000426097
-7.31207e-05
0.000482692
-5.65958e-05
0.000520934
-3.82414e-05
0.00053998
-1.90465e-05
0.00053911
8.69775e-07
0.000519136
1.99746e-05
0.000481443
3.76924e-05
0.000427847
5.35966e-05
0.000360759
6.70882e-05
0.00028293
7.78284e-05
0.000197477
8.54531e-05
0.000107589
8.98884e-05
1.65007e-05
9.10879e-05
-7.26326e-05
8.91333e-05
-0.000156969
8.43366e-05
-0.000233947
7.6978e-05
-0.000301332
6.73853e-05
-0.000357435
5.6103e-05
-0.000400974
4.35387e-05
-0.000431217
3.02432e-05
-0.00044792
1.67022e-05
-0.000451302
3.38205e-06
-0.000442035
-9.267e-06
-0.00042117
-2.08643e-05
-0.000390093
-3.10768e-05
-0.000350434
-3.96598e-05
-0.000304017
-4.64163e-05
-0.000252838
-5.1179e-05
-0.000198783
-5.4055e-05
-0.000143844
-5.49398e-05
-8.98927e-05
-5.39509e-05
-3.85785e-05
-5.13142e-05
8.59594e-06
-4.71744e-05
5.04254e-05
-4.18294e-05
8.59446e-05
-3.55193e-05
0.000114464
-2.85194e-05
0.000135604
-2.114e-05
0.00014928
-1.36755e-05
0.00015568
-6.40069e-06
0.000155249
4.31433e-07
0.000148724
6.5249e-06
0.000136875
1.18491e-05
0.00012077
1.61044e-05
0.000101535
1.92352e-05
8.02869e-05
2.12483e-05
5.8303e-05
2.19839e-05
3.66582e-05
2.16448e-05
1.64323e-05
2.02259e-05
-1.43535e-06
1.78677e-05
-1.61697e-05
1.47343e-05
-2.71698e-05
1.10001e-05
-3.409e-05
6.9202e-06
-3.68044e-05
2.71445e-06
-3.5445e-05
-1.35943e-06
-3.03667e-05
-5.07825e-06
-2.21924e-05
-8.1743e-06
-1.1732e-05
-1.04604e-05
-1.1732e-05
-8.59122e-05
0.000200911
-0.000173216
0.000203981
-0.000262655
0.000207977
-0.000354836
0.00021286
-0.000450366
0.000218635
-0.000549835
0.000225281
-0.000653803
0.000232753
-0.000762781
0.000240984
-0.000877227
0.000249896
-0.000997529
0.000259377
-0.00112396
0.000269248
-0.00125668
0.000279369
-0.0013958
0.000289605
-0.00154124
0.000299708
-0.00169285
0.000309502
-0.00185032
0.000318773
-0.00201316
0.000327224
-0.00218082
0.000334709
-0.00235256
0.000340966
-0.0025276
0.000345843
-0.00270497
0.000349075
-0.00288368
0.000350554
-0.00306263
0.00035011
-0.00324079
0.000347722
-0.00341704
0.000343303
-0.00359017
0.000336681
-0.00375892
0.000327833
-0.00392231
0.00031699
-0.004079
0.000303855
-0.00422807
0.000288871
-0.00436822
0.000271672
-0.00449843
0.000252613
-0.00461767
0.000231738
-0.00472477
0.000208892
-0.00481887
0.000184536
-0.00489964
0.000159184
-0.00496681
0.000133
-0.00502013
0.000106044
-0.00505918
7.82191e-05
-0.00508346
4.95626e-05
-0.00509245
2.02185e-05
-0.00508461
-1.27425e-05
-0.00506059
-4.60759e-05
-0.00502002
-7.93424e-05
-0.00496272
-0.000112625
-0.00488867
-0.000145749
-0.00479796
-0.000178557
-0.00469085
-0.000210793
-0.00456767
-0.000242372
-0.00442889
-0.000272975
-0.00427504
-0.000302537
-0.00410679
-0.000330738
-0.00392496
-0.000357392
-0.00373041
-0.000382375
-0.00352422
-0.000405326
-0.00330747
-0.000426201
-0.0030816
-0.000444377
-0.00284791
-0.000459943
-0.00260813
-0.000472357
-0.00236369
-0.000481848
-0.0021166
-0.000487605
-0.00186855
-0.000489923
-0.00162165
-0.000488346
-0.00137791
-0.0004828
-0.00113937
-0.000473405
-0.000908121
-0.000459884
-0.00068615
-0.000442502
-0.000475598
-0.000421058
-0.000278482
-0.000395717
-9.65203e-05
-0.000366877
6.87776e-05
-0.000334953
0.000215596
-0.000299666
0.00034251
-0.000261707
0.000448488
-0.000221657
0.000532604
-0.000179814
0.000594293
-0.000136758
0.000633357
-9.32521e-05
0.000650213
-5.01113e-05
0.000645358
-7.93544e-06
0.000617478
3.61517e-05
0.000569933
7.52381e-05
0.000503806
0.000111491
0.000420903
0.000144311
0.000323656
0.000172904
0.000214464
0.000196803
9.60194e-05
0.00021549
-2.84849e-05
0.00022825
-0.0001559
0.000235031
-0.000282885
0.000235502
-0.000406124
0.000229554
-0.000522318
0.000217311
-0.000628282
0.000198947
-0.000721067
0.000174829
-0.000797928
0.000145478
-0.000856675
0.000111755
-0.00089545
7.44564e-05
-0.000912543
3.39984e-05
-0.000906186
-1.04382e-05
-0.000876949
-5.46522e-05
-0.000825826
-9.65008e-05
-0.000754008
-0.00013586
-0.000663173
-0.000172035
-0.000555737
-0.000203839
-0.00043469
-0.00023015
-0.00030353
-0.000249887
-0.000166227
-0.000262189
-2.69658e-05
-0.000266534
0.000109852
-0.000262535
0.000239825
-0.000250123
0.000358701
-0.000229549
0.000462502
-0.000201363
0.000547776
-0.000166381
0.000611667
-0.000125923
0.000651883
-8.10137e-05
0.000667116
-3.36544e-05
0.000656004
1.72848e-05
0.000620081
6.58242e-05
0.000561034
0.000110583
0.000481115
0.000150858
0.000383625
0.000185216
0.000272573
0.000212037
0.000152524
0.000230228
2.85007e-05
0.000238914
-9.44185e-05
0.000237822
-0.000211238
0.000226929
-0.000317178
0.000206777
-0.000407995
0.000178252
-0.000479952
0.00014246
-0.000530416
0.000101246
-0.000557836
5.65018e-05
-0.000560726
9.62588e-06
-0.000539523
-3.88017e-05
-0.000495853
-8.30053e-05
-0.000431841
-0.00012321
-0.000350575
-0.000157742
-0.000255651
-0.000185372
-0.000151385
-0.000204805
-4.21064e-05
-0.000215643
6.75524e-05
-0.000217493
0.000173212
-0.000210584
0.000270759
-0.000195407
0.000356537
-0.000172858
0.000427514
-0.000144098
0.000481408
-0.00011049
0.000516632
-7.3465e-05
0.000532289
-3.47033e-05
0.000528499
4.65941e-06
0.000506166
4.23073e-05
0.000466617
7.72416e-05
0.000411933
0.00010828
0.000344606
0.000134416
0.000267528
0.000154907
0.000183728
0.000169253
9.64116e-05
0.000177205
8.66667e-06
0.000178833
-7.64909e-05
0.000174291
-0.000156397
0.000164242
-0.000228638
0.00014922
-0.000291256
0.000130003
-0.000342713
0.00010756
-0.000381944
8.27695e-05
-0.00040839
5.66887e-05
-0.000421933
3.02455e-05
-0.000422931
4.38006e-06
-0.000412115
-2.00835e-05
-0.000390572
-4.24071e-05
-0.000359676
-6.19723e-05
-0.00032107
-7.82657e-05
-0.000276499
-9.09872e-05
-0.000227743
-9.99353e-05
-0.000176758
-0.00010504
-0.000125314
-0.000106384
-7.49933e-05
-0.000104271
-2.75747e-05
-9.87327e-05
1.58026e-05
-9.05517e-05
5.39503e-05
-7.99772e-05
8.6045e-05
-6.76139e-05
0.000111493
-5.39675e-05
0.000130021
-3.96681e-05
0.000141559
-2.52138e-05
0.0001464
-1.1241e-05
0.00014496
1.87111e-06
0.000137897
1.35884e-05
0.000126039
2.3707e-05
0.000110353
3.17902e-05
9.19377e-05
3.76504e-05
7.18153e-05
4.13707e-05
5.10802e-05
4.2719e-05
3.08194e-05
4.19056e-05
1.20139e-05
3.90314e-05
-4.49407e-06
3.43756e-05
-1.79825e-05
2.82227e-05
-2.79517e-05
2.09693e-05
-3.40659e-05
1.30344e-05
-3.62325e-05
4.88105e-06
-3.45863e-05
-3.0056e-06
-2.94635e-05
-1.02011e-05
-2.14582e-05
-1.61796e-05
-1.13212e-05
-2.05974e-05
-2.30532e-05
-5.09896e-05
0.000251901
-0.000103625
0.000256616
-0.000159052
0.000263403
-0.000218457
0.000272266
-0.000283055
0.000283233
-0.000354075
0.0002963
-0.000432745
0.000311422
-0.000520211
0.00032845
-0.000617587
0.000347271
-0.000725783
0.000367573
-0.00084553
0.000388994
-0.000977262
0.000411101
-0.00112124
0.000433579
-0.00127732
0.000455794
-0.00144518
0.000477361
-0.00162414
0.000497729
-0.00181328
0.000516361
-0.00201148
0.000532912
-0.00221738
0.000546867
-0.00242929
0.000557753
-0.00264544
0.000565229
-0.0028639
0.000569005
-0.00308264
0.000568855
-0.00329954
0.000564622
-0.00351246
0.000556218
-0.0037194
0.000543621
-0.00391866
0.000527098
-0.00410839
0.000506715
-0.00428746
0.000482924
-0.00445438
0.000455795
-0.00460859
0.000425886
-0.0047493
0.000393318
-0.00487598
0.000358423
-0.00498858
0.00032149
-0.00508675
0.000282703
-0.00516985
0.000242281
-0.00523714
0.00020029
-0.00528815
0.000157052
-0.00532266
0.000112738
-0.00534071
6.76065e-05
-0.00534302
2.25282e-05
-0.00532207
-3.3696e-05
-0.00528098
-8.71651e-05
-0.00522078
-0.000139535
-0.00514215
-0.000191259
-0.00504551
-0.000242388
-0.0049312
-0.000292864
-0.00479962
-0.000342376
-0.00465115
-0.000390846
-0.00448626
-0.000437865
-0.00430544
-0.000483356
-0.00410937
-0.000526807
-0.00389875
-0.00056801
-0.00367467
-0.000606449
-0.00343805
-0.000641948
-0.00319033
-0.000673925
-0.00293325
-0.000701459
-0.00266813
-0.000725063
-0.00239708
-0.000743403
-0.00212195
-0.000756978
-0.00184476
-0.00076479
-0.00156786
-0.00076683
-0.00129355
-0.000762655
-0.00102408
-0.000752272
-0.000761941
-0.00073554
-0.00050948
-0.000712345
-0.000269022
-0.000682959
-4.27914e-05
-0.000647289
0.000166961
-0.000605469
0.000357808
-0.000557724
0.000527784
-0.000504929
0.000675244
-0.000447127
0.000798631
-0.000385093
0.000896941
-0.000319967
0.00096904
-0.000251913
0.00101462
-0.000182339
0.00103352
-0.000112152
0.00102654
-4.31327e-05
0.000990557
2.80505e-05
0.000932438
9.42704e-05
0.000851233
0.000156443
0.000748803
0.000213921
0.00062766
0.000265454
0.000490651
0.000309913
0.000340996
0.000346457
0.00018218
0.000374307
1.79402e-05
0.000392489
-0.00014785
0.000400821
-0.000311159
0.000398811
-0.000467945
0.00038634
-0.000614301
0.000363666
-0.000746391
0.000331037
-0.000860773
0.00028921
-0.000954254
0.000238959
-0.00102408
0.000181583
-0.00106858
0.000118951
-0.00108678
5.22026e-05
-0.00107526
-2.1956e-05
-0.0010364
-9.35103e-05
-0.000971029
-0.000161877
-0.000880573
-0.000226316
-0.000767258
-0.00028535
-0.000634381
-0.000336716
-0.000485733
-0.000378797
-0.000325791
-0.000409829
-0.000159483
-0.000428497
8.02032e-06
-0.000434037
0.000171369
-0.000425884
0.000325239
-0.000403994
0.000464512
-0.000368822
0.000584611
-0.000321462
0.00068142
-0.00026319
0.000751735
-0.000196238
0.000793163
-0.000122443
0.000804356
-4.48469e-05
0.000784297
3.73437e-05
0.000735336
0.000114785
0.000659257
0.000186663
0.000559183
0.000250932
0.000439365
0.000305033
0.000304884
0.000346518
0.000161472
0.00037364
1.50567e-05
0.00038533
-0.000128356
0.000381235
-0.00026287
0.000361443
-0.000383054
0.000326961
-0.000484286
0.000279485
-0.000562698
0.000220872
-0.000615249
0.000153797
-0.000640641
8.18939e-05
-0.000638024
7.00872e-06
-0.000608723
-6.81029e-05
-0.000554537
-0.000137191
-0.000478332
-0.000199416
-0.000383869
-0.000252205
-0.000275741
-0.000293501
-0.000158711
-0.000321835
-3.79399e-05
-0.000336414
8.15968e-05
-0.000337029
0.000195068
-0.000324055
0.000298202
-0.000298541
0.00038726
-0.000261915
0.000459332
-0.000216171
0.000512256
-0.000163413
0.000544694
-0.000105903
0.000556298
-4.63081e-05
0.000547672
1.32857e-05
0.000519872
7.01076e-05
0.000474703
0.00012241
0.000414652
0.000168332
0.000342525
0.000206543
0.000261442
0.000235989
0.000174658
0.000256037
8.54528e-05
0.00026641
-3.01883e-06
0.000267305
-8.78474e-05
0.000259119
-0.000166365
0.00024276
-0.000236373
0.000219227
-0.000296055
0.000189685
-0.000344079
0.000155585
-0.000379592
0.000118282
-0.000402241
7.93373e-05
-0.000412132
4.01369e-05
-0.000409761
2.00889e-06
-0.000396054
-3.37902e-05
-0.000372191
-6.62706e-05
-0.000339635
-9.45277e-05
-0.000300066
-0.000117835
-0.000255245
-0.000135808
-0.000206914
-0.000148266
-0.000156958
-0.000154997
-0.000107115
-0.000156227
-5.90102e-05
-0.000152376
-1.40022e-05
-0.000143741
2.67111e-05
-0.000131265
6.20822e-05
-0.000115348
9.13968e-05
-9.69285e-05
0.000114148
-7.6719e-05
0.000130182
-5.57023e-05
0.000139492
-3.4523e-05
0.000142424
-1.41735e-05
0.000139517
4.77826e-06
0.000131326
2.17794e-05
0.00011876
3.62735e-05
0.000102744
4.78057e-05
8.4229e-05
5.61654e-05
6.4422e-05
6.11777e-05
4.42317e-05
6.29093e-05
2.46882e-05
6.14491e-05
6.70347e-06
5.70161e-05
-8.91318e-06
4.99923e-05
-2.15373e-05
4.08469e-05
-3.0674e-05
3.0106e-05
-3.60586e-05
1.8419e-05
-3.76033e-05
6.42576e-06
-3.54595e-05
-5.14934e-06
-2.99935e-05
-1.56671e-05
-2.17387e-05
-2.44344e-05
-1.14421e-05
-3.0894e-05
-3.44953e-05
3.22439e-05
0.000219657
6.3244e-05
0.000225616
8.9889e-05
0.000236757
0.000109723
0.000252432
0.000120104
0.000272851
0.000118286
0.000298119
0.000101443
0.000328266
6.728e-05
0.000362612
1.37192e-05
0.000400832
-6.04921e-05
0.000441784
-0.000156321
0.000484823
-0.000274163
0.000528943
-0.000414
0.000573417
-0.000575343
0.000617137
-0.000757439
0.000659456
-0.000959205
0.000699495
-0.00117921
0.00073637
-0.00141563
0.000769322
-0.00166617
0.000797413
-0.00192832
0.000819898
-0.00219921
0.000836125
-0.00247577
0.000845561
-0.00275485
0.000847931
-0.0030331
0.000842875
-0.00330735
0.00083047
-0.00357421
0.000810476
-0.00383107
0.000783963
-0.00407499
0.000750635
-0.00430436
0.000712294
-0.00451705
0.000668485
-0.00471188
0.000620711
-0.00488755
0.000568989
-0.00504279
0.000513659
-0.00517641
0.000455111
-0.00528952
0.000395813
-0.00538313
0.000335891
-0.00545818
0.000275341
-0.0055142
0.000213078
-0.00555062
0.000149159
-0.00556663
8.36126e-05
-0.00556164
1.75383e-05
-0.00553544
-5.98991e-05
-0.00548972
-0.000132879
-0.00542351
-0.00020575
-0.00533642
-0.000278342
-0.00522852
-0.000350291
-0.00509996
-0.000421422
-0.00495092
-0.00049142
-0.00478186
-0.000559905
-0.00459314
-0.000626585
-0.00438553
-0.000690965
-0.00415995
-0.000752393
-0.00391736
-0.000810598
-0.0036593
-0.000864506
-0.00338723
-0.000914017
-0.00310248
-0.000958681
-0.00280716
-0.000996781
-0.00250306
-0.00102916
-0.00219256
-0.00105391
-0.00187774
-0.0010718
-0.00156159
-0.00108094
-0.00124653
-0.00108189
-0.000935448
-0.00107374
-0.00063124
-0.00105648
-0.000336605
-0.00103017
-5.44501e-05
-0.0009945
0.000212339
-0.000949748
0.000460728
-0.000895678
0.000688003
-0.000832744
0.000891747
-0.000761468
0.00106984
-0.000683018
0.0012201
-0.000597391
0.00134091
-0.000505906
0.00143118
-0.000410236
0.00148972
-0.00031045
0.00151618
-0.000208803
0.00151058
-0.000106552
0.00147133
-3.88322e-06
0.00140292
9.6464e-05
0.0013057
0.000191492
0.00118128
0.000280864
0.00103257
0.000362631
0.000862678
0.000435344
0.000675191
0.0004974
0.000474067
0.000547581
0.000263677
0.000584697
4.87805e-05
0.000607385
-0.00016561
0.000615212
-0.000374758
0.000607959
-0.000573692
0.000585273
-0.000757705
0.00054768
-0.000922367
0.000495698
-0.00106338
0.000430221
-0.0011774
0.00035298
-0.00126077
0.000264953
-0.00131093
0.000169114
-0.00132695
6.82195e-05
-0.00130786
-4.10426e-05
-0.00125495
-0.000146417
-0.00116902
-0.00024781
-0.00105219
-0.000343143
-0.000907701
-0.000429843
-0.000739863
-0.000504555
-0.000553589
-0.000565071
-0.000354655
-0.000608763
-0.000149248
-0.000633903
5.61676e-05
-0.000639453
0.000255017
-0.000624733
0.000440609
-0.000589585
0.000606877
-0.00053509
0.000748343
-0.000462929
0.000859796
-0.000374642
0.000938023
-0.000274465
0.000980581
-0.000165
0.000985762
-5.00287e-05
0.000953444
6.96618e-05
0.000886246
0.000181983
0.000786759
0.00028615
0.00065937
0.000378321
0.000509607
0.000454796
0.000343927
0.000512198
0.000169337
0.00054823
-6.82599e-06
0.000561492
-0.000177323
0.000551731
-0.000335071
0.000519191
-0.000473812
0.000465702
-0.000588355
0.000394028
-0.000674435
0.000306952
-0.000729223
0.000208584
-0.000751662
0.000104333
-0.000740641
-4.01248e-06
-0.000700055
-0.000108689
-0.000631207
-0.000206039
-0.00053818
-0.000292442
-0.000425827
-0.000364558
-0.0002996
-0.000419728
-0.00016546
-0.000455976
-2.91314e-05
-0.000472743
0.000103747
-0.000469907
0.000227914
-0.000448222
0.000338755
-0.000409383
0.000432578
-0.000355739
0.000506511
-0.000290103
0.000558478
-0.00021538
0.000587768
-0.000135193
0.000594416
-5.29568e-05
0.000579443
2.82594e-05
0.000544409
0.000105141
0.000491731
0.000175089
0.000424231
0.000235831
0.000345187
0.000285587
0.000258029
0.000323147
0.000166272
0.000347795
7.33629e-05
0.000359319
-1.74837e-05
0.000358151
-0.000103323
0.000344959
-0.000181632
0.000321069
-0.00025028
0.000287875
-0.000307674
0.000247078
-0.000352619
0.000200531
-0.000384636
0.000150299
-0.000403374
9.80752e-05
-0.000409378
4.61408e-05
-0.000403271
-4.09804e-06
-0.00038615
-5.09111e-05
-0.000359327
-9.30937e-05
-0.000324404
-0.00012945
-0.000283025
-0.000159215
-0.0002371
-0.000181733
-0.000188445
-0.000196922
-0.000138763
-0.000204678
-8.98079e-05
-0.000205182
-4.31085e-05
-0.000199075
1.29197e-07
-0.000186978
3.86706e-05
-0.000169806
7.16832e-05
-0.000148361
9.85221e-05
-0.000123767
0.000118885
-9.7082e-05
0.000132512
-6.93287e-05
0.000139719
-4.17302e-05
0.000140726
-1.51811e-05
0.000136115
9.38939e-06
0.000126633
3.12614e-05
0.000113119
4.97874e-05
9.6483e-05
6.4442e-05
7.77179e-05
7.49305e-05
5.7828e-05
8.10676e-05
3.78464e-05
8.2891e-05
1.87114e-05
8.05841e-05
1.29253e-06
7.4435e-05
-1.36814e-05
6.49662e-05
-2.5589e-05
5.27545e-05
-3.40137e-05
3.85307e-05
-3.8718e-05
2.31232e-05
-3.96456e-05
7.35341e-06
-3.69647e-05
-7.83028e-06
-3.10304e-05
-2.16013e-05
-2.23817e-05
-3.30832e-05
-1.17517e-05
-4.1524e-05
-4.6247e-05
0.000150904
6.87521e-05
0.000300301
7.62187e-05
0.000442912
9.41468e-05
0.000573775
0.000121568
0.000687663
0.000158963
0.000779562
0.000206219
0.000844634
0.000263193
0.000877659
0.000329587
0.000871723
0.000406767
0.000821342
0.000492165
0.000722257
0.000583907
0.000573671
0.000677529
0.000378283
0.000768805
0.000139911
0.000855509
-0.000137078
0.000936444
-0.000447918
0.00101034
-0.000787479
0.00107593
-0.00115045
0.00113229
-0.00153125
0.00117821
-0.00192433
0.00121298
-0.00232348
0.00123528
-0.00272254
0.00124461
-0.00311535
0.00124075
-0.00349545
0.00122298
-0.00385696
0.00119197
-0.00419405
0.00114757
-0.00450254
0.00109245
-0.00477985
0.00102794
-0.00502652
0.000958964
-0.00524364
0.00088561
-0.00543323
0.000810296
-0.00559732
0.00073308
-0.00573854
0.000654877
-0.00585885
0.000575425
-0.00595814
0.000495102
-0.00603595
0.000413699
-0.00609194
0.000331331
-0.00612672
0.000247864
-0.00614115
0.000163589
-0.00613702
7.94745e-05
-0.00610048
-1.89947e-05
-0.00604211
-0.000118276
-0.00596155
-0.000213436
-0.00586013
-0.000307168
-0.00573804
-0.000400436
-0.00559527
-0.000493055
-0.00543152
-0.000585174
-0.00524643
-0.00067651
-0.00504023
-0.000766102
-0.00481334
-0.000853481
-0.00456642
-0.000937887
-0.00430016
-0.00101865
-0.00401557
-0.00109519
-0.00371321
-0.00116686
-0.0033959
-0.00123133
-0.00306472
-0.00128986
-0.00272244
-0.00133906
-0.00237098
-0.00138062
-0.00201294
-0.00141195
-0.00165133
-0.0014334
-0.00128899
-0.00144327
-0.000929157
-0.00144173
-0.000574732
-0.00142816
-0.000229792
-0.00140142
0.000102704
-0.00136267
0.000418959
-0.00131076
0.000715733
-0.00124652
0.000989695
-0.00116964
0.0012377
-0.00108075
0.00145685
-0.000980613
0.00164461
-0.000870775
0.0017986
-0.000751387
0.00191687
-0.00062417
0.00199767
-0.000491039
0.00204085
-0.000353635
0.00204596
-0.00021391
0.0020132
-7.37896e-05
0.00194087
6.84404e-05
0.00183369
0.000203645
0.00169258
0.000332605
0.00152012
0.000453321
0.0013198
0.000562951
0.00109554
0.000659611
0.000851873
0.000741063
0.00059379
0.000805665
0.000326672
0.000851815
5.61797e-05
0.000877878
-0.000211941
0.000883333
-0.000471671
0.000867689
-0.000716834
0.000830437
-0.000941618
0.000772463
-0.00114052
0.000694604
-0.00130885
0.000598544
-0.0014428
0.000486935
-0.00153888
0.00036103
-0.00159448
0.000224716
-0.00160772
8.14641e-05
-0.00157713
-7.16339e-05
-0.00150531
-0.00021824
-0.0013936
-0.000359521
-0.00124489
-0.000491857
-0.00106352
-0.000611209
-0.000854869
-0.000713206
-0.000625095
-0.000794844
-0.000381319
-0.00085254
-0.000131277
-0.000883946
0.000117047
-0.000887777
0.000355592
-0.000863278
0.000576541
-0.000810534
0.000772641
-0.00073119
0.000937151
-0.000627438
0.00106446
-0.00050195
0.00115013
-0.000360132
0.00119198
-0.000206857
0.00118879
-4.68383e-05
0.00114124
0.000117209
0.00105194
0.000271292
0.000924771
0.000413314
0.000765562
0.000537531
0.000581255
0.000639103
0.000379886
0.000713567
0.000170165
0.000757951
-3.9031e-05
0.000770688
-0.00023906
0.00075176
-0.000421716
0.000701847
-0.00057986
0.000623846
-0.000707678
0.000521846
-0.000800502
0.000399776
-0.000856038
0.000264121
-0.000873093
0.000121388
-0.000852807
-2.42983e-05
-0.000797756
-0.00016374
-0.000711473
-0.000292322
-0.000599067
-0.000404848
-0.000466498
-0.000497127
-0.000320398
-0.000565827
-0.000167474
-0.000608899
-1.44116e-05
-0.000625805
0.000132488
-0.000616807
0.000267574
-0.000583308
0.000386121
-0.00052793
0.000484245
-0.000453863
0.000559259
-0.000365117
0.000609686
-0.000265807
0.000634968
-0.000160475
0.000635657
-5.36461e-05
0.000613343
5.05736e-05
0.00057022
0.000148264
0.000509204
0.000236105
0.000433598
0.000311437
0.000347158
0.000372027
0.000253505
0.0004168
0.000156495
0.000444804
5.96691e-05
0.000456145
-3.36455e-05
0.000451466
-0.000120574
0.000431888
-0.000198675
0.00039917
-0.000265953
0.000355153
-0.000321035
0.000302161
-0.000363003
0.000242498
-0.000391376
0.000178672
-0.00040639
0.000113089
-0.000408445
4.81962e-05
-0.000398577
-1.3966e-05
-0.000377983
-7.15056e-05
-0.000348139
-0.000122937
-0.00031075
-0.000166839
-0.000267635
-0.000202329
-0.000220503
-0.000228865
-0.000171358
-0.000246067
-0.000121861
-0.000254175
-7.35547e-05
-0.000253488
-2.81059e-05
-0.000244524
1.35226e-05
-0.000228607
5.0114e-05
-0.000206398
8.09584e-05
-0.000179205
0.000105525
-0.000148334
0.000123586
-0.000115143
0.000135076
-8.08188e-05
0.000140219
-4.68732e-05
0.000139416
-1.43783e-05
0.000133264
1.55411e-05
0.000122531
4.1995e-05
0.000108068
6.42497e-05
9.07682e-05
8.17422e-05
7.16826e-05
9.40162e-05
5.17565e-05
0.000100994
3.19361e-05
0.000102711
1.31509e-05
9.93693e-05
-3.78038e-06
9.13662e-05
-1.81573e-05
7.93431e-05
-2.94396e-05
6.40369e-05
-3.7217e-05
4.6308e-05
-4.12919e-05
2.71981e-05
-4.16451e-05
7.70664e-06
-3.84483e-05
-1.10271e-05
-3.20671e-05
-2.79825e-05
-2.30369e-05
-4.21134e-05
-1.20669e-05
-5.2494e-05
-5.83139e-05
0.000360807
-0.000292055
0.000719809
-0.000282784
0.00106501
-0.000251058
0.00138528
-0.000198697
0.00166582
-0.000121574
0.00188566
-1.36256e-05
0.00205047
9.83786e-05
0.00216637
0.000213693
0.0022038
0.000369339
0.00217677
0.000519195
0.00208514
0.000675533
0.00193628
0.000826385
0.00173271
0.00097238
0.00147815
0.00111007
0.00117523
0.00123937
0.000825766
0.0013598
0.000429811
0.00147188
-1.19203e-05
0.00157402
-0.000489528
0.00165582
-0.000992063
0.00171552
-0.00151076
0.00175398
-0.00203652
0.00177037
-0.00256109
0.00176531
-0.00307388
0.00173577
-0.00356796
0.00168605
-0.00402836
0.00160797
-0.00445041
0.00151451
-0.00480997
0.0013875
-0.00512811
0.0012771
-0.00539692
0.00115442
-0.00562724
0.00104062
-0.00581915
0.000924984
-0.00597825
0.000813976
-0.00610938
0.000706556
-0.00621673
0.000602457
-0.00630114
0.000498103
-0.00636247
0.000392667
-0.00640204
0.00028743
-0.00641717
0.000178722
-0.006402
6.42992e-05
-0.00636447
-5.65177e-05
-0.00630815
-0.000174597
-0.00622918
-0.000292411
-0.00612591
-0.000410442
-0.00599787
-0.000528468
-0.0058446
-0.000646331
-0.00566594
-0.000763828
-0.00546257
-0.000879886
-0.0052343
-0.000994374
-0.00498181
-0.00110597
-0.004705
-0.00121469
-0.00440573
-0.00131793
-0.00408532
-0.0014156
-0.0037452
-0.00150698
-0.00338693
-0.00158959
-0.0030136
-0.0016632
-0.0026267
-0.00172595
-0.00222991
-0.00177741
-0.00182628
-0.00181558
-0.00141885
-0.00184083
-0.00101128
-0.00185085
-0.000607145
-0.00184586
-0.000210803
-0.0018245
0.000174428
-0.00178665
0.000543928
-0.00173217
0.000893769
-0.0016606
0.00122021
-0.00157296
0.0015194
-0.00146883
0.0017876
-0.00134896
0.00202146
-0.00121447
0.00221806
-0.00106738
0.0023747
-0.000908026
0.00248932
-0.000738784
0.00256043
-0.000562151
0.00258682
-0.000380026
0.00256817
-0.000195257
0.00250325
-8.87242e-06
0.00239742
0.00017427
0.00224975
0.000351313
0.00206309
0.000519271
0.00184091
0.000675501
0.0015873
0.000816559
0.00130694
0.000939974
0.00100545
0.00104255
0.000688811
0.0011223
0.00036347
0.00117716
3.64219e-05
0.00120493
-0.00028534
0.00120509
-0.000594985
0.00117733
-0.000885771
0.00112122
-0.00115103
0.00103773
-0.00138454
0.000928113
-0.00157994
0.000793943
-0.00173231
0.000639298
-0.00183827
0.000466997
-0.00189499
0.000281438
-0.0019004
8.68714e-05
-0.00185743
-0.000114607
-0.0017647
-0.000310968
-0.0016245
-0.000499718
-0.00144109
-0.000675267
-0.00121979
-0.000832514
-0.000967416
-0.000965577
-0.000691535
-0.00107072
-0.000400784
-0.00114329
-0.000104324
-0.00118041
0.000188353
-0.00118045
0.000467754
-0.00114268
0.00072459
-0.00106737
0.000950407
-0.000957007
0.00113708
-0.00081411
0.00127889
-0.000643761
0.00137074
-0.000451985
0.00141027
-0.000246383
0.00139601
-3.2583e-05
0.00133071
0.000182514
0.0012168
0.000385197
0.00105957
0.000570543
0.000866322
0.000730783
0.00064566
0.000859764
0.000407364
0.000951863
0.000161772
0.00100354
-8.06718e-05
0.00101313
-0.000309876
0.000980964
-0.000516547
0.000908518
-0.000692685
0.000799984
-0.000832002
0.000661164
-0.000929873
0.000497647
-0.000984073
0.000318321
-0.000993703
0.000131017
-0.000961703
-5.6298e-05
-0.000890604
-0.000234839
-0.000785568
-0.000397358
-0.000652966
-0.00053745
-0.00049986
-0.000650234
-0.000333878
-0.000731809
-0.000162755
-0.000780022
6.06087e-06
-0.000794621
0.000165779
-0.000776525
0.000310389
-0.000727918
0.000435104
-0.000652645
0.000536065
-0.000554824
0.000611097
-0.000440149
0.000658472
-0.000313182
0.000678779
-0.000180783
0.000672862
-4.77287e-05
0.000642951
8.04846e-05
0.000591769
0.000199446
0.000522549
0.000305325
0.000439255
0.00039473
0.000345762
0.00046552
0.000246348
0.000516214
0.000144799
0.000546354
4.47843e-05
0.000556159
-5.03468e-05
0.000546597
-0.000137782
0.000519323
-0.00021517
0.000476558
-0.00028077
0.000420754
-0.000333232
0.000354623
-0.000371884
0.00028115
-0.000396767
0.000203555
-0.000407891
0.000124213
-0.000406229
4.65342e-05
-0.000392866
-2.73283e-05
-0.000369117
-9.52546e-05
-0.000336572
-0.000155483
-0.000297054
-0.000206357
-0.000252412
-0.000246971
-0.000204498
-0.000276779
-0.000155083
-0.000295483
-0.000105869
-0.000303389
-5.86909e-05
-0.000300666
-1.43934e-05
-0.000288822
2.5494e-05
-0.000268494
6.01346e-05
-0.000241038
8.8872e-05
-0.000207943
0.000111277
-0.000170739
0.000127187
-0.000131053
0.000136693
-9.03249e-05
0.000139979
-5.01594e-05
0.00013756
-1.19595e-05
0.000130078
2.30233e-05
0.000118264
5.3809e-05
0.000103052
7.94622e-05
8.53098e-05
9.94839e-05
6.60018e-05
0.000113324
4.6114e-05
0.000120881
2.65385e-05
0.000122287
8.16535e-06
0.000117742
-8.25725e-06
0.000107789
-2.20346e-05
9.31204e-05
-3.26946e-05
7.4697e-05
-3.98593e-05
5.34727e-05
-4.33617e-05
3.07006e-05
-4.32043e-05
7.54925e-06
-3.95727e-05
-1.46587e-05
-3.28295e-05
-3.47257e-05
-2.35018e-05
-5.1441e-05
-1.22823e-05
-6.37136e-05
-7.05962e-05
0.000709328
-0.00100138
0.0014168
-0.000990254
0.00210362
-0.000937883
0.0027531