# Location 0      : (-2.0000000000e-01 -2.0000000000e-01 0.0000000000e+00)
# Location 1      : (2.0000000000e-01 2.0000000000e-01 0.0000000000e+00)
# p               : Interface position
# Location        0                                                          1                                                          
# Time            p                                                          p                                                          
1                 (-2.0000000000e-01  -3.0000000000e-01  0.0000000000e+00  ) (2.0000000000e-01   -3.0000000000e-01  0.0000000000e+00  ) 
