/*--------------------------------*- C++ -*----------------------------------*\
  =========                 |
  \\      /  F ield         | OpenFOAM: The Open Source CFD Toolbox
   \\    /   O peration     | Website:  https://openfoam.org
    \\  /    A nd           | Version:  12
     \\/     M anipulation  |
\*---------------------------------------------------------------------------*/
FoamFile
{
    format      ascii;
    class       volScalarField;
    location    "1600";
    object      epsilon;
}
// * * * * * * * * * * * * * * * * * * * * * * * * * * * * * * * * * * * * * //

dimensions      [0 2 -3 0 0 0 0];

internalField   nonuniform List<scalar> 
80
(
366.988
143.793
81.2689
54.548
39.9931
30.8495
24.5635
19.9788
16.5012
13.7947
11.6533
9.94161
8.56466
7.45248
6.55139
5.81923
5.22245
4.73429
4.33336
4.00262
3.72853
3.50034
3.30951
3.14926
3.01416
2.89991
2.80303
2.72073
2.65074
2.59125
2.54075
2.49804
2.46213
2.4322
2.40762
2.38785
2.3725
2.36125
2.35387
2.35021
2.35021
2.35387
2.36125
2.3725
2.38786
2.40762
2.43221
2.46213
2.49805
2.54076
2.59126
2.65075
2.72074
2.80304
2.89992
3.01417
3.14927
3.30953
3.50035
3.72854
4.00263
4.33337
4.7343
5.22246
5.81923
6.55139
7.45248
8.56466
9.9416
11.6533
13.7947
16.5012
19.9788
24.5635
30.8495
39.9931
54.5479
81.2688
143.793
366.987
)
;

boundaryField
{
    lowerWall
    {
        type            epsilonWallFunction;
        value           uniform 366.988;
    }
    upperWall
    {
        type            epsilonWallFunction;
        value           uniform 366.987;
    }
    front
    {
        type            cyclic;
    }
    back
    {
        type            cyclic;
    }
    defaultFaces
    {
        type            empty;
    }
}


// ************************************************************************* //
