/*--------------------------------*- C++ -*----------------------------------*\
  =========                 |
  \\      /  F ield         | OpenFOAM: The Open Source CFD Toolbox
   \\    /   O peration     | Website:  https://openfoam.org
    \\  /    A nd           | Version:  12
     \\/     M anipulation  |
\*---------------------------------------------------------------------------*/
FoamFile
{
    format      ascii;
    class       volScalarField;
    location    "1600";
    object      k;
}
// * * * * * * * * * * * * * * * * * * * * * * * * * * * * * * * * * * * * * //

dimensions      [0 2 -2 0 0 0 0];

internalField   nonuniform List<scalar> 
80
(
0.689185
0.679124
0.637079
0.602676
0.57231
0.544476
0.518656
0.494755
0.472848
0.453064
0.435516
0.420266
0.407301
0.396537
0.387824
0.380969
0.37575
0.371941
0.36932
0.367684
0.366849
0.366656
0.366967
0.367664
0.36865
0.369841
0.371168
0.372574
0.37401
0.375436
0.376818
0.378129
0.379344
0.380445
0.381415
0.382241
0.382915
0.383426
0.38377
0.383943
0.383943
0.38377
0.383426
0.382915
0.382242
0.381415
0.380445
0.379344
0.378129
0.376819
0.375437
0.374011
0.372575
0.371169
0.369842
0.368651
0.367665
0.366968
0.366657
0.36685
0.367685
0.369321
0.371942
0.375751
0.38097
0.387825
0.396537
0.407301
0.420266
0.435516
0.453064
0.472848
0.494754
0.518655
0.544475
0.57231
0.602675
0.637079
0.679123
0.689184
)
;

boundaryField
{
    lowerWall
    {
        type            kqRWallFunction;
        value           uniform 0.689185;
    }
    upperWall
    {
        type            kqRWallFunction;
        value           uniform 0.689184;
    }
    front
    {
        type            cyclic;
    }
    back
    {
        type            cyclic;
    }
    defaultFaces
    {
        type            empty;
    }
}


// ************************************************************************* //
