/*--------------------------------*- C++ -*----------------------------------*\
  =========                 |
  \\      /  F ield         | OpenFOAM: The Open Source CFD Toolbox
   \\    /   O peration     | Website:  https://openfoam.org
    \\  /    A nd           | Version:  12
     \\/     M anipulation  |
\*---------------------------------------------------------------------------*/
FoamFile
{
    format      ascii;
    class       volVectorField;
    location    "1600";
    object      U;
}
// * * * * * * * * * * * * * * * * * * * * * * * * * * * * * * * * * * * * * //

dimensions      [0 1 -1 0 0 0 0];

internalField   nonuniform List<vector> 
80
(
(6.26534 0 0)
(7.44489 0 0)
(8.08272 0 0)
(8.51774 0 0)
(8.84629 0 0)
(9.1088 0 0)
(9.32559 0 0)
(9.50818 0 0)
(9.66373 0 0)
(9.79702 0 0)
(9.91153 0 0)
(10.0099 0 0)
(10.0944 0 0)
(10.1668 0 0)
(10.2288 0 0)
(10.2819 0 0)
(10.3274 0 0)
(10.3664 0 0)
(10.3999 0 0)
(10.4288 0 0)
(10.4538 0 0)
(10.4754 0 0)
(10.4942 0 0)
(10.5107 0 0)
(10.525 0 0)
(10.5376 0 0)
(10.5486 0 0)
(10.5583 0 0)
(10.5668 0 0)
(10.5743 0 0)
(10.5808 0 0)
(10.5865 0 0)
(10.5914 0 0)
(10.5955 0 0)
(10.599 0 0)
(10.6018 0 0)
(10.6041 0 0)
(10.6058 0 0)
(10.6069 0 0)
(10.6074 0 0)
(10.6074 0 0)
(10.6069 0 0)
(10.6058 0 0)
(10.6041 0 0)
(10.6018 0 0)
(10.599 0 0)
(10.5955 0 0)
(10.5914 0 0)
(10.5865 0 0)
(10.5808 0 0)
(10.5743 0 0)
(10.5668 0 0)
(10.5583 0 0)
(10.5486 0 0)
(10.5376 0 0)
(10.525 0 0)
(10.5106 0 0)
(10.4942 0 0)
(10.4754 0 0)
(10.4538 0 0)
(10.4288 0 0)
(10.3999 0 0)
(10.3664 0 0)
(10.3274 0 0)
(10.2819 0 0)
(10.2288 0 0)
(10.1668 0 0)
(10.0944 0 0)
(10.0099 0 0)
(9.91152 0 0)
(9.79701 0 0)
(9.66372 0 0)
(9.50817 0 0)
(9.32558 0 0)
(9.10879 0 0)
(8.84628 0 0)
(8.51773 0 0)
(8.08271 0 0)
(7.44488 0 0)
(6.26533 0 0)
)
;

boundaryField
{
    lowerWall
    {
        type            noSlip;
    }
    upperWall
    {
        type            noSlip;
    }
    front
    {
        type            cyclic;
    }
    back
    {
        type            cyclic;
    }
    defaultFaces
    {
        type            empty;
    }
}


// ************************************************************************* //
