/*--------------------------------*- C++ -*----------------------------------*\
  =========                 |
  \\      /  F ield         | OpenFOAM: The Open Source CFD Toolbox
   \\    /   O peration     | Website:  https://openfoam.org
    \\  /    A nd           | Version:  12
     \\/     M anipulation  |
\*---------------------------------------------------------------------------*/
FoamFile
{
    format      ascii;
    class       volScalarField;
    location    "4.26";
    object      p_rgh;
}
// * * * * * * * * * * * * * * * * * * * * * * * * * * * * * * * * * * * * * //

dimensions      [1 -1 -2 0 0 0 0];

internalField   nonuniform List<scalar> 
3829
(
-1.52708
-1.52658
-1.52556
-1.524
-1.52189
-1.5192
-1.51592
-1.51203
-1.5075
-1.50233
-1.49648
-1.48994
-1.48269
-1.47471
-1.46597
-1.45646
-1.44617
-1.43506
-1.42312
-1.41033
-1.39669
-1.38216
-1.36675
-1.35043
-1.3332
-1.31505
-1.29598
-1.27597
-1.25504
-1.23318
-1.2104
-1.18671
-1.16212
-1.13665
-1.11032
-1.08315
-1.05518
-1.02645
-0.996985
-0.966847
-0.936087
-0.904765
-0.872945
-0.840702
-0.808114
-0.775267
-0.742253
-0.709172
-0.676128
-0.643231
-0.610596
-0.578344
-0.546598
-0.515483
-0.485129
-0.455662
-0.427212
-0.399905
-0.373861
-0.349196
-0.326017
-0.304428
-0.284519
-0.266368
-0.250036
-0.235576
-0.223011
-0.212351
-0.203594
-0.196716
-0.191668
-0.188379
-0.186749
-0.186653
-0.187944
-0.190455
-0.193999
-0.198375
-0.203371
-0.208763
-0.214318
-0.2198
-0.224972
-0.229603
-0.233469
-0.236365
-0.238104
-0.238534
-0.237521
-0.234774
-0.230298
-0.224109
-0.216255
-0.206807
-0.195867
-0.183567
-0.170087
-0.155646
-0.140501
-0.124934
-0.109259
-0.0937976
-0.0788796
-0.0648325
-0.0519704
-0.0405886
-0.0309518
-0.0232825
-0.0177583
-0.0145057
-0.0135794
-0.0150946
-0.0189127
-0.0249246
-0.0329684
-0.0428256
-0.0542286
-0.0668664
-0.0803948
-0.0944539
-0.108673
-0.122672
-0.13609
-0.148589
-0.159855
-0.169614
-0.177643
-0.183765
-0.187862
-0.189875
-0.189753
-0.187588
-0.183471
-0.177552
-0.17002
-0.161103
-0.151058
-0.140162
-0.128704
-0.11698
-0.105282
-0.0938901
-0.0830696
-0.0730635
-0.064086
-0.0563182
-0.0499084
-0.0449667
-0.041565
-0.0397374
-0.0394795
-0.0407521
-0.0434833
-0.0475713
-0.0528872
-0.0592799
-0.0665803
-0.0746068
-0.0831673
-0.092066
-0.101106
-0.110096
-0.118852
-0.127198
-0.134973
-0.142046
-0.148292
-0.153608
-0.157913
-0.161149
-0.16328
-0.164293
-0.1642
-0.163023
-0.160804
-0.157601
-0.15349
-0.148558
-0.142901
-0.136625
-0.12984
-0.122658
-0.115195
-0.107559
-0.0998571
-0.0921919
-0.0846586
-0.0773448
-0.0703288
-0.0636807
-0.0574616
-0.0517234
-0.0465104
-0.0418604
-0.0378044
-0.0343694
-0.0315788
-0.029454
-0.0280157
-0.0272849
-1.57133
-1.57082
-1.56977
-1.56817
-1.56599
-1.56322
-1.55984
-1.55582
-1.55115
-1.54579
-1.53973
-1.53294
-1.5254
-1.51708
-1.50796
-1.49803
-1.48725
-1.47561
-1.46308
-1.44965
-1.43529
-1.42001
-1.40377
-1.38656
-1.36837
-1.34919
-1.32901
-1.30781
-1.2856
-1.26238
-1.23814
-1.21289
-1.18665
-1.15942
-1.13123
-1.1021
-1.07205
-1.04112
-1.00937
-0.976849
-0.943608
-0.909716
-0.875243
-0.840271
-0.804891
-0.769201
-0.733309
-0.697331
-0.66139
-0.625618
-0.590151
-0.555134
-0.520716
-0.487047
-0.454283
-0.422576
-0.392088
-0.362968
-0.335362
-0.309406
-0.285229
-0.262959
-0.242704
-0.224542
-0.208549
-0.194778
-0.183258
-0.173997
-0.166973
-0.162133
-0.159501
-0.158882
-0.160203
-0.163273
-0.167889
-0.173851
-0.180928
-0.188879
-0.197436
-0.206319
-0.215246
-0.223925
-0.232066
-0.239386
-0.245617
-0.250509
-0.25384
-0.255409
-0.255088
-0.252575
-0.247904
-0.241097
-0.232199
-0.221292
-0.208506
-0.194031
-0.178106
-0.16102
-0.143098
-0.124698
-0.106206
-0.0880213
-0.0705437
-0.0541693
-0.0392724
-0.026202
-0.0152661
-0.00671896
-0.000756061
0.00247753
0.00291768
0.000607024
-0.00439042
-0.0119281
-0.0217785
-0.0336574
-0.0472303
-0.0621179
-0.0779078
-0.0941751
-0.110491
-0.126419
-0.141554
-0.155519
-0.167973
-0.178626
-0.187244
-0.193653
-0.197741
-0.199457
-0.198857
-0.195983
-0.190979
-0.184032
-0.175373
-0.165268
-0.154014
-0.141921
-0.12931
-0.116504
-0.103819
-0.091552
-0.0799813
-0.069359
-0.059906
-0.0518035
-0.045195
-0.0401855
-0.0368375
-0.0351722
-0.0351717
-0.0367816
-0.0399163
-0.0444585
-0.0502649
-0.0571693
-0.0649884
-0.0735283
-0.0825854
-0.0919535
-0.101429
-0.110812
-0.119918
-0.128553
-0.136574
-0.14384
-0.150227
-0.155633
-0.15998
-0.163213
-0.165298
-0.166224
-0.166032
-0.164725
-0.162352
-0.158979
-0.154686
-0.149566
-0.14372
-0.137257
-0.130291
-0.122936
-0.115316
-0.107533
-0.0996998
-0.0919194
-0.0842872
-0.0768906
-0.0698072
-0.0631059
-0.0568466
-0.0510797
-0.0458477
-0.0411866
-0.0371253
-0.0336895
-0.0309008
-0.028779
-0.0273435
-0.0266145
-1.6517
-1.65116
-1.65007
-1.6484
-1.64612
-1.6432
-1.63963
-1.63535
-1.63037
-1.62466
-1.61822
-1.61097
-1.60286
-1.59391
-1.5841
-1.5734
-1.56179
-1.54923
-1.5357
-1.52118
-1.50563
-1.48903
-1.47136
-1.45259
-1.43271
-1.4117
-1.38955
-1.36624
-1.34177
-1.31612
-1.2893
-1.26129
-1.23211
-1.20176
-1.17025
-1.1376
-1.10387
-1.06903
-1.03317
-0.996337
-0.958587
-0.919999
-0.880661
-0.840672
-0.800142
-0.759199
-0.717978
-0.676628
-0.635309
-0.594193
-0.553463
-0.513307
-0.473923
-0.435511
-0.398277
-0.362422
-0.32816
-0.2957
-0.265243
-0.236925
-0.210929
-0.1875
-0.166766
-0.148681
-0.13341
-0.121017
-0.111546
-0.105
-0.101346
-0.100529
-0.102304
-0.106651
-0.113379
-0.122259
-0.133091
-0.145557
-0.159251
-0.173858
-0.189027
-0.20438
-0.21953
-0.234085
-0.247653
-0.259858
-0.270343
-0.278787
-0.284906
-0.288466
-0.289229
-0.286952
-0.281705
-0.273507
-0.262417
-0.248559
-0.232137
-0.213446
-0.192836
-0.170721
-0.147557
-0.123839
-0.1001
-0.076871
-0.0546903
-0.034076
-0.0155109
0.000563483
0.0137701
0.0238075
0.0304513
0.0335628
0.0330123
0.0290118
0.0216485
0.0111695
-0.00209239
-0.0177387
-0.0353134
-0.054314
-0.0742045
-0.0944437
-0.114491
-0.133821
-0.151949
-0.168436
-0.182896
-0.195017
-0.204557
-0.211357
-0.215329
-0.216466
-0.214851
-0.210613
-0.203955
-0.195132
-0.184444
-0.172223
-0.158832
-0.144641
-0.130026
-0.115361
-0.100985
-0.0872305
-0.0743982
-0.0627539
-0.0525233
-0.043887
-0.036981
-0.0318973
-0.0286811
-0.0273332
-0.0278024
-0.0300163
-0.0338651
-0.0392035
-0.0458633
-0.053652
-0.0623628
-0.0717818
-0.081685
-0.0918502
-0.10206
-0.112106
-0.121793
-0.130915
-0.139344
-0.146927
-0.153542
-0.159092
-0.163502
-0.166723
-0.168722
-0.169469
-0.169128
-0.167594
-0.164954
-0.161288
-0.156686
-0.151247
-0.14508
-0.138301
-0.13103
-0.123385
-0.115498
-0.10747
-0.0994176
-0.0914457
-0.0836494
-0.0761157
-0.0689213
-0.0621331
-0.055809
-0.0499962
-0.0447344
-0.0400564
-0.0359882
-0.0325525
-0.0297681
-0.0276523
-0.0262224
-0.0254967
-1.74414
-1.74361
-1.74252
-1.74088
-1.73868
-1.73594
-1.73294
-1.72894
-1.72402
-1.71821
-1.71152
-1.70394
-1.69544
-1.68602
-1.67564
-1.66429
-1.65196
-1.63852
-1.62399
-1.60836
-1.59161
-1.57372
-1.55464
-1.53436
-1.51285
-1.49006
-1.46598
-1.44057
-1.41379
-1.38561
-1.35601
-1.32495
-1.29241
-1.25837
-1.2228
-1.18567
-1.14734
-1.10764
-1.06653
-1.02408
-0.980362
-0.93547
-0.889511
-0.842614
-0.794926
-0.746617
-0.697873
-0.648898
-0.599914
-0.551155
-0.502872
-0.455327
-0.408793
-0.363548
-0.319875
-0.278043
-0.238327
-0.200989
-0.167115
-0.135409
-0.106853
-0.0816736
-0.0600334
-0.0420762
-0.0279193
-0.0176274
-0.0112207
-0.00867837
-0.00994423
-0.0148837
-0.0233354
-0.0350838
-0.0498549
-0.067331
-0.0871507
-0.108902
-0.132263
-0.156462
-0.181134
-0.205749
-0.229772
-0.252658
-0.273874
-0.292909
-0.30929
-0.322575
-0.33239
-0.338425
-0.340482
-0.33827
-0.331874
-0.321316
-0.3067
-0.288242
-0.26628
-0.241252
-0.213673
-0.18414
-0.153306
-0.121863
-0.0905528
-0.0601103
-0.0312604
-0.00469368
0.0189514
0.0391085
0.055312
0.0672108
0.0745608
0.0773272
0.0750375
0.0683282
0.0573766
0.0425471
0.0243192
0.00325412
-0.0200144
-0.0448013
-0.0703968
-0.0961013
-0.121227
-0.145133
-0.167226
-0.186995
-0.204005
-0.217917
-0.228494
-0.235599
-0.239199
-0.239351
-0.236197
-0.229969
-0.220958
-0.209513
-0.196029
-0.180933
-0.164666
-0.147678
-0.130405
-0.113341
-0.0967646
-0.0811025
-0.0666747
-0.0537582
-0.0425818
-0.0333192
-0.0260958
-0.0209832
-0.0180046
-0.0171437
-0.0182569
-0.0212998
-0.0261128
-0.0325149
-0.0403022
-0.0492503
-0.0591233
-0.06968
-0.0806729
-0.0918595
-0.103006
-0.113891
-0.124303
-0.134049
-0.14298
-0.150951
-0.157842
-0.163558
-0.168035
-0.171233
-0.173143
-0.1738
-0.173106
-0.171242
-0.168248
-0.164201
-0.1592
-0.153352
-0.146775
-0.139593
-0.131933
-0.123923
-0.115694
-0.107358
-0.0990314
-0.09082
-0.0828198
-0.0751166
-0.0677855
-0.0608915
-0.0544892
-0.0486224
-0.0433265
-0.0386304
-0.0345563
-0.0311231
-0.0283464
-0.02624
-0.0248183
-0.0240975
-1.87818
-1.87758
-1.87635
-1.87442
-1.87167
-1.8679
-1.86269
-1.85677
-1.84991
-1.84249
-1.83436
-1.82543
-1.81565
-1.80493
-1.79325
-1.78054
-1.76679
-1.75195
-1.73602
-1.71887
-1.70055
-1.681
-1.6602
-1.63808
-1.61462
-1.58974
-1.5634
-1.53556
-1.50616
-1.47514
-1.44244
-1.408
-1.37176
-1.33365
-1.29363
-1.2518
-1.20773
-1.16173
-1.11386
-1.06415
-1.0127
-0.959621
-0.905044
-0.849139
-0.792099
-0.73415
-0.675548
-0.616569
-0.557519
-0.498723
-0.440528
-0.383301
-0.327418
-0.273261
-0.221245
-0.171694
-0.125177
-0.081763
-0.0419478
-0.00602458
0.0256798
0.0528916
0.075382
0.0929569
0.105485
0.112882
0.115125
0.112257
0.104388
0.0916984
0.0744351
0.0529139
0.0275305
-0.00126387
-0.0329566
-0.0669651
-0.102673
-0.139384
-0.176388
-0.212969
-0.248393
-0.281931
-0.312861
-0.340504
-0.364214
-0.383447
-0.397692
-0.40655
-0.409733
-0.407167
-0.398804
-0.384683
-0.365
-0.340122
-0.310557
-0.276941
-0.240008
-0.200605
-0.159638
-0.118074
-0.076926
-0.0371838
0.000180769
0.034249
0.0641935
0.0892968
0.108978
0.122783
0.130441
0.131774
0.127422
0.117112
0.101352
0.0807403
0.0559896
0.0278997
-0.00266096
-0.0347762
-0.067513
-0.0999567
-0.131277
-0.160679
-0.187456
-0.211015
-0.230874
-0.246682
-0.258221
-0.2654
-0.268252
-0.266935
-0.261689
-0.252854
-0.240837
-0.226108
-0.209172
-0.190568
-0.170843
-0.150531
-0.130149
-0.110219
-0.0911295
-0.0733043
-0.0570887
-0.042772
-0.0305843
-0.0206869
-0.0131854
-0.00812389
-0.00548755
-0.00520502
-0.00719728
-0.011275
-0.0172586
-0.024931
-0.0340507
-0.0443581
-0.0555838
-0.0674563
-0.0797014
-0.0920558
-0.104267
-0.1161
-0.12732
-0.13776
-0.147249
-0.155642
-0.162825
-0.168711
-0.173241
-0.176387
-0.178147
-0.178545
-0.177579
-0.175357
-0.171957
-0.167473
-0.162013
-0.155696
-0.148651
-0.14101
-0.13291
-0.124485
-0.115873
-0.107192
-0.0985586
-0.0900811
-0.0818553
-0.0739658
-0.0664856
-0.0594776
-0.0529926
-0.0470698
-0.0417402
-0.0370279
-0.0329507
-0.0295234
-0.0267579
-0.0246644
-0.0232538
-0.0225393
-1.99448
-1.99358
-1.9918
-1.98916
-1.98575
-1.98168
-1.97701
-1.97175
-1.96593
-1.95897
-1.95066
-1.94103
-1.93014
-1.91808
-1.90489
-1.89062
-1.87529
-1.85894
-1.84159
-1.82326
-1.80394
-1.78361
-1.7622
-1.73961
-1.71574
-1.69044
-1.66357
-1.63499
-1.60463
-1.57235
-1.53802
-1.50147
-1.46251
-1.42088
-1.37642
-1.32948
-1.27992
-1.22766
-1.1727
-1.11509
-1.05493
-0.992376
-0.927622
-0.860913
-0.792532
-0.722804
-0.652083
-0.580763
-0.509263
-0.438033
-0.367541
-0.29826
-0.230691
-0.165334
-0.103939
-0.04471
0.010674
0.061747
0.10805
0.149162
0.184694
0.214301
0.237684
0.254608
0.264912
0.26851
0.26539
0.255627
0.239398
0.216962
0.188669
0.154962
0.116392
0.0735792
0.0272229
-0.0218792
-0.0728789
-0.124883
-0.17692
-0.228031
-0.277244
-0.323583
-0.366112
-0.403945
-0.436274
-0.462354
-0.481546
-0.493341
-0.497385
-0.493819
-0.48244
-0.463352
-0.436905
-0.40365
-0.364307
-0.319765
-0.271045
-0.219296
-0.165759
-0.11173
-0.0585548
-0.00754571
0.0400253
0.0829782
0.120269
0.151002
0.174473
0.190204
0.197938
0.197667
0.189703
0.174382
0.152345
0.124416
0.0915796
0.0549091
0.0155583
-0.0252836
-0.0664455
-0.106611
-0.145053
-0.180648
-0.212589
-0.240218
-0.263021
-0.280648
-0.292922
-0.299824
-0.301471
-0.298178
-0.290271
-0.278234
-0.262618
-0.244023
-0.223089
-0.200476
-0.17684
-0.152814
-0.128993
-0.105949
-0.0841395
-0.0640071
-0.0459162
-0.0301643
-0.0169754
-0.00649398
0.00120362
0.0061034
0.00825907
0.00778201
0.00480217
-0.000459505
-0.00776848
-0.0168643
-0.0274632
-0.0392675
-0.0519723
-0.0652742
-0.0788718
-0.0924793
-0.105825
-0.118661
-0.130731
-0.141895
-0.151959
-0.160781
-0.168254
-0.174297
-0.178862
-0.181928
-0.183507
-0.183631
-0.182337
-0.179721
-0.17588
-0.170922
-0.164967
-0.158147
-0.150599
-0.142467
-0.133897
-0.125033
-0.116016
-0.10697
-0.098016
-0.0892613
-0.0808015
-0.0727199
-0.0650875
-0.0579645
-0.0513978
-0.0454216
-0.0400617
-0.0353367
-0.0312602
-0.0278427
-0.0250921
-0.0230149
-0.0216178
-0.0209111
-2.15017
-2.14864
-2.14561
-2.14106
-2.135
-2.12745
-2.11849
-2.10823
-2.09701
-2.085
-2.07456
-2.06335
-2.05167
-2.03948
-2.02644
-2.01212
-1.99632
-1.97911
-1.96076
-1.94155
-1.92161
-1.90096
-1.87949
-1.85703
-1.8334
-1.80836
-1.78168
-1.75314
-1.72271
-1.6901
-1.65491
-1.6168
-1.57555
-1.53035
-1.48204
-1.42985
-1.37379
-1.31386
-1.25014
-1.18276
-1.11187
-1.03771
-0.960544
-0.880714
-0.798598
-0.714646
-0.629341
-0.543205
-0.456803
-0.370721
-0.285591
-0.202083
-0.120911
-0.042786
0.0317839
0.102144
0.167596
0.227508
0.281273
0.328341
0.368206
0.400426
0.424636
0.440544
0.447974
0.446824
0.4371
0.41897
0.392641
0.358484
0.316977
0.26872
0.214455
0.155005
0.0912981
0.024387
-0.0446139
-0.11455
-0.184154
-0.252169
-0.317349
-0.378452
-0.434265
-0.483654
-0.525592
-0.559176
-0.583642
-0.598394
-0.602962
-0.597565
-0.581969
-0.556413
-0.521436
-0.477801
-0.426493
-0.368704
-0.305798
-0.239309
-0.170861
-0.102149
-0.0349192
0.0291434
0.0884225
0.141434
0.186888
0.223704
0.251063
0.26846
0.275671
0.272799
0.260235
0.238634
0.208906
0.172182
0.129772
0.0830867
0.0336108
-0.017143
-0.0676996
-0.116625
-0.162778
-0.205005
-0.242372
-0.274152
-0.299815
-0.31904
-0.331714
-0.337922
-0.337924
-0.332095
-0.320977
-0.305198
-0.28546
-0.262519
-0.237155
-0.210153
-0.18228
-0.154276
-0.126833
-0.100535
-0.0759074
-0.053419
-0.03345
-0.0162976
-0.0021709
0.0088102
0.0165965
0.0212149
0.0227624
0.0213966
0.0173041
0.0107426
0.00199465
-0.0086302
-0.0208058
-0.0341922
-0.0484488
-0.0632412
-0.0782415
-0.0931406
-0.107647
-0.121488
-0.134439
-0.146321
-0.156952
-0.166193
-0.173939
-0.180119
-0.184694
-0.187657
-0.189029
-0.188859
-0.187207
-0.184173
-0.179869
-0.174416
-0.167949
-0.160607
-0.152541
-0.143904
-0.134853
-0.12554
-0.116112
-0.106697
-0.0974201
-0.0883879
-0.0796952
-0.0714235
-0.063642
-0.0564079
-0.0497642
-0.0437398
-0.0383545
-0.0336214
-0.0295494
-0.0261454
-0.0234133
-0.0213553
-0.019974
-0.0192762
-2.31602
-2.31456
-2.31188
-2.30821
-2.30399
-2.29972
-2.29657
-2.29448
-2.29336
-2.28519
-2.27119
-2.25362
-2.23246
-2.20819
-2.18194
-2.155
-2.12837
-2.10262
-2.07804
-2.05472
-2.03276
-2.01196
-1.99185
-1.97171
-1.95074
-1.92801
-1.90276
-1.87286
-1.84414
-1.81343
-1.77962
-1.74108
-1.69875
-1.65281
-1.6018
-1.5454
-1.48349
-1.41604
-1.34317
-1.26511
-1.18219
-1.09477
-1.00331
-0.908313
-0.810315
-0.709901
-0.607713
-0.504441
-0.400819
-0.29763
-0.195668
-0.0958437
0.0010797
0.0943021
0.182941
0.266171
0.343148
0.413086
0.475235
0.528916
0.573512
0.608486
0.633388
0.647886
0.651761
0.644924
0.627441
0.599469
0.561353
0.513586
0.456799
0.391774
0.319474
0.240963
0.157431
0.070226
-0.0192306
-0.109457
-0.19888
-0.285911
-0.368978
-0.446519
-0.517031
-0.579112
-0.631497
-0.67308
-0.702944
-0.720416
-0.725048
-0.716883
-0.695832
-0.662316
-0.617074
-0.561119
-0.495741
-0.422505
-0.343177
-0.259723
-0.174221
-0.0888326
-0.00574984
0.0729128
0.145152
0.209154
0.263355
0.306489
0.337639
0.35626
0.362202
0.355741
0.337468
0.308319
0.269546
0.222653
0.169321
0.111353
0.0506097
-0.0110425
-0.0718024
-0.130044
-0.184364
-0.233467
-0.276331
-0.31218
-0.340487
-0.360985
-0.373654
-0.378693
-0.376542
-0.367712
-0.352906
-0.33293
-0.308657
-0.280997
-0.250887
-0.219235
-0.186922
-0.154777
-0.123671
-0.0940611
-0.0666028
-0.0417875
-0.0199994
-0.00152755
0.0134422
0.0248137
0.0325751
0.0367979
0.0376228
0.0352718
0.0299668
0.0220159
0.011752
-0.000466453
-0.0142706
-0.02928
-0.0451181
-0.0614209
-0.0778345
-0.094028
-0.109696
-0.124513
-0.138332
-0.150917
-0.162094
-0.171729
-0.179724
-0.186017
-0.190581
-0.193418
-0.194565
-0.194085
-0.192057
-0.188593
-0.183816
-0.177862
-0.170876
-0.16301
-0.154425
-0.145283
-0.135751
-0.125994
-0.116158
-0.10638
-0.096787
-0.0874848
-0.0785666
-0.0701119
-0.0621881
-0.0548499
-0.0481362
-0.0420702
-0.036665
-0.0319282
-0.0278644
-0.0244772
-0.0217665
-0.0197302
-0.0183666
-0.0176789
-2.5019
-2.49699
-2.48733
-2.4727
-2.45285
-2.42723
-2.39548
-2.35703
-2.3272
-2.29382
-2.2559
-2.21721
-2.18058
-2.14734
-2.11801
-2.09257
-2.07069
-2.05186
-2.03556
-2.02135
-2.00915
-1.99908
-1.99128
-1.98622
-1.98411
-1.98482
-1.98689
-1.98098
-1.97415
-1.9589
-1.93321
-1.89963
-1.85781
-1.80895
-1.75297
-1.68955
-1.61874
-1.5408
-1.456
-1.36471
-1.26736
-1.16444
-1.0565
-0.944144
-0.828061
-0.709006
-0.58778
-0.46524
-0.342294
-0.219906
-0.0991984
0.0189522
0.133522
0.243419
0.347591
0.445009
0.534655
0.615578
0.68686
0.747685
0.797305
0.835075
0.860481
0.873126
0.872762
0.859284
0.832942
0.793826
0.742408
0.679332
0.605413
0.521647
0.429245
0.329543
0.224029
0.11438
0.00235888
-0.110198
-0.221366
-0.329169
-0.431688
-0.527026
-0.613355
-0.688985
-0.75241
-0.802313
-0.837593
-0.857449
-0.861484
-0.849598
-0.821915
-0.779024
-0.72189
-0.651826
-0.570475
-0.479816
-0.382071
-0.2797
-0.17529
-0.0715156
0.0289221
0.123439
0.209611
0.285267
0.348567
0.39805
0.432712
0.452002
0.455824
0.444855
0.419756
0.381853
0.3328
0.274508
0.209105
0.13881
0.0658869
-0.00742535
-0.0788608
-0.146808
-0.20952
-0.265564
-0.313829
-0.353527
-0.384164
-0.405553
-0.41778
-0.421177
-0.416442
-0.404176
-0.385275
-0.36074
-0.331618
-0.29899
-0.263935
-0.227488
-0.190641
-0.154269
-0.119598
-0.0866634
-0.0564347
-0.0293795
-0.00587406
0.0138073
0.0295028
0.0411514
0.0487796
0.0525035
0.0525073
0.0490949
0.0425119
0.0331172
0.0212966
0.0074565
-0.00799186
-0.0246287
-0.0420433
-0.0598434
-0.0776499
-0.0951126
-0.111922
-0.12766
-0.142326
-0.155582
-0.167271
-0.17727
-0.185486
-0.191869
-0.196399
-0.199093
-0.200001
-0.199202
-0.19679
-0.192892
-0.187643
-0.181192
-0.173694
-0.165313
-0.156216
-0.146579
-0.136576
-0.126389
-0.116157
-0.106029
-0.0961319
-0.0865724
-0.0774403
-0.0688126
-0.0607556
-0.0533218
-0.0465462
-0.0404455
-0.035026
-0.0302897
-0.0262373
-0.0228693
-0.0201823
-0.0181697
-0.0168253
-0.0161484
-2.75145
-2.74596
-2.73601
-2.72225
-2.70733
-2.69298
-2.6891
-2.65763
-2.78568
-2.73802
-2.7083
-2.67523
-2.63544
-2.59112
-2.54469
-2.49816
-2.45349
-2.41246
-2.37644
-2.34625
-2.32255
-2.30469
-2.29145
-2.28086
-2.26944
-2.2546
-2.26393
-2.13064
-2.13455
-2.10627
-2.08413
-2.05756
-2.02304
-1.97738
-1.92019
-1.85129
-1.77162
-1.68242
-1.5845
-1.47853
-1.36515
-1.24501
-1.1188
-0.987283
-0.851286
-0.711724
-0.569591
-0.425942
-0.281892
-0.138609
0.00264392
0.140726
0.274352
0.402253
0.523158
0.635824
0.739038
0.831665
0.912635
0.98097
1.03578
1.07633
1.10201
1.11238
1.1072
1.08643
1.05008
0.998601
0.932536
0.852693
0.760074
0.655906
0.541681
0.419029
0.289762
0.155919
0.0196323
-0.116874
-0.251287
-0.381239
-0.504428
-0.61859
-0.721559
-0.811338
-0.886131
-0.944421
-0.984961
-1.00685
-1.00959
-0.993105
-0.95771
-0.904173
-0.833723
-0.747999
-0.649042
-0.539283
-0.421454
-0.298556
-0.173729
-0.0502088
0.0687507
0.18006
0.280849
0.368568
0.441093
0.496788
0.534571
0.553948
0.555032
0.538419
0.505412
0.457669
0.397261
0.326561
0.248175
0.164766
0.0790014
-0.00657785
-0.0887408
-0.166664
-0.237802
-0.30067
-0.354109
-0.397343
-0.429943
-0.451814
-0.463184
-0.464472
-0.456812
-0.44074
-0.417425
-0.388068
-0.353895
-0.316153
-0.27606
-0.234785
-0.193429
-0.152993
-0.114543
-0.0784961
-0.0456318
-0.016465
0.00862944
0.0293944
0.0456937
0.0575073
0.0649042
0.0680459
0.0671472
0.0626311
0.0547265
0.0438639
0.030478
0.0150191
-0.00205855
-0.0202975
-0.0392565
-0.0585151
-0.0776716
-0.0963543
-0.114213
-0.130917
-0.146347
-0.160228
-0.172392
-0.182719
-0.191128
-0.197577
-0.202056
-0.204594
-0.205253
-0.204131
-0.201337
-0.197009
-0.191298
-0.184362
-0.176367
-0.167485
-0.157895
-0.147779
-0.137321
-0.126726
-0.116113
-0.105651
-0.0954687
-0.0856676
-0.0763354
-0.0675466
-0.0593667
-0.0518464
-0.045017
-0.0388887
-0.0334602
-0.0287278
-0.0246891
-0.0213422
-0.0186806
-0.0166932
-0.015369
-0.0147035
-3.05328
-3.05511
-3.0589
-3.06402
-3.06706
-3.0687
-3.06321
-3.03657
-3.06087
-2.7377
-2.54674
-2.40361
-2.2899
-2.20045
-2.13074
-2.07663
-2.03494
-2.00334
-1.98028
-1.96523
-1.95886
-1.96216
-1.97725
-2.00802
-2.05924
-2.13808
-2.31934
-2.34264
-2.4089
-2.40538
-2.37846
-2.33379
-2.27498
-2.20538
-2.12641
-2.03945
-1.94425
-1.84012
-1.72681
-1.60451
-1.47364
-1.33481
-1.18884
-1.03662
-0.879167
-0.71757
-0.553017
-0.386778
-0.220236
-0.0547544
0.108381
0.267599
0.421406
0.568313
0.706832
0.83552
0.952946
1.05778
1.14878
1.22482
1.28488
1.32809
1.35378
1.36145
1.35082
1.32195
1.27491
1.21015
1.12839
1.03063
0.918084
0.792228
0.654852
0.50791
0.353556
0.194215
0.0324137
-0.129221
-0.28796
-0.44102
-0.585702
-0.719359
-0.839464
-0.943702
-1.03001
-1.09664
-1.14217
-1.16561
-1.16643
-1.14458
-1.10053
-1.03527
-0.950326
-0.847688
-0.729816
-0.599646
-0.46044
-0.315783
-0.169414
-0.0251677
0.113128
0.241854
0.357654
0.457599
0.539284
0.600905
0.641319
0.660111
0.657566
0.634561
0.592767
0.534283
0.461672
0.377801
0.285766
0.18872
0.0897756
-0.00806772
-0.101631
-0.189277
-0.268643
-0.338068
-0.396355
-0.442756
-0.47692
-0.498883
-0.509051
-0.508189
-0.496959
-0.476763
-0.448812
-0.414475
-0.375155
-0.332251
-0.287128
-0.241069
-0.195284
-0.15087
-0.108842
-0.0697854
-0.0344311
-0.00330213
0.0232386
0.0449542
0.0617412
0.0736155
0.0806965
0.0832007
0.0814592
0.0757027
0.0664527
0.0541246
0.0391911
0.0221426
0.00347643
-0.016317
-0.0367668
-0.0574262
-0.0778743
-0.0977214
-0.116567
-0.134172
-0.150326
-0.164784
-0.177381
-0.188003
-0.196578
-0.20307
-0.207483
-0.209856
-0.210264
-0.208821
-0.20565
-0.200905
-0.194746
-0.187344
-0.178873
-0.169513
-0.159451
-0.148879
-0.137984
-0.127008
-0.116032
-0.105258
-0.0948091
-0.0847842
-0.0752669
-0.0663296
-0.0580372
-0.0504395
-0.0435644
-0.037415
-0.0319821
-0.0272564
-0.023233
-0.0199084
-0.0172733
-0.0153118
-0.0140084
-0.0133546
-3.20028
-3.19052
-3.16947
-3.13796
-3.08782
-3.05483
-2.95385
-2.95301
-2.4308
-2.40538
-2.46718
-2.46217
-2.45536
-2.42706
-2.3778
-2.30842
-2.22233
-2.12097
-2.00584
-1.87825
-1.73936
-1.59013
-1.43158
-1.26472
-1.09066
-0.910608
-0.725852
-0.537771
-0.347807
-0.158104
0.0307918
0.216651
0.397793
0.572502
0.739061
0.895752
1.04092
1.17292
1.29023
1.39142
1.47521
1.54046
1.58619
1.61163
1.61624
1.5997
1.56222
1.50379
1.42502
1.32679
1.21027
1.07692
0.928485
0.767056
0.594921
0.4146
0.228913
0.0408012
-0.146693
-0.330406
-0.507124
-0.673744
-0.827223
-0.964666
-1.08344
-1.1812
-1.25599
-1.3062
-1.33074
-1.32904
-1.30114
-1.24767
-1.16986
-1.06952
-0.949036
-0.811312
-0.659798
-0.49832
-0.331074
-0.162422
0.00317029
0.161274
0.307719
0.438661
0.550776
0.6414
0.708554
0.751077
0.768636
0.76174
0.731617
0.680296
0.610395
0.524958
0.427391
0.321311
0.210356
0.0980908
-0.0120689
-0.116845
-0.214063
-0.301373
-0.377008
-0.439763
-0.488926
-0.524254
-0.545924
-0.554516
-0.550948
-0.536173
-0.511708
-0.479011
-0.43964
-0.395165
-0.347144
-0.297076
-0.246353
-0.196276
-0.148056
-0.102639
-0.0607326
-0.023055
0.00987682
0.0377159
0.060252
0.0774154
0.089263
0.0959574
0.0977667
0.0950549
0.0881539
0.0775782
0.0638121
0.0473694
0.0287831
0.00858626
-0.0126969
-0.0345673
-0.0565564
-0.0782272
-0.0991801
-0.118931
-0.137376
-0.154205
-0.169194
-0.182183
-0.193066
-0.201779
-0.208297
-0.212633
-0.214838
-0.214997
-0.213237
-0.209701
-0.204554
-0.197968
-0.190123
-0.1812
-0.171388
-0.160881
-0.149878
-0.13857
-0.12724
-0.115922
-0.104858
-0.0941632
-0.0839326
-0.0742457
-0.0651725
-0.0567779
-0.0491117
-0.0421982
-0.0360336
-0.0306002
-0.0258832
-0.0218761
-0.0185744
-0.0159662
-0.0140309
-0.0127485
-0.0121066
-3.47086
-3.46913
-3.46672
-3.46574
-3.46552
-3.47953
-3.45669
-3.50759
-2.94514
-2.87211
-2.8701
-2.81846
-2.76404
-2.69856
-2.62231
-2.53359
-2.43077
-2.31361
-2.1825
-2.03803
-1.88099
-1.71231
-1.53309
-1.3445
-1.14783
-0.944449
-0.735872
-0.523689
-0.309608
-0.0954495
0.117098
0.326076
0.529528
0.725481
0.911981
1.08708
1.2489
1.39557
1.5254
1.63677
1.72824
1.79854
1.8466
1.87156
1.87286
1.85026
1.80353
1.73323
1.63997
1.52477
1.389
1.23434
1.06281
0.876837
0.67904
0.472311
0.25988
0.0451025
-0.168549
-0.37747
-0.578016
-0.766663
-0.939976
-1.09469
-1.22785
-1.33685
-1.41951
-1.47405
-1.49928
-1.49456
-1.46005
-1.39658
-1.30562
-1.1893
-1.05036
-0.892211
-0.718804
-0.534551
-0.344276
-0.152977
0.0342277
0.212288
0.376475
0.522449
0.646503
0.745707
0.817942
0.862041
0.877777
0.86593
0.828088
0.76669
0.684889
0.586252
0.474713
0.354428
0.229514
0.103988
-0.0182887
-0.133953
-0.240451
-0.335329
-0.416761
-0.483561
-0.535083
-0.571198
-0.59224
-0.598968
-0.592477
-0.573998
-0.545184
-0.50772
-0.463342
-0.413787
-0.360771
-0.305909
-0.250696
-0.196505
-0.144701
-0.0960947
-0.0515241
-0.0117024
0.0228686
0.0518606
0.075097
0.0925388
0.104283
0.11054
0.111621
0.107942
0.0999014
0.0880323
0.0728736
0.0549785
0.0349192
0.013265
-0.0094303
-0.0326419
-0.0558807
-0.0786971
-0.100697
-0.121259
-0.140493
-0.157944
-0.173414
-0.186755
-0.197867
-0.206697
-0.213225
-0.217477
-0.219511
-0.219433
-0.217361
-0.213474
-0.207944
-0.200955
-0.192692
-0.183345
-0.173109
-0.162186
-0.150782
-0.139101
-0.127409
-0.115789
-0.104459
-0.0935388
-0.0831208
-0.0732796
-0.0640826
-0.0555955
-0.0478688
-0.0409238
-0.0347492
-0.0293184
-0.0246115
-0.0206209
-0.0173422
-0.0147608
-0.0128517
-0.0115901
-0.0109601
-3.71964
-3.71918
-3.71825
-3.71766
-3.71595
-3.72186
-3.70355
-3.7278
-3.16314
-3.11471
-3.11519
-3.07353
-3.0212
-2.95114
-2.86509
-2.76322
-2.64581
-2.5129
-2.36492
-2.20246
-2.02632
-1.83746
-1.637
-1.42623
-1.20656
-0.979546
-0.746872
-0.51033
-0.271825
-0.0333429
0.203065
0.435265
0.661074
0.878282
1.0847
1.27814
1.45652
1.61776
1.75995
1.88133
1.98029
2.05544
2.10559
2.12983
2.12753
2.09841
2.04241
1.96005
1.85209
1.71972
1.56451
1.38838
1.19363
0.983005
0.759476
0.52631
0.287148
0.045756
-0.193955
-0.427942
-0.652129
-0.86258
-1.05546
-1.22714
-1.37436
-1.49424
-1.58439
-1.64292
-1.6685
-1.6603
-1.61876
-1.54492
-1.44047
-1.30786
-1.15021
-0.971397
-0.775907
-0.568738
-0.355357
-0.141409
0.06735
0.265221
0.446922
0.607622
0.743227
0.850565
0.927389
0.972547
0.985965
0.968675
0.922659
0.850838
0.756874
0.644876
0.519326
0.3849
0.246185
0.107633
-0.0263572
-0.152509
-0.267868
-0.369867
-0.456652
-0.527061
-0.580554
-0.617115
-0.637249
-0.641899
-0.632351
-0.610084
-0.576914
-0.534731
-0.485446
-0.430956
-0.373124
-0.31367
-0.254183
-0.196082
-0.140961
-0.0893613
-0.0423254
-0.000542879
0.0355058
0.0655151
0.0893389
0.106975
0.118556
0.12434
0.124678
0.120047
0.110893
0.0977764
0.0812836
0.0620057
0.0405496
0.01752
-0.00650154
-0.0309686
-0.0553719
-0.0792508
-0.102245
-0.123513
-0.143492
-0.16151
-0.177415
-0.191069
-0.202382
-0.211307
-0.217834
-0.221996
-0.223862
-0.223545
-0.221182
-0.216963
-0.211074
-0.203706
-0.195054
-0.185312
-0.174681
-0.16337
-0.151594
-0.139566
-0.127541
-0.11564
-0.104066
-0.0929418
-0.0823542
-0.0723731
-0.0630639
-0.0544935
-0.0467139
-0.0397433
-0.033563
-0.0281372
-0.0234412
-0.019467
-0.0162109
-0.0136559
-0.0117725
-0.0105313
-0.00991289
-3.94199
-3.94187
-3.94153
-3.94141
-3.9409
-3.9442
-3.9353
-3.94882
-3.45283
-3.40579
-3.39094
-3.34361
-3.28157
-3.20222
-3.10558
-2.99155
-2.86034
-2.71215
-2.54753
-2.36715
-2.17189
-1.96278
-1.74106
-1.5081
-1.26549
-1.01492
-0.758267
-0.497501
-0.234754
0.0277778
0.287808
0.542974
0.790861
1.02903
1.25505
1.46653
1.66114
1.83663
1.99088
2.12197
2.22814
2.30788
2.3599
2.38323
2.37719
2.34143
2.27603
2.18156
2.05891
1.90942
1.73488
1.53743
1.31966
1.08463
0.835665
0.576399
0.310879
0.0432859
-0.222042
-0.480632
-0.727974
-0.959733
-1.17168
-1.35983
-1.52061
-1.65089
-1.74812
-1.8103
-1.83599
-1.8239
-1.77504
-1.69065
-1.57262
-1.42369
-1.24737
-1.04797
-0.830539
-0.600649
-0.364402
-0.128107
0.101856
0.319151
0.51792
0.69287
0.839535
0.954489
1.0354
1.08115
1.09184
1.06872
1.01425
0.931846
0.825658
0.70035
0.560951
0.412646
0.260468
0.109251
-0.0358622
-0.172059
-0.29578
-0.404404
-0.496075
-0.569679
-0.624776
-0.66149
-0.680495
-0.682916
-0.670243
-0.644179
-0.606713
-0.559923
-0.505891
-0.446664
-0.384236
-0.320433
-0.256921
-0.19512
-0.136979
-0.0825737
-0.0332767
0.0102859
0.0476572
0.0785562
0.102868
0.120626
0.132002
0.137291
0.136885
0.131332
0.121104
0.106796
0.089038
0.0684548
0.0456865
0.021369
-0.00388941
-0.0295223
-0.0550035
-0.0798572
-0.103682
-0.125777
-0.146355
-0.16488
-0.181175
-0.195108
-0.206595
-0.215598
-0.222115
-0.226185
-0.227887
-0.227341
-0.224703
-0.220171
-0.213945
-0.206226
-0.197212
-0.187104
-0.176109
-0.16444
-0.15232
-0.13997
-0.127641
-0.115482
-0.103686
-0.0923767
-0.0816361
-0.071529
-0.0621182
-0.053473
-0.045647
-0.038656
-0.0324736
-0.0270548
-0.0223699
-0.0184116
-0.0151773
-0.0126481
-0.0107896
-0.00956807
-0.00896093
-4.14057
-4.14061
-4.14055
-4.1407
-4.14059
-4.14265
-4.13798
-4.14596
-3.72954
-3.68444
-3.66133
-3.60867
-3.53858
-3.44995
-3.34257
-3.21629
-3.07141
-2.90817
-2.72719
-2.52919
-2.31511
-2.08609
-1.84344
-1.58866
-1.3235
-1.0498
-0.769627
-0.485081
-0.198621
0.0874098
0.370512
0.648093
0.917507
1.17608
1.42117
1.65015
1.8605
2.04976
2.21563
2.35603
2.46907
2.5531
2.60677
2.62906
2.61925
2.57677
2.50199
2.39554
2.2584
2.09208
1.89856
1.68022
1.43991
1.18103
0.907229
0.62251
0.331317
0.0382388
-0.251977
-0.53443
-0.804197
-1.05654
-1.28687
-1.49084
-1.66457
-1.8047
-1.90852
-1.974
-1.99981
-1.98333
-1.92701
-1.8321
-1.70061
-1.53557
-1.34085
-1.12124
-0.882296
-0.630161
-0.371565
-0.113493
0.13709
0.373208
0.588443
0.777037
0.934178
1.05619
1.14072
1.18663
1.19429
1.16507
1.10204
1.00904
0.890751
0.752365
0.599449
0.43769
0.272539
0.109099
-0.0463996
-0.192168
-0.323706
-0.438435
-0.534524
-0.610928
-0.667306
-0.703925
-0.721634
-0.72174