/*--------------------------------*- C++ -*----------------------------------*\
  =========                 |
  \\      /  F ield         | OpenFOAM: The Open Source CFD Toolbox
   \\    /   O peration     | Website:  https://openfoam.org
    \\  /    A nd           | Version:  12
     \\/     M anipulation  |
\*---------------------------------------------------------------------------*/
FoamFile
{
    format      ascii;
    class       volVectorField;
    location    "4.26";
    object      U;
}
// * * * * * * * * * * * * * * * * * * * * * * * * * * * * * * * * * * * * * //

dimensions      [0 1 -1 0 0 0 0];

internalField   nonuniform List<vector> 
3829
(
(-2.59583e-06 2.24574e-05 0)
(-7.82308e-06 2.24854e-05 0)
(-1.31596e-05 2.27505e-05 0)
(-1.86461e-05 2.31476e-05 0)
(-2.43158e-05 2.36715e-05 0)
(-3.02138e-05 2.43176e-05 0)
(-3.63955e-05 2.50758e-05 0)
(-4.28631e-05 2.59298e-05 0)
(-4.96516e-05 2.68724e-05 0)
(-5.6805e-05 2.78679e-05 0)
(-6.43045e-05 2.89028e-05 0)
(-7.22396e-05 2.99412e-05 0)
(-8.05819e-05 3.09688e-05 0)
(-8.92949e-05 3.19475e-05 0)
(-9.84105e-05 3.28599e-05 0)
(-0.000107883 3.36612e-05 0)
(-0.000117695 3.43233e-05 0)
(-0.000127808 3.48267e-05 0)
(-0.000138171 3.51421e-05 0)
(-0.000148727 3.52461e-05 0)
(-0.000159408 3.51195e-05 0)
(-0.000170137 3.47454e-05 0)
(-0.000180839 3.41114e-05 0)
(-0.000191422 3.32068e-05 0)
(-0.000201793 3.20265e-05 0)
(-0.00021186 3.05701e-05 0)
(-0.000221545 2.8842e-05 0)
(-0.000230706 2.68494e-05 0)
(-0.000239262 2.46104e-05 0)
(-0.000247115 2.21395e-05 0)
(-0.000254214 1.9455e-05 0)
(-0.000260499 1.65913e-05 0)
(-0.000265827 1.3574e-05 0)
(-0.000270202 1.04302e-05 0)
(-0.000273494 7.19679e-06 0)
(-0.00027568 3.89755e-06 0)
(-0.000276829 5.83578e-07 0)
(-0.00027681 -2.70139e-06 0)
(-0.000275593 -5.94506e-06 0)
(-0.000273249 -9.11701e-06 0)
(-0.000269823 -1.21742e-05 0)
(-0.000265277 -1.50955e-05 0)
(-0.000259684 -1.7851e-05 0)
(-0.000253099 -2.0409e-05 0)
(-0.000245536 -2.27518e-05 0)
(-0.000237102 -2.48573e-05 0)
(-0.000227855 -2.67082e-05 0)
(-0.000217883 -2.82899e-05 0)
(-0.000207272 -2.95907e-05 0)
(-0.000196125 -3.06029e-05 0)
(-0.000184546 -3.13197e-05 0)
(-0.000172636 -3.17391e-05 0)
(-0.000160515 -3.18624e-05 0)
(-0.000148277 -3.16793e-05 0)
(-0.000136031 -3.1226e-05 0)
(-0.000123905 -3.0497e-05 0)
(-0.000111981 -2.95048e-05 0)
(-0.000100391 -2.82744e-05 0)
(-8.93607e-05 -2.68156e-05 0)
(-7.88723e-05 -2.51274e-05 0)
(-6.899e-05 -2.32623e-05 0)
(-5.98701e-05 -2.12098e-05 0)
(-5.15464e-05 -1.90625e-05 0)
(-4.39987e-05 -1.6772e-05 0)
(-3.75365e-05 -1.44487e-05 0)
(-3.20544e-05 -1.20374e-05 0)
(-2.74708e-05 -9.64231e-06 0)
(-2.40384e-05 -7.24931e-06 0)
(-2.16392e-05 -4.92098e-06 0)
(-2.0255e-05 -2.6593e-06 0)
(-1.99501e-05 -5.32587e-07 0)
(-2.06253e-05 1.49463e-06 0)
(-2.22084e-05 3.2919e-06 0)
(-2.46076e-05 4.91934e-06 0)
(-2.7736e-05 6.30924e-06 0)
(-3.15482e-05 7.46614e-06 0)
(-3.57789e-05 8.37298e-06 0)
(-4.04688e-05 8.98257e-06 0)
(-4.54253e-05 9.3334e-06 0)
(-5.04873e-05 9.38238e-06 0)
(-5.55302e-05 9.1771e-06 0)
(-6.04211e-05 8.66159e-06 0)
(-6.4985e-05 7.91508e-06 0)
(-6.90803e-05 6.90529e-06 0)
(-7.2622e-05 5.67871e-06 0)
(-7.54518e-05 4.25603e-06 0)
(-7.74679e-05 2.67639e-06 0)
(-7.84904e-05 9.76988e-07 0)
(-7.84782e-05 -8.17143e-07 0)
(-7.73231e-05 -2.65903e-06 0)
(-7.50049e-05 -4.50038e-06 0)
(-7.15371e-05 -6.29343e-06 0)
(-6.69559e-05 -8.0084e-06 0)
(-6.13516e-05 -9.59797e-06 0)
(-5.47818e-05 -1.10199e-05 0)
(-4.73467e-05 -1.2233e-05 0)
(-3.91673e-05 -1.32069e-05 0)
(-3.03885e-05 -1.39082e-05 0)
(-2.11835e-05 -1.4323e-05 0)
(-1.17318e-05 -1.44325e-05 0)
(-2.23673e-06 -1.42344e-05 0)
(7.09494e-06 -1.37288e-05 0)
(1.60669e-05 -1.29298e-05 0)
(2.44598e-05 -1.1858e-05 0)
(3.21105e-05 -1.05344e-05 0)
(3.8817e-05 -9.0023e-06 0)
(4.44299e-05 -7.29406e-06 0)
(4.88484e-05 -5.46363e-06 0)
(5.19391e-05 -3.55245e-06 0)
(5.36724e-05 -1.61855e-06 0)
(5.39708e-05 2.89732e-07 0)
(5.28361e-05 2.12291e-06 0)
(5.03575e-05 3.83898e-06 0)
(4.66266e-05 5.39688e-06 0)
(4.17594e-05 6.74798e-06 0)
(3.59013e-05 7.87037e-06 0)
(2.92156e-05 8.73431e-06 0)
(2.19111e-05 9.33053e-06 0)
(1.4191e-05 9.64474e-06 0)
(6.26699e-06 9.69081e-06 0)
(-1.63788e-06 9.46181e-06 0)
(-9.31012e-06 8.99435e-06 0)
(-1.6549e-05 8.29206e-06 0)
(-2.31725e-05 7.40485e-06 0)
(-2.90072e-05 6.3504e-06 0)
(-3.39327e-05 5.17736e-06 0)
(-3.7824e-05 3.91921e-06 0)
(-4.06247e-05 2.61491e-06 0)
(-4.2275e-05 1.31125e-06 0)
(-4.27592e-05 3.29105e-08 0)
(-4.21068e-05 -1.17843e-06 0)
(-4.03588e-05 -2.29811e-06 0)
(-3.76077e-05 -3.30906e-06 0)
(-3.39521e-05 -4.17373e-06 0)
(-2.95057e-05 -4.8923e-06 0)
(-2.44098e-05 -5.44605e-06 0)
(-1.88081e-05 -5.83513e-06 0)
(-1.2858e-05 -6.06074e-06 0)
(-6.71421e-06 -6.12217e-06 0)
(-5.28024e-07 -6.03349e-06 0)
(5.55164e-06 -5.80561e-06 0)
(1.13874e-05 -5.4566e-06 0)
(1.6846e-05 -4.9982e-06 0)
(2.18304e-05 -4.44924e-06 0)
(2.62441e-05 -3.83541e-06 0)
(3.00007e-05 -3.17374e-06 0)
(3.3055e-05 -2.48098e-06 0)
(3.53696e-05 -1.77736e-06 0)
(3.6917e-05 -1.08711e-06 0)
(3.77124e-05 -4.10067e-07 0)
(3.7767e-05 2.19082e-07 0)
(3.71171e-05 8.09798e-07 0)
(3.58084e-05 1.33034e-06 0)
(3.39041e-05 1.79632e-06 0)
(3.14783e-05 2.17692e-06 0)
(2.85988e-05 2.49165e-06 0)
(2.53615e-05 2.72478e-06 0)
(2.18431e-05 2.87957e-06 0)
(1.81341e-05 2.96255e-06 0)
(1.43363e-05 2.97926e-06 0)
(1.05288e-05 2.92347e-06 0)
(6.77618e-06 2.80944e-06 0)
(3.17786e-06 2.64677e-06 0)
(-1.96158e-07 2.43445e-06 0)
(-3.30359e-06 2.18764e-06 0)
(-6.09018e-06 1.91108e-06 0)
(-8.51142e-06 1.6142e-06 0)
(-1.05353e-05 1.30493e-06 0)
(-1.214e-05 9.91579e-07 0)
(-1.33165e-05 6.79895e-07 0)
(-1.40617e-05 3.7887e-07 0)
(-1.43836e-05 9.19472e-08 0)
(-1.43054e-05 -1.73183e-07 0)
(-1.38481e-05 -4.14102e-07 0)
(-1.30437e-05 -6.24738e-07 0)
(-1.19326e-05 -8.04714e-07 0)
(-1.05596e-05 -9.50958e-07 0)
(-8.96622e-06 -1.06262e-06 0)
(-7.20711e-06 -1.13993e-06 0)
(-5.33343e-06 -1.18357e-06 0)
(-3.39333e-06 -1.1942e-06 0)
(-1.44275e-06 -1.17348e-06 0)
(4.71801e-07 -1.12461e-06 0)
(2.30143e-06 -1.04896e-06 0)
(4.00497e-06 -9.51454e-07 0)
(5.54164e-06 -8.33332e-07 0)
(6.87593e-06 -6.99827e-07 0)
(7.97687e-06 -5.5387e-07 0)
(8.82326e-06 -3.99754e-07 0)
(9.39573e-06 -2.40057e-07 0)
(9.68369e-06 -7.94851e-08 0)
(9.68155e-06 7.69589e-08 0)
(9.39062e-06 2.27972e-07 0)
(8.8238e-06 3.68499e-07 0)
(7.99194e-06 4.96153e-07 0)
(6.91918e-06 6.07735e-07 0)
(5.63356e-06 7.01004e-07 0)
(4.16899e-06 7.73447e-07 0)
(2.56582e-06 8.23219e-07 0)
(8.67145e-07 8.48675e-07 0)
(-1.39977e-06 7.86247e-05 0)
(-4.20877e-06 7.9005e-05 0)
(-7.18202e-06 8.00778e-05 0)
(-1.04266e-05 8.16861e-05 0)
(-1.39917e-05 8.38191e-05 0)
(-1.79622e-05 8.64417e-05 0)
(-2.24892e-05 8.95192e-05 0)
(-2.7544e-05 9.29919e-05 0)
(-3.33143e-05 9.67875e-05 0)
(-3.98855e-05 0.000100824 0)
(-4.72243e-05 0.000105011 0)
(-5.54144e-05 0.000109254 0)
(-6.44284e-05 0.000113439 0)
(-7.42436e-05 0.00011744 0)
(-8.49264e-05 0.000121145 0)
(-9.64987e-05 0.00012445 0)
(-0.000108731 0.000127222 0)
(-0.00012158 0.000129339 0)
(-0.000135013 0.000130737 0)
(-0.000148887 0.000131288 0)
(-0.000163073 0.000130941 0)
(-0.000177441 0.000129621 0)
(-0.000191861 0.000127285 0)
(-0.000206189 0.000123909 0)
(-0.000220258 0.000119483 0)
(-0.000233906 0.000114028 0)
(-0.000247008 0.000107571 0)
(-0.000259335 0.000100173 0)
(-0.000270761 9.19079e-05 0)
(-0.000281198 8.28455e-05 0)
(-0.000290474 7.3092e-05 0)
(-0.000298494 6.27728e-05 0)
(-0.000305175 5.19849e-05 0)
(-0.000310462 4.08587e-05 0)
(-0.000314261 2.95289e-05 0)
(-0.000316476 1.80927e-05 0)
(-0.00031707 6.68434e-06 0)
(-0.000316165 -4.5928e-06 0)
(-0.000313822 -1.55953e-05 0)
(-0.000309942 -2.62426e-05 0)
(-0.000304634 -3.64256e-05 0)
(-0.000297952 -4.6049e-05 0)
(-0.000289917 -5.50449e-05 0)
(-0.000280664 -6.33277e-05 0)
(-0.000270269 -7.08417e-05 0)
(-0.000258848 -7.75294e-05 0)
(-0.000246506 -8.33458e-05 0)
(-0.000233366 -8.82502e-05 0)
(-0.000219554 -9.22258e-05 0)
(-0.000205203 -9.52527e-05 0)
(-0.000190445 -9.73168e-05 0)
(-0.000175424 -9.84291e-05 0)
(-0.000160218 -9.85991e-05 0)
(-0.000145094 -9.78166e-05 0)
(-0.000130182 -9.61582e-05 0)
(-0.000115486 -9.36189e-05 0)
(-0.000101231 -9.02794e-05 0)
(-8.75319e-05 -8.61461e-05 0)
(-7.44863e-05 -8.1358e-05 0)
(-6.22704e-05 -7.58877e-05 0)
(-5.08963e-05 -6.98789e-05 0)
(-4.06933e-05 -6.33858e-05 0)
(-3.15169e-05 -5.65026e-05 0)
(-2.34106e-05 -4.93108e-05 0)
(-1.66535e-05 -4.19499e-05 0)
(-1.10963e-05 -3.44079e-05 0)
(-6.83529e-06 -2.69044e-05 0)
(-3.92401e-06 -1.94543e-05 0)
(-2.30778e-06 -1.22052e-05 0)
(-1.9828e-06 -5.22758e-06 0)
(-2.85505e-06 1.35716e-06 0)
(-5.06382e-06 7.50274e-06 0)
(-8.43334e-06 1.30799e-05 0)
(-1.26103e-05 1.80582e-05 0)
(-1.77264e-05 2.22996e-05 0)
(-2.35287e-05 2.57576e-05 0)
(-2.9952e-05 2.83919e-05 0)
(-3.682e-05 3.016e-05 0)
(-4.39205e-05 3.10628e-05 0)
(-5.10627e-05 3.10697e-05 0)
(-5.81668e-05 3.01965e-05 0)
(-6.499e-05 2.8469e-05 0)
(-7.1271e-05 2.59197e-05 0)
(-7.69948e-05 2.26046e-05 0)
(-8.18902e-05 1.86246e-05 0)
(-8.58348e-05 1.4041e-05 0)
(-8.8679e-05 8.97867e-06 0)
(-9.02985e-05 3.53564e-06 0)
(-9.0627e-05 -2.1572e-06 0)
(-8.94883e-05 -7.96194e-06 0)
(-8.6871e-05 -1.37526e-05 0)
(-8.28596e-05 -1.93924e-05 0)
(-7.75e-05 -2.47572e-05 0)
(-7.08506e-05 -2.97005e-05 0)
(-6.29988e-05 -3.40997e-05 0)
(-5.40892e-05 -3.78302e-05 0)
(-4.42738e-05 -4.07969e-05 0)
(-3.3753e-05 -4.29112e-05 0)
(-2.27484e-05 -4.4121e-05 0)
(-1.14755e-05 -4.43732e-05 0)
(-1.94428e-07 -4.36802e-05 0)
(1.0841e-05 -4.20275e-05 0)
(2.13791e-05 -3.94732e-05 0)
(3.11849e-05 -3.60763e-05 0)
(4.00367e-05 -3.19234e-05 0)
(4.77085e-05 -2.71338e-05 0)
(5.40294e-05 -2.18233e-05 0)
(5.8882e-05 -1.61464e-05 0)
(6.21322e-05 -1.02545e-05 0)
(6.37408e-05 -4.30004e-06 0)
(6.36628e-05 1.53574e-06 0)
(6.19251e-05 7.1288e-06 0)
(5.86454e-05 1.23302e-05 0)
(5.3907e-05 1.7013e-05 0)
(4.78793e-05 2.10537e-05 0)
(4.07595e-05 2.43728e-05 0)
(3.27461e-05 2.68995e-05 0)
(2.40882e-05 2.85892e-05 0)
(1.50438e-05 2.94261e-05 0)
(5.84206e-06 2.94309e-05 0)
(-3.24329e-06 2.86251e-05 0)
(-1.19767e-05 2.7089e-05 0)
(-2.01318e-05 2.48745e-05 0)
(-2.74989e-05 2.20983e-05 0)
(-3.39141e-05 1.88515e-05 0)
(-3.92271e-05 1.5257e-05 0)
(-4.33403e-05 1.14305e-05 0)
(-4.61748e-05 7.48765e-06 0)
(-4.77067e-05 3.55216e-06 0)
(-4.79366e-05 -2.68622e-07 0)
(-4.68989e-05 -3.8866e-06 0)
(-4.46888e-05 -7.21189e-06 0)
(-4.13759e-05 -1.01726e-05 0)
(-3.70964e-05 -1.2716e-05 0)
(-3.20037e-05 -1.47937e-05 0)
(-2.62398e-05 -1.63836e-05 0)
(-1.99879e-05 -1.74735e-05 0)
(-1.3403e-05 -1.80738e-05 0)
(-6.66397e-06 -1.81963e-05 0)
(5.75668e-08 -1.78773e-05 0)
(6.60731e-06 -1.71496e-05 0)
(1.28481e-05 -1.60621e-05 0)
(1.86477e-05 -1.4666e-05 0)
(2.38865e-05 -1.30159e-05 0)
(2.84738e-05 -1.11746e-05 0)
(3.2341e-05 -9.20054e-06 0)
(3.54402e-05 -7.14639e-06 0)
(3.77232e-05 -5.07222e-06 0)
(3.9199e-05 -3.02546e-06 0)
(3.98676e-05 -1.05272e-06 0)
(3.97564e-05 8.0064e-07 0)
(3.89087e-05 2.51087e-06 0)
(3.73803e-05 4.03882e-06 0)
(3.52377e-05 5.37361e-06 0)
(3.25608e-05 6.48998e-06 0)
(2.9442e-05 7.37821e-06 0)
(2.59515e-05 8.04811e-06 0)
(2.22004e-05 8.4875e-06 0)
(1.8282e-05 8.70863e-06 0)
(1.42786e-05 8.73036e-06 0)
(1.02818e-05 8.55743e-06 0)
(6.37848e-06 8.21092e-06 0)
(2.64528e-06 7.71322e-06 0)
(-8.40756e-07 7.08816e-06 0)
(-4.02985e-06 6.3551e-06 0)
(-6.87668e-06 5.54128e-06 0)
(-9.33313e-06 4.66885e-06 0)
(-1.13696e-05 3.762e-06 0)
(-1.29678e-05 2.84395e-06 0)
(-1.41187e-05 1.93411e-06 0)
(-1.48225e-05 1.05613e-06 0)
(-1.50897e-05 2.22218e-07 0)
(-1.49451e-05 -5.48528e-07 0)
(-1.44122e-05 -1.24423e-06 0)
(-1.35259e-05 -1.85638e-06 0)
(-1.23306e-05 -2.37521e-06 0)
(-1.08704e-05 -2.79731e-06 0)
(-9.19107e-06 -3.11591e-06 0)
(-7.34904e-06 -3.33794e-06 0)
(-5.39589e-06 -3.45768e-06 0)
(-3.38081e-06 -3.48582e-06 0)
(-1.3625e-06 -3.42131e-06 0)
(6.13064e-07 -3.27525e-06 0)
(2.49528e-06 -3.05435e-06 0)
(4.24334e-06 -2.76539e-06 0)
(5.81647e-06 -2.4221e-06 0)
(7.17755e-06 -2.03081e-06 0)
(8.29692e-06 -1.60457e-06 0)
(9.15405e-06 -1.15417e-06 0)
(9.7294e-06 -6.90561e-07 0)
(1.00102e-05 -2.24892e-07 0)
(9.99449e-06 2.31953e-07 0)
(9.68394e-06 6.69829e-07 0)
(9.09051e-06 1.07801e-06 0)
(8.22712e-06 1.44865e-06 0)
(7.11824e-06 1.77222e-06 0)
(5.79274e-06 2.04245e-06 0)
(4.28504e-06 2.25238e-06 0)
(2.63642e-06 2.39719e-06 0)
(8.90792e-07 2.47059e-06 0)
(1.86855e-06 6.60714e-05 0)
(5.56033e-06 6.71357e-05 0)
(8.96126e-06 7.01144e-05 0)
(1.18732e-05 7.46022e-05 0)
(1.40405e-05 8.05583e-05 0)
(1.52425e-05 8.79319e-05 0)
(1.52453e-05 9.66457e-05 0)
(1.37935e-05 0.000106562 0)
(1.07057e-05 0.000117457 0)
(5.83806e-06 0.000129118 0)
(-8.32034e-07 0.000141301 0)
(-9.50621e-06 0.000153711 0)
(-2.03456e-05 0.000166084 0)
(-3.32432e-05 0.000178106 0)
(-4.80056e-05 0.00018947 0)
(-6.47007e-05 0.000199907 0)
(-8.33559e-05 0.00020912 0)
(-0.00010341 0.000216873 0)
(-0.000124812 0.000222892 0)
(-0.000147373 0.000226949 0)
(-0.000170629 0.000228854 0)
(-0.000194427 0.000228505 0)
(-0.000218344 0.000225804 0)
(-0.000242067 0.00022072 0)
(-0.000265201 0.000213253 0)
(-0.000287434 0.000203486 0)
(-0.000308458 0.000191487 0)
(-0.000327854 0.000177485 0)
(-0.000345523 0.000161594 0)
(-0.000361212 0.000144076 0)
(-0.000374575 0.000125234 0)
(-0.000385645 0.000105255 0)
(-0.000394309 8.44759e-05 0)
(-0.000400398 6.31963e-05 0)
(-0.000404016 4.16139e-05 0)
(-0.00040519 2.01395e-05 0)
(-0.000403983 -1.07215e-06 0)
(-0.000400289 -2.17885e-05 0)
(-0.00039425 -4.18087e-05 0)
(-0.000386142 -6.09585e-05 0)
(-0.000375972 -7.90614e-05 0)
(-0.000363956 -9.59569e-05 0)
(-0.000350238 -0.000111522 0)
(-0.000334964 -0.00012564 0)
(-0.000318318 -0.00013822 0)
(-0.000300476 -0.000149185 0)
(-0.000281595 -0.000158483 0)
(-0.000261913 -0.000166068 0)
(-0.000241623 -0.000171926 0)
(-0.000220848 -0.000176043 0)
(-0.000199837 -0.000178433 0)
(-0.000178802 -0.000179107 0)
(-0.000157756 -0.000178101 0)
(-0.000137104 -0.00017551 0)
(-0.000116974 -0.000171338 0)
(-9.74742e-05 -0.000165659 0)
(-7.87439e-05 -0.000158604 0)
(-6.11392e-05 -0.00015028 0)
(-4.4715e-05 -0.000140769 0)
(-2.94696e-05 -0.00013024 0)
(-1.57785e-05 -0.000118788 0)
(-3.58464e-06 -0.000106598 0)
(7.01205e-06 -9.37463e-05 0)
(1.58717e-05 -8.04532e-05 0)
(2.30746e-05 -6.68829e-05 0)
(2.84494e-05 -5.31974e-05 0)
(3.19721e-05 -3.95611e-05 0)
(3.3729e-05 -2.61683e-05 0)
(3.36447e-05 -1.31747e-05 0)
(3.18523e-05 -7.79129e-07 0)
(2.84109e-05 1.08789e-05 0)
(2.34014e-05 2.16031e-05 0)
(1.69756e-05 3.13184e-05 0)
(9.23637e-06 3.98315e-05 0)
(2.15188e-07 4.70321e-05 0)
(-9.65874e-06 5.28276e-05 0)
(-2.01278e-05 5.70811e-05 0)
(-3.10602e-05 5.97909e-05 0)
(-4.2216e-05 6.09012e-05 0)
(-5.3384e-05 6.04009e-05 0)
(-6.42613e-05 5.83292e-05 0)
(-7.46561e-05 5.47444e-05 0)
(-8.4297e-05 4.96882e-05 0)
(-9.2854e-05 4.33185e-05 0)
(-0.000100219 3.57394e-05 0)
(-0.000106188 2.71477e-05 0)
(-0.000110565 1.77142e-05 0)
(-0.000113182 7.65716e-06 0)
(-0.000113897 -2.80107e-06 0)
(-0.000112639 -1.34108e-05 0)
(-0.000109421 -2.394e-05 0)
(-0.000104296 -3.41486e-05 0)
(-9.72983e-05 -4.37864e-05 0)
(-8.85427e-05 -5.26104e-05 0)
(-7.81795e-05 -6.04007e-05 0)
(-6.64096e-05 -6.69452e-05 0)
(-5.34735e-05 -7.20847e-05 0)
(-3.96529e-05 -7.56709e-05 0)
(-2.52316e-05 -7.76179e-05 0)
(-1.05678e-05 -7.78509e-05 0)
(4.02519e-06 -7.63715e-05 0)
(1.82226e-05 -7.32126e-05 0)
(3.16421e-05 -6.84624e-05 0)
(4.40025e-05 -6.22272e-05 0)
(5.5001e-05 -5.47034e-05 0)
(6.43822e-05 -4.60823e-05 0)
(7.19288e-05 -3.66067e-05 0)
(7.74755e-05 -2.6526e-05 0)
(8.0922e-05 -1.61511e-05 0)
(8.21922e-05 -5.71172e-06 0)
(8.13045e-05 4.44218e-06 0)
(7.83624e-05 1.4125e-05 0)
(7.34708e-05 2.30288e-05 0)
(6.68002e-05 3.09618e-05 0)
(5.85916e-05 3.77354e-05 0)
(4.91244e-05 4.31924e-05 0)
(3.86531e-05 4.72401e-05 0)
(2.75151e-05 4.98243e-05 0)
(1.60576e-05 5.09285e-05 0)
(4.57038e-06 5.05991e-05 0)
(-6.60068e-06 4.88965e-05 0)
(-1.71865e-05 4.5952e-05 0)
(-2.69208e-05 4.19033e-05 0)
(-3.55527e-05 3.69207e-05 0)
(-4.29155e-05 3.11991e-05 0)
(-4.88516e-05 2.49335e-05 0)
(-5.32686e-05 1.83444e-05 0)
(-5.61095e-05 1.16127e-05 0)
(-5.73487e-05 4.94804e-06 0)
(-5.70531e-05 -1.48196e-06 0)
(-5.52986e-05 -7.49828e-06 0)
(-5.21703e-05 -1.29926e-05 0)
(-4.78341e-05 -1.78259e-05 0)
(-4.24421e-05 -2.19305e-05 0)
(-3.61707e-05 -2.52302e-05 0)
(-2.92278e-05 -2.77141e-05 0)
(-2.18179e-05 -2.93512e-05 0)
(-1.41379e-05 -3.01745e-05 0)
(-6.38608e-06 -3.02135e-05 0)
(1.25281e-06 -2.95227e-05 0)
(8.61322e-06 -2.81787e-05 0)
(1.55331e-05 -2.62523e-05 0)
(2.18767e-05 -2.38469e-05 0)
(2.75328e-05 -2.10447e-05 0)
(3.24057e-05 -1.79512e-05 0)
(3.64327e-05 -1.46553e-05 0)
(3.95732e-05 -1.1262e-05 0)
(4.18018e-05 -7.84922e-06 0)
(4.31203e-05 -4.50124e-06 0)
(4.35506e-05 -1.2967e-06 0)
(4.31429e-05 1.71256e-06 0)
(4.19466e-05 4.45795e-06 0)
(4.00297e-05 6.91083e-06 0)
(3.74775e-05 9.02706e-06 0)
(3.43678e-05 1.07887e-05 0)
(3.08204e-05 1.21844e-05 0)
(2.69249e-05 1.32122e-05 0)
(2.27647e-05 1.38706e-05 0)
(1.84716e-05 1.41828e-05 0)
(1.41336e-05 1.41642e-05 0)
(9.83277e-06 1.38393e-05 0)
(5.65744e-06 1.32429e-05 0)
(1.70574e-06 1.24003e-05 0)
(-1.95749e-06 1.1364e-05 0)
(-5.28691e-06 1.01584e-05 0)
(-8.22775e-06 8.82508e-06 0)
(-1.07412e-05 7.40411e-06 0)
(-1.27962e-05 5.93325e-06 0)
(-1.43788e-05 4.44836e-06 0)
(-1.54813e-05 2.98448e-06 0)
(-1.61108e-05 1.57164e-06 0)
(-1.62825e-05 2.3881e-07 0)
(-1.60209e-05 -9.95545e-07 0)
(-1.53605e-05 -2.10375e-06 0)
(-1.43365e-05 -3.07617e-06 0)
(-1.29959e-05 -3.89545e-06 0)
(-1.13871e-05 -4.55941e-06 0)
(-9.56316e-06 -5.05891e-06 0)
(-7.58019e-06 -5.40065e-06 0)
(-5.49295e-06 -5.58125e-06 0)
(-3.35438e-06 -5.61381e-06 0)
(-1.22057e-06 -5.5002e-06 0)
(8.54594e-07 -5.25613e-06 0)
(2.827e-06 -4.89444e-06 0)
(4.64921e-06 -4.42479e-06 0)
(6.28158e-06 -3.86791e-06 0)
(7.68986e-06 -3.23768e-06 0)
(8.83961e-06 -2.55274e-06 0)
(9.71251e-06 -1.82845e-06 0)
(1.02896e-05 -1.08584e-06 0)
(1.05608e-05 -3.39628e-07 0)
(1.05224e-05 3.89994e-07 0)
(1.01767e-05 1.08991e-06 0)
(9.53911e-06 1.74201e-06 0)
(8.62225e-06 2.33216e-06 0)
(7.45218e-06 2.84886e-06 0)
(6.05966e-06 3.27826e-06 0)
(4.48019e-06 3.61309e-06 0)
(2.75516e-06 3.84266e-06 0)
(9.30327e-07 3.96027e-06 0)
(9.65337e-06 3.49646e-05 0)
(2.88496e-05 3.84919e-05 0)
(4.75642e-05 4.63958e-05 0)
(6.52876e-05 5.82685e-05 0)
(8.15412e-05 7.39958e-05 0)
(9.59954e-05 9.33552e-05 0)
(0.000107941 0.000115941 0)
(0.000116454 0.000141289 0)
(0.000120936 0.000168866 0)
(0.000121273 0.000197983 0)
(0.000117072 0.000228081 0)
(0.000108212 0.000258385 0)
(9.4725e-05 0.000288248 0)
(7.6496e-05 0.000316919 0)
(5.3887e-05 0.00034369 0)
(2.70647e-05 0.000367894 0)
(-3.45575e-06 0.00038888 0)
(-3.73386e-05 0.000406147 0)
(-7.44073e-05 0.000419158 0)
(-0.000113913 0.000427603 0)
(-0.000154905 0.000431088 0)
(-0.00019667 0.00042945 0)
(-0.000238618 0.000422594 0)
(-0.000280027 0.000410672 0)
(-0.000320082 0.000393629 0)
(-0.00035826 0.000372085 0)
(-0.00039367 0.000346201 0)
(-0.000425869 0.000316558 0)
(-0.00045465 0.000283942 0)
(-0.000478992 0.000248722 0)
(-0.000499193 0.000211826 0)
(-0.000515107 0.000173644 0)
(-0.000526165 0.000134858 0)
(-0.000533105 9.60524e-05 0)
(-0.000535401 5.76191e-05 0)
(-0.00053328 1.99946e-05 0)
(-0.000527671 -1.63864e-05 0)
(-0.000518509 -5.10843e-05 0)
(-0.000506204 -8.39384e-05 0)
(-0.000490874 -0.000114686 0)
(-0.000472734 -0.000143095 0)
(-0.000452143 -0.000169037 0)
(-0.000429373 -0.000192389 0)
(-0.000404735 -0.000213053 0)
(-0.00037852 -0.000230981 0)
(-0.00035103 -0.000246125 0)
(-0.000322529 -0.000258465 0)
(-0.00029332 -0.000268026 0)
(-0.000263673 -0.000274818 0)
(-0.000233832 -0.00027886 0)
(-0.000204037 -0.000280243 0)
(-0.000174524 -0.000279054 0)
(-0.000145678 -0.000275355 0)
(-0.000117641 -0.000269185 0)
(-9.04375e-05 -0.000260802 0)
(-6.45556e-05 -0.000250243 0)
(-4.03062e-05 -0.000237725 0)
(-1.76093e-05 -0.000223428 0)
(3.23491e-06 -0.000207429 0)
(2.20588e-05 -0.000190011 0)
(3.87934e-05 -0.000171334 0)
(5.32533e-05 -0.000151657 0)
(6.54775e-05 -0.000131133 0)
(7.51307e-05 -0.000110121 0)
(8.22202e-05 -8.874e-05 0)
(8.68971e-05 -6.7385e-05 0)
(8.90052e-05 -4.62153e-05 0)
(8.85843e-05 -2.55789e-05 0)
(8.57085e-05 -5.67575e-06 0)
(8.04703e-05 1.31767e-05 0)
(7.30004e-05 3.07861e-05 0)
(6.34437e-05 4.68525e-05 0)
(5.20077e-05 6.12206e-05 0)
(3.89149e-05 7.36187e-05 0)
(2.44092e-05 8.39636e-05 0)
(8.70459e-06 9.20753e-05 0)
(-7.82935e-06 9.78477e-05 0)
(-2.47632e-05 0.000101166 0)
(-4.19064e-05 0.000101996 0)
(-5.87884e-05 0.000100361 0)
(-7.51099e-05 9.63087e-05 0)
(-9.06402e-05 8.99196e-05 0)
(-0.000104853 8.13661e-05 0)
(-0.000117544 7.07897e-05 0)
(-0.000128379 5.84376e-05 0)
(-0.000137077 4.45577e-05 0)
(-0.000143472 2.94657e-05 0)
(-0.000147329 1.34952e-05 0)
(-0.000148527 -2.99846e-06 0)
(-0.000146925 -1.96466e-05 0)
(-0.000142582 -3.60676e-05 0)
(-0.000135579 -5.19016e-05 0)
(-0.000125993 -6.67352e-05 0)
(-0.000114 -8.02327e-05 0)
(-9.98164e-05 -9.20301e-05 0)
(-8.37701e-05 -0.000101862 0)
(-6.62045e-05 -0.000109433 0)
(-4.75252e-05 -0.000114599 0)
(-2.81485e-05 -0.000117166 0)
(-8.51888e-06 -0.000117124 0)
(1.08488e-05 -0.000114431 0)
(2.95036e-05 -0.0001092 0)
(4.70274e-05 -0.000101539 0)
(6.29584e-05 -9.16969e-05 0)
(7.69073e-05 -7.9947e-05 0)
(8.8579e-05 -6.66019e-05 0)
(9.7703e-05 -5.20491e-05 0)
(0.000104051 -3.67111e-05 0)
(0.000107578 -2.10129e-05 0)
(0.000108198 -5.38237e-06 0)
(0.000106004 9.74564e-06 0)
(0.000101157 2.39975e-05 0)
(9.37896e-05 3.69939e-05 0)
(8.42674e-05 4.84257e-05 0)
(7.28557e-05 5.80188e-05 0)
(5.99642e-05 6.55929e-05 0)
(4.6012e-05 7.10095e-05 0)
(3.1409e-05 7.42297e-05 0)
(1.66102e-05 7.52557e-05 0)
(1.98901e-06 7.41661e-05 0)
(-1.2028e-05 7.11279e-05 0)
(-2.50774e-05 6.6291e-05 0)
(-3.68766e-05 5.99249e-05 0)
(-4.71311e-05 5.22686e-05 0)
(-5.56598e-05 4.36407e-05 0)
(-6.22906e-05 3.43251e-05 0)
(-6.69744e-05 2.46382e-05 0)
(-6.96795e-05 1.48611e-05 0)
(-7.04235e-05 5.26714e-06 0)
(-6.9288e-05 -3.89094e-06 0)
(-6.64279e-05 -1.23733e-05 0)
(-6.20149e-05 -2.00326e-05 0)
(-5.62059e-05 -2.66924e-05 0)
(-4.92487e-05 -3.22662e-05 0)
(-4.13927e-05 -3.66505e-05 0)
(-3.28612e-05 -3.98645e-05 0)
(-2.39062e-05 -4.18824e-05 0)
(-1.47765e-05 -4.27415e-05 0)
(-5.68027e-06 -4.25143e-05 0)
(3.14555e-06 -4.12866e-05 0)
(1.15296e-05 -3.91617e-05 0)
(1.9302e-05 -3.62665e-05 0)
(2.63227e-05 -3.27307e-05 0)
(3.2481e-05 -2.86798e-05 0)
(3.76851e-05 -2.42693e-05 0)
(4.18766e-05 -1.96054e-05 0)
(4.50334e-05 -1.48472e-05 0)
(4.71462e-05 -1.01024e-05 0)
(4.82288e-05 -5.47265e-06 0)
(4.83334e-05 -1.08055e-06 0)
(4.75089e-05 3.02428e-06 0)
(4.58329e-05 6.7428e-06 0)
(4.33981e-05 1.00485e-05 0)
(4.02887e-05 1.28732e-05 0)
(3.66271e-05 1.52055e-05 0)
(3.25288e-05 1.70368e-05 0)
(2.80782e-05 1.83453e-05 0)
(2.34125e-05 1.91643e-05 0)
(1.86483e-05 1.95104e-05 0)
(1.38679e-05 1.94043e-05 0)
(9.18211e-06 1.88871e-05 0)
(4.67649e-06 1.8006e-05 0)
(4.46717e-07 1.681e-05 0)
(-3.43547e-06 1.53463e-05 0)
(-6.93573e-06 1.36654e-05 0)
(-9.99329e-06 1.18201e-05 0)
(-1.25686e-05 9.86465e-06 0)
(-1.46393e-05 7.85006e-06 0)
(-1.6193e-05 5.82584e-06 0)
(-1.72292e-05 3.83859e-06 0)
(-1.77577e-05 1.9229e-06 0)
(-1.78029e-05 1.2338e-07 0)
(-1.73926e-05 -1.5357e-06 0)
(-1.65616e-05 -3.02195e-06 0)
(-1.53561e-05 -4.31694e-06 0)
(-1.38287e-05 -5.40522e-06 0)
(-1.20324e-05 -6.27854e-06 0)
(-1.00221e-05 -6.93498e-06 0)
(-7.85976e-06 -7.37205e-06 0)
(-5.6028e-06 -7.59919e-06 0)
(-3.3053e-06 -7.61985e-06 0)
(-1.02727e-06 -7.45153e-06 0)
(1.1753e-06 -7.10643e-06 0)
(3.25876e-06 -6.6022e-06 0)
(5.17557e-06 -5.95977e-06 0)
(6.88238e-06 -5.19699e-06 0)
(8.34534e-06 -4.34177e-06 0)
(9.53392e-06 -3.41338e-06 0)
(1.0427e-05 -2.43319e-06 0)
(1.10066e-05 -1.43149e-06 0)
(1.12619e-05 -4.25589e-07 0)
(1.11931e-05 5.57591e-07 0)
(1.08045e-05 1.4978e-06 0)
(1.01085e-05 2.37394e-06 0)
(9.12377e-06 3.16548e-06 0)
(7.87595e-06 3.85805e-06 0)
(6.39786e-06 4.43363e-06 0)
(4.72695e-06 4.88134e-06 0)
(2.90533e-06 5.18779e-06 0)
(9.8115e-07 5.34563e-06 0)
(2.78256e-05 -0.000210444 0)
(8.32246e-05 -0.000203069 0)
(0.000137453 -0.0001865 0)
(0.00018921 -0.000161654 0)
(0.000236986 -0.000128789 0)
(0.000278864 -8.84004e-05 0)
(0.000313265 -4.10989e-05 0)
(0.000339273 1.22012e-05 0)
(0.000355553 7.06539e-05 0)
(0.000362086 0.00013285 0)
(0.000358601 0.000197299 0)
(0.000344645 0.000262423 0)
(0.000320468 0.000326738 0)
(0.000286113 0.00038869 0)
(0.000242517 0.000446892 0)
(0.000190206 0.000499947 0)
(0.000130324 0.000546641 0)
(6.42247e-05 0.000585856 0)
(-6.85787e-06 0.000616604 0)
(-8.18146e-05 0.000638218 0)
(-0.000159253 0.000650125 0)
(-0.000237366 0.000651912 0)
(-0.000314132 0.000643504 0)
(-0.000388995 0.000625056 0)
(-0.000459302 0.000597039 0)
(-0.000523771 0.000560187 0)
(-0.000582372 0.000515497 0)
(-0.000631884 0.000464154 0)
(-0.000673393 0.000407852 0)
(-0.000706143 0.000347872 0)
(-0.000729944 0.000285751 0)
(-0.000746148 0.000222767 0)
(-0.000753904 0.000160026 0)
(-0.00075459 9.86373e-05 0)
(-0.000749033 3.94967e-05 0)
(-0.000737232 -1.71504e-05 0)
(-0.000719473 -7.07221e-05 0)
(-0.000696912 -0.00012097 0)
(-0.000670541 -0.000167515 0)
(-0.000640385 -0.000210095 0)
(-0.000607073 -0.000248594 0)
(-0.000571314 -0.000282913 0)
(-0.000533425 -0.000312979 0)
(-0.000493874 -0.000338838 0)
(-0.000453068 -0.000360505 0)
(-0.000411311 -0.000377958 0)
(-0.000369044 -0.000391418 0)
(-0.000326614 -0.000400885 0)
(-0.000284188 -0.000406435 0)
(-0.000242186 -0.000408282 0)
(-0.000201084 -0.000406432 0)
(-0.000160963 -0.000401123 0)
(-0.000121671 -0.000392425 0)
(-8.42609e-05 -0.000380552 0)
(-4.87997e-05 -0.000365722 0)
(-1.52463e-05 -0.000348189 0)
(1.57928e-05 -0.000328051 0)
(4.4523e-05 -0.000305574 0)
(7.05548e-05 -0.000281004 0)
(9.36424e-05 -0.000254592 0)
(0.000113587 -0.000226676 0)
(0.000130489 -0.000197464 0)
(0.000144005 -0.000167402 0)
(0.000154127 -0.000136772 0)
(0.000160866 -0.000105931 0)
(0.000164012 -7.52219e-05 0)
(0.000163733 -4.50668e-05 0)
(0.000160048 -1.57778e-05 0)
(0.000153058 1.2242e-05 0)
(0.000142938 3.86575e-05 0)
(0.00012985 6.31143e-05 0)
(0.000114054 8.52931e-05 0)
(9.58249e-05 0.00010489 0)
(7.54913e-05 0.000121641 0)
(5.34129e-05 0.000135311 0)
(2.99537e-05 0.000145705 0)
(5.56923e-06 0.000152708 0)
(-1.93668e-05 0.0001562 0)
(-4.42479e-05 0.000156149 0)
(-6.86295e-05 0.000152579 0)
(-9.20744e-05 0.000145545 0)
(-0.00011409 0.000135246 0)
(-0.000134249 0.000121883 0)
(-0.000152085 0.000105699 0)
(-0.000167234 8.70639e-05 0)
(-0.00017937 6.63465e-05 0)
(-0.000188155 4.4043e-05 0)
(-0.000193366 2.06064e-05 0)
(-0.000194836 -3.39454e-06 0)
(-0.000192489 -2.75143e-05 0)
(-0.000186422 -5.1172e-05 0)
(-0.000176686 -7.38417e-05 0)
(-0.000163426 -9.49478e-05 0)
(-0.000146924 -0.000114005 0)
(-0.000127548 -0.000130518 0)
(-0.000105701 -0.000144095 0)
(-8.19276e-05 -0.000154401 0)
(-5.67725e-05 -0.000161155 0)
(-3.08244e-05 -0.000164202 0)
(-4.77381e-06 -0.000163483 0)
(2.07922e-05 -0.000159016 0)
(4.52439e-05 -0.000150945 0)
(6.79482e-05 -0.000139502 0)
(8.8304e-05 -0.000125058 0)
(0.00010592 -0.000107986 0)
(0.000120361 -8.88161e-05 0)
(0.00013124 -6.81248e-05 0)
(0.000138369 -4.6472e-05 0)
(0.000141702 -2.44759e-05 0)
(0.000141198 -2.80357e-06 0)
(0.000137037 1.80708e-05 0)
(0.000129479 3.74619e-05 0)
(0.000118787 5.49809e-05 0)
(0.000105382 7.01326e-05 0)
(8.97571e-05 8.26405e-05 0)
(7.24602e-05 9.22398e-05 0)
(5.40224e-05 9.88133e-05 0)
(3.50313e-05 0.000102321 0)
(1.60358e-05 0.000102825 0)
(-2.40444e-06 0.000100482 0)
(-1.98354e-05 9.55158e-05 0)
(-3.58372e-05 8.8246e-05 0)
(-5.00241e-05 7.89803e-05 0)
(-6.20944e-05 6.8136e-05 0)
(-7.18445e-05 5.60864e-05 0)
(-7.91505e-05 4.32975e-05 0)
(-8.39594e-05 3.01358e-05 0)
(-8.6315e-05 1.70216e-05 0)
(-8.62642e-05 4.30162e-06 0)
(-8.39518e-05 -7.71265e-06 0)
(-7.9639e-05 -1.87237e-05 0)
(-7.35265e-05 -2.85334e-05 0)
(-6.58781e-05 -3.69634e-05 0)
(-5.69714e-05 -4.38824e-05 0)
(-4.71411e-05 -4.92235e-05 0)
(-3.67068e-05 -5.29774e-05 0)
(-2.59005e-05 -5.5183e-05 0)
(-1.50519e-05 -5.58849e-05 0)
(-4.41845e-06 -5.51819e-05 0)
(5.77823e-06 -5.32379e-05 0)
(1.53293e-05 -5.01646e-05 0)
(2.40487e-05 -4.61591e-05 0)
(3.18142e-05 -4.13547e-05 0)
(3.84958e-05 -3.59565e-05 0)
(4.40329e-05 -3.01419e-05 0)
(4.837e-05 -2.40891e-05 0)
(5.14789e-05 -1.79284e-05 0)
(5.34149e-05 -1.18431e-05 0)
(5.41715e-05 -5.96075e-06 0)
(5.38426e-05 -3.88719e-07 0)
(5.25123e-05 4.75764e-06 0)
(5.02636e-05 9.40218e-06 0)
(4.72074e-05 1.34824e-05 0)
(4.34479e-05 1.69479e-05 0)
(3.91351e-05 1.97894e-05 0)
(3.43778e-05 2.19644e-05 0)
(2.93094e-05 2.35014e-05 0)
(2.40593e-05 2.44148e-05 0)
(1.87424e-05 2.47338e-05 0)
(1.34691e-05 2.44885e-05 0)
(8.34864e-06 2.37469e-05 0)
(3.47402e-06 2.25446e-05 0)
(-1.06061e-06 2.0977e-05 0)
(-5.1919e-06 1.90693e-05 0)
(-8.87385e-06 1.69074e-05 0)
(-1.20507e-05 1.45541e-05 0)
(-1.46891e-05 1.20767e-05 0)
(-1.67674e-05 9.53347e-06 0)
(-1.82786e-05 6.99286e-06 0)
(-1.92324e-05 4.50333e-06 0)
(-1.9641e-05 2.11694e-06 0)
(-1.95317e-05 -1.2124e-07 0)
(-1.89426e-05 -2.16939e-06 0)
(-1.79147e-05 -3.99917e-06 0)
(-1.65005e-05 -5.58615e-06 0)
(-1.47572e-05 -6.91536e-06 0)
(-1.27455e-05 -7.97228e-06 0)
(-1.05236e-05 -8.75747e-06 0)
(-8.15771e-06 -9.27367e-06 0)
(-5.70734e-06 -9.52548e-06 0)
(-3.23141e-06 -9.52573e-06 0)
(-7.92775e-07 -9.29359e-06 0)
(1.55532e-06 -8.84444e-06 0)
(3.76294e-06 -8.19968e-06 0)
(5.78357e-06 -7.38641e-06 0)
(7.57309e-06 -6.42851e-06 0)
(9.09742e-06 -5.35628e-06 0)
(1.03286e-05 -4.19585e-06 0)
(1.12413e-05 -2.97836e-06 0)
(1.18207e-05 -1.73111e-06 0)
(1.20603e-05 -4.84345e-07 0)
(1.19558e-05 7.3512e-07 0)
(1.15151e-05 1.89771e-06 0)
(1.07538e-05 2.98031e-06 0)
(9.69098e-06 3.95722e-06 0)
(8.35501e-06 4.81006e-06 0)
(6.7799e-06 5.52001e-06 0)
(5.00508e-06 6.06986e-06 0)
(3.07482e-06 6.44763e-06 0)
(1.0382e-06 6.64156e-06 0)
(5.83513e-05 -0.000593663 0)
(0.000174562 -0.000575329 0)
(0.000288332 -0.000536961 0)
(0.000397039 -0.000479362 0)
(0.000497865 -0.000403049 0)
(0.000588548 -0.000309174 0)
(0.000666309 -0.000199252 0)
(0.000729295 -7.5853e-05 0)
(0.000774546 5.85691e-05 0)
(0.000799019 0.000199793 0)
(0.000802199 0.000344959 0)
(0.000784472 0.000489086 0)
(0.000746534 0.000627858 0)
(0.00068932 0.000757601 0)
(0.00061448 0.000875182 0)
(0.000523498 0.000978114 0)