/*--------------------------------*- C++ -*----------------------------------*\
  =========                 |
  \\      /  F ield         | OpenFOAM: The Open Source CFD Toolbox
   \\    /   O peration     | Website:  https://openfoam.org
    \\  /    A nd           | Version:  12
     \\/     M anipulation  |
\*---------------------------------------------------------------------------*/
FoamFile
{
    format      ascii;
    class       volVectorField;
    location    "1.42";
    object      U;
}
// * * * * * * * * * * * * * * * * * * * * * * * * * * * * * * * * * * * * * //

dimensions      [0 1 -1 0 0 0 0];

internalField   nonuniform List<vector> 
3829
(
(-4.11462e-06 4.01521e-05 0)
(-1.23932e-05 4.01371e-05 0)
(-2.07592e-05 4.0062e-05 0)
(-2.92068e-05 3.99472e-05 0)
(-3.7729e-05 3.97906e-05 0)
(-4.63187e-05 3.95911e-05 0)
(-5.49678e-05 3.93448e-05 0)
(-6.36677e-05 3.90501e-05 0)
(-7.24082e-05 3.87047e-05 0)
(-8.1178e-05 3.83054e-05 0)
(-8.99636e-05 3.78493e-05 0)
(-9.87505e-05 3.73341e-05 0)
(-0.000107525 3.67559e-05 0)
(-0.000116269 3.61122e-05 0)
(-0.000124964 3.54008e-05 0)
(-0.00013359 3.46191e-05 0)
(-0.000142124 3.37648e-05 0)
(-0.000150543 3.28366e-05 0)
(-0.000158823 3.18333e-05 0)
(-0.000166937 3.07545e-05 0)
(-0.000174858 2.96002e-05 0)
(-0.000182558 2.83714e-05 0)
(-0.000190009 2.70697e-05 0)
(-0.000197182 2.56979e-05 0)
(-0.000204047 2.42594e-05 0)
(-0.000210576 2.2758e-05 0)
(-0.000216742 2.11991e-05 0)
(-0.000222517 1.95885e-05 0)
(-0.000227876 1.79326e-05 0)
(-0.000232796 1.62375e-05 0)
(-0.000237256 1.45108e-05 0)
(-0.000241237 1.27607e-05 0)
(-0.000244719 1.09939e-05 0)
(-0.000247683 9.22059e-06 0)
(-0.000250116 7.44914e-06 0)
(-0.000252004 5.68765e-06 0)
(-0.00025334 3.94321e-06 0)
(-0.000254129 2.22171e-06 0)
(-0.000254384 5.27635e-07 0)
(-0.000254091 -1.12933e-06 0)
(-0.000253248 -2.74247e-06 0)
(-0.000251867 -4.3078e-06 0)
(-0.000249957 -5.81862e-06 0)
(-0.000247528 -7.27039e-06 0)
(-0.000244588 -8.65856e-06 0)
(-0.000241152 -9.97894e-06 0)
(-0.000237237 -1.12278e-05 0)
(-0.000232857 -1.24016e-05 0)
(-0.000228034 -1.34974e-05 0)
(-0.000222786 -1.45125e-05 0)
(-0.000217135 -1.54445e-05 0)
(-0.000211105 -1.62916e-05 0)
(-0.000204721 -1.70521e-05 0)
(-0.000198009 -1.77248e-05 0)
(-0.000190996 -1.83087e-05 0)
(-0.000183709 -1.88036e-05 0)
(-0.000176175 -1.92093e-05 0)
(-0.000168433 -1.95266e-05 0)
(-0.000160518 -1.97557e-05 0)
(-0.000152445 -1.98969e-05 0)
(-0.000144223 -1.99523e-05 0)
(-0.000135946 -1.99322e-05 0)
(-0.000127635 -1.9825e-05 0)
(-0.000119281 -1.96414e-05 0)
(-0.000110938 -1.93831e-05 0)
(-0.000102636 -1.90549e-05 0)
(-9.44162e-05 -1.86601e-05 0)
(-8.62957e-05 -1.82015e-05 0)
(-7.83056e-05 -1.76873e-05 0)
(-7.04677e-05 -1.71172e-05 0)
(-6.28289e-05 -1.65085e-05 0)
(-5.54079e-05 -1.5846e-05 0)
(-4.82152e-05 -1.51541e-05 0)
(-4.12858e-05 -1.44323e-05 0)
(-3.46278e-05 -1.36748e-05 0)
(-2.82363e-05 -1.29097e-05 0)
(-2.21605e-05 -1.2132e-05 0)
(-1.64511e-05 -1.13369e-05 0)
(-1.10463e-05 -1.05367e-05 0)
(-5.98127e-06 -9.74715e-06 0)
(-1.3019e-06 -8.9644e-06 0)
(3.03973e-06 -8.18646e-06 0)
(7.04184e-06 -7.42343e-06 0)
(1.06926e-05 -6.67776e-06 0)
(1.39963e-05 -5.95187e-06 0)
(1.69546e-05 -5.25231e-06 0)
(1.95705e-05 -4.57828e-06 0)
(2.1853e-05 -3.93412e-06 0)
(2.38109e-05 -3.32077e-06 0)
(2.54579e-05 -2.74002e-06 0)
(2.68008e-05 -2.19372e-06 0)
(2.78554e-05 -1.68101e-06 0)
(2.86349e-05 -1.20523e-06 0)
(2.91477e-05 -7.63268e-07 0)
(2.9415e-05 -3.55525e-07 0)
(2.94569e-05 1.86783e-08 0)
(2.92897e-05 3.58014e-07 0)
(2.89302e-05 6.66845e-07 0)
(2.83841e-05 9.4172e-07 0)
(2.76781e-05 1.1873e-06 0)
(2.6827e-05 1.39991e-06 0)
(2.58327e-05 1.58361e-06 0)
(2.47171e-05 1.74008e-06 0)
(2.35029e-05 1.87148e-06 0)
(2.22001e-05 1.97436e-06 0)
(2.08159e-05 2.05645e-06 0)
(1.93727e-05 2.11708e-06 0)
(1.78741e-05 2.15526e-06 0)
(1.63417e-05 2.17869e-06 0)
(1.47872e-05 2.18326e-06 0)
(1.32117e-05 2.17124e-06 0)
(1.16355e-05 2.14794e-06 0)
(1.0064e-05 2.11083e-06 0)
(8.50501e-06 2.06364e-06 0)
(6.965e-06 2.00541e-06 0)
(5.45834e-06 1.94183e-06 0)
(3.99164e-06 1.86878e-06 0)
(2.55757e-06 1.78925e-06 0)
(1.17756e-06 1.7078e-06 0)
(-1.45139e-07 1.62072e-06 0)
(-1.41719e-06 1.53076e-06 0)
(-2.63017e-06 1.439e-06 0)
(-3.78078e-06 1.34587e-06 0)
(-4.86676e-06 1.25251e-06 0)
(-5.88626e-06 1.15914e-06 0)
(-6.83796e-06 1.0666e-06 0)
(-7.72091e-06 9.75502e-07 0)
(-8.53476e-06 8.86122e-07 0)
(-9.27964e-06 7.98825e-07 0)
(-9.95597e-06 7.14007e-07 0)
(-1.05642e-05 6.31928e-07 0)
(-1.11054e-05 5.52923e-07 0)
(-1.1581e-05 4.77217e-07 0)
(-1.19929e-05 4.04988e-07 0)
(-1.23426e-05 3.36404e-07 0)
(-1.26319e-05 2.71584e-07 0)
(-1.2863e-05 2.10636e-07 0)
(-1.30384e-05 1.53599e-07 0)
(-1.3161e-05 1.00337e-07 0)
(-1.32334e-05 5.09002e-08 0)
(-1.32585e-05 5.26261e-09 0)
(-1.32396e-05 -3.66775e-08 0)
(-1.31793e-05 -7.48108e-08 0)
(-1.30802e-05 -1.0924e-07 0)
(-1.29454e-05 -1.40086e-07 0)
(-1.27775e-05 -1.6749e-07 0)
(-1.25797e-05 -1.91594e-07 0)
(-1.23546e-05 -2.12539e-07 0)
(-1.21053e-05 -2.30477e-07 0)
(-1.18344e-05 -2.45557e-07 0)
(-1.15446e-05 -2.57931e-07 0)
(-1.12386e-05 -2.67755e-07 0)
(-1.0919e-05 -2.75193e-07 0)
(-1.05882e-05 -2.80416e-07 0)
(-1.02486e-05 -2.83609e-07 0)
(-9.90221e-06 -2.84967e-07 0)
(-9.55123e-06 -2.84689e-07 0)
(-9.1974e-06 -2.82975e-07 0)
(-8.84245e-06 -2.80013e-07 0)
(-8.48785e-06 -2.75982e-07 0)
(-8.13494e-06 -2.71041e-07 0)
(-7.7849e-06 -2.65339e-07 0)
(-7.43875e-06 -2.59006e-07 0)
(-7.0974e-06 -2.52163e-07 0)
(-6.76162e-06 -2.44912e-07 0)
(-6.43204e-06 -2.37353e-07 0)
(-6.1092e-06 -2.29567e-07 0)
(-5.79362e-06 -2.21621e-07 0)
(-5.48569e-06 -2.13573e-07 0)
(-5.18573e-06 -2.05471e-07 0)
(-4.89403e-06 -1.97355e-07 0)
(-4.61082e-06 -1.89263e-07 0)
(-4.33627e-06 -1.81235e-07 0)
(-4.07048e-06 -1.73316e-07 0)
(-3.81349e-06 -1.65563e-07 0)
(-3.56524e-06 -1.58038e-07 0)
(-3.32557e-06 -1.50796e-07 0)
(-3.09423e-06 -1.43868e-07 0)
(-2.87097e-06 -1.37242e-07 0)
(-2.65559e-06 -1.3086e-07 0)
(-2.44796e-06 -1.24617e-07 0)
(-2.24815e-06 -1.18386e-07 0)
(-2.05647e-06 -1.12048e-07 0)
(-1.87338e-06 -1.05522e-07 0)
(-1.69947e-06 -9.87603e-08 0)
(-1.53538e-06 -9.17735e-08 0)
(-1.38168e-06 -8.46328e-08 0)
(-1.23876e-06 -7.74569e-08 0)
(-1.10683e-06 -7.04128e-08 0)
(-9.8577e-07 -6.37063e-08 0)
(-8.75013e-07 -5.76124e-08 0)
(-7.73425e-07 -5.24223e-08 0)
(-6.79348e-07 -4.84258e-08 0)
(-5.90484e-07 -4.58357e-08 0)
(-5.04118e-07 -4.46508e-08 0)
(-4.17782e-07 -4.4626e-08 0)
(-3.29695e-07 -4.54025e-08 0)
(-2.38898e-07 -4.65074e-08 0)
(-1.45016e-07 -4.74506e-08 0)
(-4.8663e-08 -4.79339e-08 0)
(-4.45336e-06 0.000119314 0)
(-1.34162e-05 0.000119276 0)
(-2.24766e-05 0.000119078 0)
(-3.16333e-05 0.000118776 0)
(-4.08745e-05 0.000118359 0)
(-5.02109e-05 0.000117821 0)
(-5.96371e-05 0.000117158 0)
(-6.91291e-05 0.000116356 0)
(-7.86883e-05 0.000115406 0)
(-8.83075e-05 0.000114299 0)
(-9.79667e-05 0.000113023 0)
(-0.000107656 0.000111567 0)
(-0.000117361 0.000109918 0)
(-0.000127052 0.000108064 0)
(-0.000136709 0.000106 0)
(-0.000146311 0.000103707 0)
(-0.000155825 0.000101181 0)
(-0.000165218 9.84136e-05 0)
(-0.00017446 9.54009e-05 0)
(-0.000183516 9.21402e-05 0)
(-0.000192347 8.86318e-05 0)
(-0.000200916 8.48786e-05 0)
(-0.000209181 8.08869e-05 0)
(-0.000217103 7.66656e-05 0)
(-0.000224647 7.22272e-05 0)
(-0.000231773 6.75881e-05 0)
(-0.000238443 6.27643e-05 0)
(-0.000244626 5.77791e-05 0)
(-0.000250295 5.26569e-05 0)
(-0.000255426 4.74218e-05 0)
(-0.000259986 4.21015e-05 0)
(-0.000263965 3.6716e-05 0)
(-0.000267333 3.13038e-05 0)
(-0.000270068 2.58866e-05 0)
(-0.000272169 2.04918e-05 0)
(-0.000273637 1.51433e-05 0)
(-0.00027448 9.86123e-06 0)
(-0.000274723 4.6625e-06 0)
(-0.000274357 -4.26126e-07 0)
(-0.000273357 -5.38329e-06 0)
(-0.000271759 -1.01931e-05 0)
(-0.000269577 -1.48401e-05 0)
(-0.000266817 -1.93092e-05 0)
(-0.000263503 -2.35867e-05 0)
(-0.000259649 -2.76608e-05 0)
(-0.000255275 -3.15203e-05 0)
(-0.0002504 -3.51556e-05 0)
(-0.000245048 -3.85577e-05 0)
(-0.000239242 -4.17193e-05 0)
(-0.000233005 -4.46331e-05 0)
(-0.000226366 -4.72936e-05 0)
(-0.00021935 -4.96965e-05 0)
(-0.000211988 -5.18325e-05 0)
(-0.000204307 -5.37089e-05 0)
(-0.000196341 -5.53188e-05 0)
(-0.000188121 -5.66606e-05 0)
(-0.000179676 -5.77388e-05 0)
(-0.000171049 -5.85522e-05 0)
(-0.000162272 -5.9105e-05 0)
(-0.000153367 -5.93991e-05 0)
(-0.000144388 -5.94446e-05 0)
(-0.000135367 -5.92516e-05 0)
(-0.000126324 -5.88166e-05 0)
(-0.000117311 -5.81557e-05 0)
(-0.000108353 -5.72791e-05 0)
(-9.94847e-05 -5.61996e-05 0)
(-9.07395e-05 -5.49163e-05 0)
(-8.21527e-05 -5.34669e-05 0)
(-7.37399e-05 -5.18421e-05 0)
(-6.55604e-05 -5.00815e-05 0)
(-5.75989e-05 -4.8187e-05 0)
(-4.98988e-05 -4.61768e-05 0)
(-4.25301e-05 -4.40662e-05 0)
(-3.5406e-05 -4.18703e-05 0)
(-2.86457e-05 -3.96067e-05 0)
(-2.22441e-05 -3.72884e-05 0)
(-1.61223e-05 -3.49516e-05 0)
(-1.03973e-05 -3.25932e-05 0)
(-5.08222e-06 -3.02337e-05 0)
(-1.50192e-07 -2.78901e-05 0)
(4.41902e-06 -2.55673e-05 0)
(8.62352e-06 -2.32773e-05 0)
(1.24461e-05 -2.10366e-05 0)
(1.59034e-05 -1.88531e-05 0)
(1.89856e-05 -1.67401e-05 0)
(2.17067e-05 -1.46994e-05 0)
(2.40788e-05 -1.27418e-05 0)
(2.61045e-05 -1.08743e-05 0)
(2.78014e-05 -9.10236e-06 0)
(2.91808e-05 -7.42867e-06 0)
(3.02585e-05 -5.85806e-06 0)
(3.10459e-05 -4.39066e-06 0)
(3.15629e-05 -3.0276e-06 0)
(3.18273e-05 -1.76744e-06 0)
(3.18524e-05 -6.13365e-07 0)
(3.16556e-05 4.47948e-07 0)
(3.12637e-05 1.41082e-06 0)
(3.06875e-05 2.27625e-06 0)
(2.99326e-05 3.04634e-06 0)
(2.90255e-05 3.72753e-06 0)
(2.79789e-05 4.31784e-06 0)
(2.68099e-05 4.82518e-06 0)
(2.55344e-05 5.25318e-06 0)
(2.41602e-05 5.60699e-06 0)
(2.27127e-05 5.88655e-06 0)
(2.12066e-05 6.10308e-06 0)
(1.96398e-05 6.25731e-06 0)
(1.80381e-05 6.35472e-06 0)
(1.64148e-05 6.4017e-06 0)
(1.47664e-05 6.39936e-06 0)
(1.31188e-05 6.35425e-06 0)
(1.14794e-05 6.2714e-06 0)
(9.84917e-06 6.15295e-06 0)
(8.23978e-06 6.00451e-06 0)
(6.66215e-06 5.82944e-06 0)
(5.1228e-06 5.63348e-06 0)
(3.62137e-06 5.41387e-06 0)
(2.1714e-06 5.18081e-06 0)
(7.78007e-07 4.93666e-06 0)
(-5.59991e-07 4.68068e-06 0)
(-1.83808e-06 4.41689e-06 0)
(-3.05348e-06 4.14803e-06 0)
(-4.20286e-06 3.8763e-06 0)
(-5.28451e-06 3.60377e-06 0)
(-6.29741e-06 3.33226e-06 0)
(-7.23945e-06 3.06339e-06 0)
(-8.11097e-06 2.79841e-06 0)
(-8.91224e-06 2.5389e-06 0)
(-9.64318e-06 2.28608e-06 0)
(-1.03045e-05 2.04088e-06 0)
(-1.08967e-05 1.80404e-06 0)
(-1.14211e-05 1.57604e-06 0)
(-1.18795e-05 1.35738e-06 0)
(-1.22738e-05 1.14916e-06 0)
(-1.26057e-05 9.51683e-07 0)
(-1.28771e-05 7.65161e-07 0)
(-1.30905e-05 5.89477e-07 0)
(-1.32487e-05 4.24937e-07 0)
(-1.33546e-05 2.71818e-07 0)
(-1.34106e-05 1.30012e-07 0)
(-1.34199e-05 -6.1326e-10 0)
(-1.33855e-05 -1.20414e-07 0)
(-1.33101e-05 -2.29369e-07 0)
(-1.31967e-05 -3.27723e-07 0)
(-1.30481e-05 -4.158e-07 0)
(-1.28675e-05 -4.93994e-07 0)
(-1.26575e-05 -5.6271e-07 0)
(-1.24211e-05 -6.22358e-07 0)
(-1.21612e-05 -6.73371e-07 0)
(-1.18804e-05 -7.16175e-07 0)
(-1.15816e-05 -7.512e-07 0)
(-1.12672e-05 -7.78887e-07 0)
(-1.09399e-05 -7.997e-07 0)
(-1.06021e-05 -8.1413e-07 0)
(-1.02563e-05 -8.22715e-07 0)
(-9.90448e-06 -8.26025e-07 0)
(-9.54877e-06 -8.24651e-07 0)
(-9.19091e-06 -8.19181e-07 0)
(-8.83257e-06 -8.10169e-07 0)
(-8.47515e-06 -7.98125e-07 0)
(-8.11994e-06 -7.8351e-07 0)
(-7.76806e-06 -7.66739e-07 0)
(-7.42046e-06 -7.48197e-07 0)
(-7.07801e-06 -7.28215e-07 0)
(-6.74144e-06 -7.07101e-07 0)
(-6.41135e-06 -6.85119e-07 0)
(-6.08822e-06 -6.62514e-07 0)
(-5.77252e-06 -6.39481e-07 0)
(-5.46462e-06 -6.16178e-07 0)
(-5.16481e-06 -5.92733e-07 0)
(-4.87335e-06 -5.69254e-07 0)
(-4.59048e-06 -5.45844e-07 0)
(-4.31638e-06 -5.22612e-07 0)
(-4.05116e-06 -4.99688e-07 0)
(-3.79487e-06 -4.77236e-07 0)
(-3.54745e-06 -4.55457e-07 0)
(-3.3087e-06 -4.34533e-07 0)
(-3.07828e-06 -4.14572e-07 0)
(-2.85584e-06 -3.95549e-07 0)
(-2.64107e-06 -3.77283e-07 0)
(-2.43377e-06 -3.59437e-07 0)
(-2.234e-06 -3.41606e-07 0)
(-2.04214e-06 -3.23417e-07 0)
(-1.85873e-06 -3.04617e-07 0)
(-1.68448e-06 -2.85083e-07 0)
(-1.52014e-06 -2.64843e-07 0)
(-1.3664e-06 -2.44111e-07 0)
(-1.22377e-06 -2.23228e-07 0)
(-1.09249e-06 -2.0269e-07 0)
(-9.7258e-07 -1.83082e-07 0)
(-8.63527e-07 -1.6522e-07 0)
(-7.64198e-07 -1.49996e-07 0)
(-6.72834e-07 -1.38312e-07 0)
(-5.86835e-07 -1.30867e-07 0)
(-5.03029e-07 -1.27659e-07 0)
(-4.18608e-07 -1.27969e-07 0)
(-3.31597e-07 -1.30673e-07 0)
(-2.4094e-07 -1.34286e-07 0)
(-1.46512e-07 -1.37184e-07 0)
(-4.92144e-08 -1.38694e-07 0)
(-4.94599e-06 0.000197381 0)
(-1.48995e-05 0.000197338 0)
(-2.49612e-05 0.000197087 0)
(-3.5176e-05 0.000196698 0)
(-4.556e-05 0.000196162 0)
(-5.60543e-05 0.000195463 0)
(-6.67093e-05 0.000194574 0)
(-7.75367e-05 0.000193482 0)
(-8.84902e-05 0.000192162 0)
(-9.95887e-05 0.000190574 0)
(-0.000110821 0.000188701 0)
(-0.00012217 0.00018651 0)
(-0.000133626 0.000183978 0)
(-0.000145118 0.000181083 0)
(-0.000156669 0.00017778 0)
(-0.000168235 0.000174058 0)
(-0.000179727 0.000169894 0)
(-0.000191122 0.000165275 0)
(-0.000202345 0.000160181 0)
(-0.000213346 0.000154612 0)
(-0.000224062 0.000148565 0)
(-0.000234424 0.000142048 0)
(-0.000244369 0.000135073 0)
(-0.000253832 0.000127662 0)
(-0.000262743 0.000119836 0)
(-0.000271057 0.000111635 0)
(-0.000278713 0.000103099 0)
(-0.00028564 9.4267e-05 0)
(-0.000291818 8.52026e-05 0)
(-0.000297217 7.5955e-05 0)
(-0.000301849 6.65788e-05 0)
(-0.000305643 5.71348e-05 0)
(-0.000308581 4.76852e-05 0)
(-0.000310719 3.82807e-05 0)
(-0.000312038 2.89788e-05 0)
(-0.000312579 1.98102e-05 0)
(-0.000312382 1.0806e-05 0)
(-0.000311425 2.01445e-06 0)
(-0.000309702 -6.52766e-06 0)
(-0.000307264 -1.47964e-05 0)
(-0.000304149 -2.27671e-05 0)
(-0.000300378 -3.04156e-05 0)
(-0.000295975 -3.77238e-05 0)
(-0.000290968 -4.4673e-05 0)
(-0.000285387 -5.12483e-05 0)
(-0.000279259 -5.74358e-05 0)
(-0.000272613 -6.32231e-05 0)
(-0.00026548 -6.86e-05 0)
(-0.000257889 -7.35572e-05 0)
(-0.000249871 -7.80832e-05 0)
(-0.000241461 -8.21791e-05 0)
(-0.00023267 -8.58353e-05 0)
(-0.000223573 -8.90492e-05 0)
(-0.000214208 -9.18146e-05 0)
(-0.000204563 -9.41383e-05 0)
(-0.000194714 -9.60177e-05 0)
(-0.000184691 -9.74421e-05 0)
(-0.000174529 -9.84438e-05 0)
(-0.000164273 -9.90146e-05 0)
(-0.000153963 -9.91628e-05 0)
(-0.000143645 -9.88976e-05 0)
(-0.000133346 -9.82369e-05 0)
(-0.000123109 -9.71999e-05 0)
(-0.000112985 -9.57923e-05 0)
(-0.000103005 -9.40419e-05 0)
(-9.31553e-05 -9.19522e-05 0)
(-8.35678e-05 -8.95807e-05 0)
(-7.4226e-05 -8.69258e-05 0)
(-6.51584e-05 -8.40164e-05 0)
(-5.64314e-05 -8.08931e-05 0)
(-4.80014e-05 -7.75622e-05 0)
(-3.99324e-05 -7.40663e-05 0)
(-3.22273e-05 -7.04246e-05 0)
(-2.49147e-05 -6.66663e-05 0)
(-1.8e-05 -6.28406e-05 0)
(-1.1537e-05 -5.89465e-05 0)
(-5.50467e-06 -5.50269e-05 0)
(9.85038e-08 -5.11062e-05 0)
(5.26264e-06 -4.71973e-05 0)
(1.00129e-05 -4.33307e-05 0)
(1.43289e-05 -3.95113e-05 0)
(1.82195e-05 -3.57771e-05 0)
(2.16967e-05 -3.21363e-05 0)
(2.47638e-05 -2.86079e-05 0)
(2.74439e-05 -2.52067e-05 0)
(2.975e-05 -2.19416e-05 0)
(3.16733e-05 -1.88264e-05 0)
(3.32379e-05 -1.58725e-05 0)
(3.44667e-05 -1.30778e-05 0)
(3.53764e-05 -1.04494e-05 0)
(3.59828e-05 -7.99343e-06 0)
(3.63126e-05 -5.70406e-06 0)
(3.63835e-05 -3.58883e-06 0)
(3.61985e-05 -1.64309e-06 0)
(3.58113e-05 1.41274e-07 0)
(3.52338e-05 1.76256e-06 0)
(3.44489e-05 3.22177e-06 0)
(3.34937e-05 4.52654e-06 0)
(3.23873e-05 5.6774e-06 0)
(3.11457e-05 6.6879e-06 0)
(2.97863e-05 7.5583e-06 0)
(2.83261e-05 8.29818e-06 0)
(2.67783e-05 8.91053e-06 0)
(2.51537e-05 9.40951e-06 0)
(2.34783e-05 9.80076e-06 0)
(2.17615e-05 1.00885e-05 0)
(2.00074e-05 1.02802e-05 0)
(1.82351e-05 1.03895e-05 0)
(1.64541e-05 1.04175e-05 0)
(1.46738e-05 1.03736e-05 0)
(1.29065e-05 1.0267e-05 0)
(1.116e-05 1.01001e-05 0)
(9.43989e-06 9.88172e-06 0)
(7.75644e-06 9.61726e-06 0)
(6.11618e-06 9.31641e-06 0)
(4.51879e-06 8.98026e-06 0)
(2.97897e-06 8.61575e-06 0)
(1.5022e-06 8.22898e-06 0)
(8.42733e-08 7.82435e-06 0)
(-1.26871e-06 7.40553e-06 0)
(-2.55539e-06 6.9767e-06 0)
(-3.77226e-06 6.54089e-06 0)
(-4.91751e-06 6.1029e-06 0)
(-5.99001e-06 5.66455e-06 0)
(-6.98928e-06 5.22924e-06 0)
(-7.91516e-06 4.79952e-06 0)
(-8.76707e-06 4.37736e-06 0)
(-9.54507e-06 3.96455e-06 0)
(-1.02506e-05 3.56269e-06 0)
(-1.0885e-05 3.17316e-06 0)
(-1.14499e-05 2.79746e-06 0)
(-1.19467e-05 2.43701e-06 0)
(-1.23759e-05 2.09237e-06 0)
(-1.27397e-05 1.76372e-06 0)
(-1.30414e-05 1.45206e-06 0)
(-1.32835e-05 1.15842e-06 0)
(-1.34681e-05 8.82699e-07 0)
(-1.3597e-05 6.24683e-07 0)
(-1.36738e-05 3.8445e-07 0)
(-1.37017e-05 1.62161e-07 0)
(-1.36841e-05 -4.19884e-08 0)
(-1.3624e-05 -2.28681e-07 0)
(-1.35237e-05 -3.98228e-07 0)
(-1.33866e-05 -5.51065e-07 0)
(-1.32155e-05 -6.87732e-07 0)
(-1.30136e-05 -8.08878e-07 0)
(-1.27836e-05 -9.15157e-07 0)
(-1.25286e-05 -1.00723e-06 0)
(-1.22512e-05 -1.08577e-06 0)
(-1.19541e-05 -1.15146e-06 0)
(-1.16402e-05 -1.20493e-06 0)
(-1.13119e-05 -1.24686e-06 0)
(-1.09718e-05 -1.27796e-06 0)
(-1.06226e-05 -1.29899e-06 0)
(-1.02665e-05 -1.3108e-06 0)
(-9.90571e-06 -1.31433e-06 0)
(-9.54229e-06 -1.31057e-06 0)
(-9.1779e-06 -1.30049e-06 0)
(-8.8141e-06 -1.28498e-06 0)
(-8.45217e-06 -1.26486e-06 0)
(-8.09329e-06 -1.24082e-06 0)
(-7.73848e-06 -1.21351e-06 0)
(-7.38862e-06 -1.1835e-06 0)
(-7.04448e-06 -1.15132e-06 0)
(-6.70672e-06 -1.11745e-06 0)
(-6.37587e-06 -1.08231e-06 0)
(-6.05234e-06 -1.04627e-06 0)
(-5.73653e-06 -1.00962e-06 0)
(-5.42875e-06 -9.72614e-07 0)
(-5.12923e-06 -9.35426e-07 0)
(-4.83821e-06 -8.98208e-07 0)
(-4.55593e-06 -8.61098e-07 0)
(-4.28257e-06 -8.24244e-07 0)
(-4.0183e-06 -7.8784e-07 0)
(-3.76321e-06 -7.5216e-07 0)
(-3.51725e-06 -7.17575e-07 0)
(-3.28016e-06 -6.8445e-07 0)
(-3.05143e-06 -6.53028e-07 0)
(-2.83049e-06 -6.2328e-07 0)
(-2.61683e-06 -5.94884e-07 0)
(-2.4101e-06 -5.67208e-07 0)
(-2.21035e-06 -5.395e-07 0)
(-2.01809e-06 -5.11081e-07 0)
(-1.83405e-06 -4.8151e-07 0)
(-1.65912e-06 -4.50601e-07 0)
(-1.49429e-06 -4.18415e-07 0)
(-1.34042e-06 -3.85327e-07 0)
(-1.19817e-06 -3.51865e-07 0)
(-1.06794e-06 -3.18855e-07 0)
(-9.49891e-07 -2.87179e-07 0)
(-8.43706e-07 -2.58195e-07 0)
(-7.48273e-07 -2.33411e-07 0)
(-6.61695e-07 -2.14495e-07 0)
(-5.80802e-07 -2.02788e-07 0)
(-5.01578e-07 -1.98403e-07 0)
(-4.20573e-07 -2.00057e-07 0)
(-3.35394e-07 -2.05707e-07 0)
(-2.44727e-07 -2.12628e-07 0)
(-1.49126e-07 -2.17616e-07 0)
(-5.01751e-08 -2.20227e-07 0)
(-5.39135e-06 0.000275851 0)
(-1.62579e-05 0.00027587 0)
(-2.73069e-05 0.000275763 0)
(-3.854e-05 0.000275582 0)
(-4.99809e-05 0.000275311 0)
(-6.17603e-05 0.00027491 0)
(-7.38677e-05 0.00027435 0)
(-8.6241e-05 0.000273581 0)
(-9.90542e-05 0.000272552 0)
(-0.000112241 0.0002712 0)
(-0.000125712 0.00026945 0)
(-0.000139501 0.000267259 0)
(-0.000153507 0.0002645 0)
(-0.000167814 0.000261158 0)
(-0.00018235 0.000257121 0)
(-0.000196935 0.000252354 0)
(-0.000211529 0.000246799 0)
(-0.000226083 0.000240415 0)
(-0.000240485 0.000233177 0)
(-0.000254591 0.000225058 0)
(-0.000268318 0.000216057 0)
(-0.000281544 0.000206182 0)
(-0.000294149 0.000195457 0)
(-0.000306048 0.000183921 0)
(-0.000317113 0.000171646 0)
(-0.000327228 0.000158716 0)
(-0.000336357 0.000145226 0)
(-0.000344355 0.000131299 0)
(-0.000351173 0.000117041 0)
(-0.000356847 0.000102601 0)
(-0.000361313 8.80956e-05 0)
(-0.000364534 7.36198e-05 0)
(-0.000366555 5.93042e-05 0)
(-0.000367405 4.5216e-05 0)
(-0.000367195 3.13989e-05 0)
(-0.000366075 1.79077e-05 0)
(-0.000363985 4.80994e-06 0)
(-0.000360926 -7.81126e-06 0)
(-0.000357017 -1.99437e-05 0)
(-0.000352307 -3.15678e-05 0)
(-0.000346838 -4.26606e-05 0)
(-0.000340662 -5.32045e-05 0)
(-0.000333815 -6.31879e-05 0)
(-0.000326341 -7.25989e-05 0)
(-0.000318279 -8.14279e-05 0)
(-0.000309667 -8.96611e-05 0)
(-0.000300542 -9.72996e-05 0)
(-0.000290941 -0.000104327 0)
(-0.000280885 -0.000110745 0)
(-0.000270444 -0.000116543 0)
(-0.000259654 -0.00012172 0)
(-0.000248525 -0.000126271 0)
(-0.000237103 -0.000130199 0)
(-0.000225457 -0.000133495 0)
(-0.000213626 -0.000136163 0)
(-0.000201577 -0.000138211 0)
(-0.000189473 -0.000139638 0)
(-0.000177361 -0.000140442 0)
(-0.00016518 -0.000140664 0)
(-0.000153017 -0.000140298 0)
(-0.000140958 -0.000139369 0)
(-0.000129063 -0.000137891 0)
(-0.000117308 -0.000135891 0)
(-0.000105768 -0.000133403 0)
(-9.44586e-05 -0.000130461 0)
(-8.35057e-05 -0.000127067 0)
(-7.29294e-05 -0.00012331 0)
(-6.26538e-05 -0.000119183 0)
(-5.28298e-05 -0.000114744 0)
(-4.34389e-05 -0.000110009 0)
(-3.44641e-05 -0.000105035 0)
(-2.59817e-05 -9.98632e-05 0)
(-1.80057e-05 -9.45401e-05 0)
(-1.05567e-05 -8.91071e-05 0)
(-3.63333e-06 -8.35926e-05 0)
(2.79025e-06 -7.80358e-05 0)
(8.70757e-06 -7.24609e-05 0)
(1.4114e-05 -6.69301e-05 0)
(1.89866e-05 -6.14464e-05 0)
(2.33753e-05 -5.60518e-05 0)
(2.72767e-05 -5.07724e-05 0)
(3.06877e-05 -4.56376e-05 0)
(3.36528e-05 -4.06612e-05 0)
(3.61692e-05 -3.58694e-05 0)
(3.82598e-05 -3.12755e-05 0)
(3.99453e-05 -2.69042e-05 0)
(4.12336e-05 -2.27479e-05 0)
(4.21699e-05 -1.88287e-05 0)
(4.27841e-05 -1.51358e-05 0)
(4.3068e-05 -1.1689e-05 0)
(4.30711e-05 -8.48193e-06 0)
(4.28038e-05 -5.51471e-06 0)
(4.22815e-05 -2.78238e-06 0)
(4.15583e-05 -2.78314e-07 0)
(4.06367e-05 2.00277e-06 0)
(3.95145e-05 4.05217e-06 0)
(3.82356e-05 5.88473e-06 0)
(3.68117e-05 7.50785e-06 0)
(3.5262e-05 8.93038e-06 0)
(3.3611e-05 1.01615e-05 0)
(3.18613e-05 1.12112e-05 0)
(3.00346e-05 1.20891e-05 0)
(2.81556e-05 1.28028e-05 0)
(2.62368e-05 1.33694e-05 0)
(2.42803e-05 1.37971e-05 0)
(2.23033e-05 1.40897e-05 0)
(2.03233e-05 1.42669e-05 0)
(1.83501e-05 1.43337e-05 0)
(1.63865e-05 1.43009e-05 0)
(1.44467e-05 1.41773e-05 0)
(1.2539e-05 1.39733e-05 0)
(1.06691e-05 1.36959e-05 0)
(8.84361e-06 1.33557e-05 0)
(7.07468e-06 1.29614e-05 0)
(5.3635e-06 1.25188e-05 0)
(3.70966e-06 1.20356e-05 0)
(2.12336e-06 1.15203e-05 0)
(6.11353e-07 1.09767e-05 0)
(-8.27285e-07 1.04144e-05 0)
(-2.19372e-06 9.83528e-06 0)
(-3.48568e-06 9.24616e-06 0)
(-4.69975e-06 8.65192e-06 0)
(-5.83517e-06 8.05586e-06 0)
(-6.89317e-06 7.46221e-06 0)
(-7.87208e-06 6.87469e-06 0)
(-8.77268e-06 6.29672e-06 0)
(-9.59661e-06 5.73088e-06 0)
(-1.03451e-05 5.17884e-06 0)
(-1.1019e-05 4.64256e-06 0)
(-1.16195e-05 4.12379e-06 0)
(-1.21475e-05 3.62485e-06 0)
(-1.26056e-05 3.14602e-06 0)
(-1.29976e-05 2.68866e-06 0)
(-1.33248e-05 2.25403e-06 0)
(-1.35878e-05 1.84249e-06 0)
(-1.37905e-05 1.45404e-06 0)
(-1.3937e-05 1.09003e-06 0)
(-1.40298e-05 7.51047e-07 0)
(-1.40713e-05 4.3636e-07 0)
(-1.40638e-05 1.45818e-07 0)
(-1.40118e-05 -1.21922e-07 0)
(-1.39189e-05 -3.65768e-07 0)
(-1.37873e-05 -5.86605e-07 0)
(-1.36203e-05 -7.85222e-07 0)
(-1.34211e-05 -9.62449e-07 0)
(-1.31927e-05 -1.11921e-06 0)
(-1.29379e-05 -1.25641e-06 0)
(-1.26596e-05 -1.37497e-06 0)
(-1.23605e-05 -1.47579e-06 0)
(-1.20433e-05 -1.55975e-06 0)
(-1.17105e-05 -1.62765e-06 0)
(-1.13648e-05 -1.68031e-06 0)
(-1.10089e-05 -1.71861e-06 0)
(-1.06452e-05 -1.74352e-06 0)
(-1.02763e-05 -1.75622e-06 0)
(-9.90448e-06 -1.75802e-06 0)
(-9.53162e-06 -1.75032e-06 0)
(-9.15934e-06 -1.73451e-06 0)
(-8.789e-06 -1.71184e-06 0)
(-8.42169e-06 -1.68336e-06 0)
(-8.05844e-06 -1.64995e-06 0)
(-7.70017e-06 -1.6124e-06 0)
(-7.34763e-06 -1.57144e-06 0)
(-7.00151e-06 -1.52776e-06 0)
(-6.66242e-06 -1.48199e-06 0)
(-6.33078e-06 -1.43471e-06 0)
(-6.00687e-06 -1.38638e-06 0)
(-5.69103e-06 -1.33739e-06 0)
(-5.38348e-06 -1.28803e-06 0)
(-5.08437e-06 -1.23851e-06 0)
(-4.79392e-06 -1.18898e-06 0)
(-4.51236e-06 -1.13959e-06 0)
(-4.23989e-06 -1.09048e-06 0)
(-3.97677e-06 -1.04188e-06 0)
(-3.72319e-06 -9.9416e-07 0)
(-3.47917e-06 -9.47938e-07 0)
(-3.24435e-06 -9.03841e-07 0)
(-3.01799e-06 -8.62357e-07 0)
(-2.79918e-06 -8.23472e-07 0)
(-2.58704e-06 -7.86688e-07 0)
(-2.38102e-06 -7.50963e-07 0)
(-2.18116e-06 -7.15068e-07 0)
(-1.98818e-06 -6.77946e-07 0)
(-1.80311e-06 -6.38946e-07 0)
(-1.62713e-06 -5.97859e-07 0)
(-1.4615e-06 -5.54798e-07 0)
(-1.30731e-06 -5.10354e-07 0)
(-1.16543e-06 -4.65163e-07 0)
(-1.03638e-06 -4.20448e-07 0)
(-9.20569e-07 -3.77197e-07 0)
(-8.1796e-07 -3.37408e-07 0)
(-7.2759e-07 -3.03182e-07 0)
(-6.47468e-07 -2.77238e-07 0)
(-5.73642e-07 -2.61826e-07 0)
(-5.00792e-07 -2.57251e-07 0)
(-4.24433e-07 -2.61642e-07 0)
(-3.41546e-07 -2.71641e-07 0)
(-2.50312e-07 -2.82945e-07 0)
(-1.5269e-07 -2.9017e-07 0)
(-5.14692e-08 -2.9379e-07 0)
(-5.33941e-06 0.000349301 0)
(-1.60698e-05 0.00034948 0)
(-2.70564e-05 0.000349852 0)
(-3.83886e-05 0.000350388 0)
(-5.02043e-05 0.000351055 0)
(-6.25509e-05 0.000351783 0)
(-7.55142e-05 0.000352521 0)
(-8.92037e-05 0.000353151 0)
(-0.00010366 0.000353519 0)
(-0.000119014 0.000353471 0)
(-0.000135098 0.000352877 0)
(-0.000152172 0.000351517 0)
(-0.000170036 0.00034934 0)
(-0.000188522 0.000346157 0)
(-0.00020774 0.000341917 0)
(-0.000227299 0.000336449 0)
(-0.00024714 0.000329724 0)
(-0.000267053 0.000321632 0)
(-0.000286869 0.000312144 0)
(-0.000306399 0.000301212 0)
(-0.000325401 0.00028882 0)
(-0.000343679 0.000274979 0)
(-0.000361011 0.000259717 0)
(-0.000377114 0.000243103 0)
(-0.000391718 0.000225249 0)
(-0.000404677 0.000206271 0)
(-0.000415783 0.00018642 0)
(-0.00042495 0.0001659 0)
(-0.000432059 0.00014496 0)
(-0.000437093 0.000123887 0)
(-0.000440345 0.000102958 0)
(-0.000441708 8.24234e-05 0)
(-0.000441336 6.23867e-05 0)
(-0.00043969 4.29278e-05 0)
(-0.000436834 2.41043e-05 0)
(-0.000432738 6.05884e-06 0)
(-0.000427327 -1.11623e-05 0)
(-0.000420831 -2.75658e-05 0)
(-0.000413534 -4.31418e-05 0)
(-0.000405447 -5.78857e-05 0)
(-0.000396621 -7.17997e-05 0)
(-0.00038713 -8.48899e-05 0)
(-0.000377021 -9.71611e-05 0)
(-0.000366337 -0.000108621 0)
(-0.0003551 -0.000119274 0)
(-0.000343382 -0.000129128 0)
(-0.000331204 -0.000138187 0)
(-0.000318594 -0.000146428 0)
(-0.000305608 -0.000153863 0)
(-0.000292268 -0.000160504 0)
(-0.000278629 -0.000166354 0)
(-0.000264716 -0.0001714 0)
(-0.000250584 -0.000175643 0)
(-0.000236282 -0.000179047 0)
(-0.000221848 -0.000181678 0)
(-0.000207337 -0.000183467 0)
(-0.000192761 -0.000184509 0)
(-0.000178278 -0.000184761 0)
(-0.000163916 -0.000184235 0)
(-0.000149661 -0.000182976 0)
(-0.000135624 -0.000181005 0)
(-0.000121832 -0.000178349 0)
(-0.000108374 -0.000175046 0)
(-9.53271e-05 -0.000171127 0)
(-8.26127e-05 -0.000166636 0)
(-7.03874e-05 -0.000161649 0)
(-5.87418e-05 -0.00015618 0)
(-4.75455e-05 -0.000150276 0)
(-3.6899e-05 -0.000144016 0)
(-2.68575e-05 -0.000137438 0)
(-1.74405e-05 -0.00013059 0)
(-8.66622e-06 -0.000123573 0)
(-5.39219e-07 -0.0001164 0)
(6.96943e-06 -0.000109127 0)
(1.38743e-05 -0.000101791 0)
(2.01506e-05 -9.44669e-05 0)
(2.57547e-05 -8.71993e-05 0)
(3.07523e-05 -8.00057e-05 0)
(3.51962e-05 -7.29516e-05 0)
(3.9054e-05 -6.60554e-05 0)
(4.23431e-05 -5.93621e-05 0)
(4.51105e-05 -5.28825e-05 0)
(4.7384e-05 -4.66533e-05 0)
(4.91683e-05 -4.06951e-05 0)
(5.04914e-05 -3.50198e-05 0)
(5.14218e-05 -2.96358e-05 0)
(5.19637e-05 -2.45666e-05 0)
(5.21477e-05 -1.97941e-05 0)
(5.2003e-05 -1.53465e-05 0)
(5.15342e-05 -1.12092e-05 0)
(5.08071e-05 -7.38207e-06 0)
(4.98427e-05 -3.87282e-06 0)
(4.86718e-05 -6.50952e-07 0)
(4.7302e-05 2.27409e-06 0)
(4.57482e-05 4.90808e-06 0)
(4.40399e-05 7.2596e-06 0)
(4.22003e-05 9.34748e-06 0)
(4.02493e-05 1.11686e-05 0)
(3.82074e-05 1.27558e-05 0)
(3.60932e-05 1.41026e-05 0)
(3.39213e-05 1.52382e-05 0)
(3.1703e-05 1.61637e-05 0)
(2.94659e-05 1.69064e-05 0)
(2.72198e-05 1.74681e-05 0)
(2.4961e-05 1.78615e-05 0)
(2.27206e-05 1.81078e-05 0)
(2.05045e-05 1.82171e-05 0)
(1.83122e-05 1.81973e-05 0)
(1.61585e-05 1.80621e-05 0)
(1.40514e-05 1.78216e-05 0)
(1.19979e-05 1.74925e-05 0)
(1.00048e-05 1.70814e-05 0)
(8.07969e-06 1.66e-05 0)
(6.22305e-06 1.60584e-05 0)
(4.4384e-06 1.54629e-05 0)
(2.72936e-06 1.48246e-05 0)
(1.10237e-06 1.4149e-05 0)
(-4.36155e-07 1.34512e-05 0)
(-1.89372e-06 1.27308e-05 0)
(-3.27013e-06 1.19958e-05 0)
(-4.55989e-06 1.12513e-05 0)
(-5.76574e-06 1.05041e-05 0)
(-6.88726e-06 9.75881e-06 0)
(-7.92333e-06 9.02042e-06 0)
(-8.87531e-06 8.2924e-06 0)
(-9.745e-06 7.57779e-06 0)
(-1.05349e-05 6.87981e-06 0)
(-1.12466e-05 6.20096e-06 0)
(-1.18813e-05 5.54362e-06 0)
(-1.24401e-05 4.90988e-06 0)
(-1.29269e-05 4.30043e-06 0)
(-1.33445e-05 3.71621e-06 0)
(-1.36926e-05 3.15976e-06 0)
(-1.39746e-05 2.63093e-06 0)
(-1.41954e-05 2.13086e-06 0)
(-1.43564e-05 1.66071e-06 0)
(-1.4459e-05 1.22063e-06 0)
(-1.45081e-05 8.10495e-07 0)
(-1.45077e-05 4.30915e-07 0)
(-1.44621e-05 8.17313e-08 0)
(-1.43729e-05 -2.3882e-07 0)
(-1.42425e-05 -5.3033e-07 0)
(-1.40757e-05 -7.93816e-07 0)
(-1.38755e-05 -1.03028e-06 0)
(-1.36451e-05 -1.24078e-06 0)
(-1.33873e-05 -1.42651e-06 0)
(-1.31051e-05 -1.58867e-06 0)
(-1.28012e-05 -1.72838e-06 0)
(-1.24782e-05 -1.84679e-06 0)
(-1.21387e-05 -1.94493e-06 0)
(-1.17851e-05 -2.02372e-06 0)
(-1.142e-05 -2.08402e-06 0)
(-1.10463e-05 -2.12674e-06 0)
(-1.06665e-05 -2.15304e-06 0)
(-1.02834e-05 -2.16436e-06 0)
(-9.89941e-06 -2.16248e-06 0)
(-9.51636e-06 -2.1493e-06 0)
(-9.13569e-06 -2.12667e-06 0)
(-8.75849e-06 -2.09619e-06 0)
(-8.38558e-06 -2.05911e-06 0)
(-8.01776e-06 -2.01639e-06 0)
(-7.65583e-06 -1.96886e-06 0)
(-7.3005e-06 -1.91738e-06 0)
(-6.9524e-06 -1.8628e-06 0)
(-6.61201e-06 -1.80586e-06 0)
(-6.27966e-06 -1.74731e-06 0)
(-5.95554e-06 -1.68775e-06 0)
(-5.63981e-06 -1.62757e-06 0)
(-5.33262e-06 -1.56708e-06 0)
(-5.03404e-06 -1.50649e-06 0)
(-4.74425e-06 -1.44597e-06 0)
(-4.46345e-06 -1.3856e-06 0)
(-4.19189e-06 -1.32546e-06 0)
(-3.92995e-06 -1.26576e-06 0)
(-3.67804e-06 -1.20695e-06 0)
(-3.4363e-06 -1.15001e-06 0)
(-3.20431e-06 -1.09591e-06 0)
(-2.981e-06 -1.0456e-06 0)
(-2.76493e-06 -9.99065e-07 0)
(-2.55471e-06 -9.55605e-07 0)
(-2.34945e-06 -9.13583e-07 0)
(-2.14924e-06 -8.71134e-07 0)
(-1.95513e-06 -8.26711e-07 0)
(-1.76858e-06 -7.79458e-07 0)
(-1.59114e-06 -7.29205e-07 0)
(-1.42442e-06 -6.76139e-07 0)
(-1.26967e-06 -6.21215e-07 0)
(-1.12803e-06 -5.64979e-07 0)
(-1.00011e-06 -5.09234e-07 0)
(-8.86611e-07 -4.54774e-07 0)
(-7.8796e-07 -4.04302e-07 0)
(-7.03476e-07 -3.60466e-07 0)
(-6.3124e-07 -3.27466e-07 0)
(-5.66222e-07 -3.08739e-07 0)
(-5.01393e-07 -3.05069e-07 0)
(-4.30758e-07 -3.13869e-07 0)
(-3.50358e-07 -3.29813e-07 0)
(-2.57669e-07 -3.46623e-07 0)
(-1.56932e-07 -3.56308e-07 0)
(-5.2937e-08 -3.60332e-07 0)
(-4.36915e-06 0.00041383 0)
(-1.31201e-05 0.000414456 0)
(-2.22419e-05 0.000416098 0)
(-3.19282e-05 0.000418564 0)
(-4.24447e-05 0.000421808 0)
(-5.39918e-05 0.000425765 0)