# vtk DataFile Version 2.0
sampleSurface
ASCII
DATASET POLYDATA
POINTS 4 float
-0.0805636 -0.5 0.05 -0.0805634 0.5 0.05 -0.0805634 0.5 -0.05 -0.0805636 -0.5
-0.05 
POLYGONS 1 5
4 0 1 2 3 
POINT_DATA 4
FIELD attributes 2
p 1 4 float
100003 99997.3 99997.3 100003 
U 3 4 float
4.31515 7.06853e-10 0 4.31515 7.06853e-10 0 4.31515 7.06853e-10 0 4.31515 7.06853e-10
0 
