/*--------------------------------*- C++ -*----------------------------------*\
  =========                 |
  \\      /  F ield         | OpenFOAM: The Open Source CFD Toolbox
   \\    /   O peration     | Website:  https://openfoam.org
    \\  /    A nd           | Version:  12
     \\/     M anipulation  |
\*---------------------------------------------------------------------------*/
FoamFile
{
    format      ascii;
    class       surfaceScalarField;
    location    "6.52";
    object      phi;
}
// * * * * * * * * * * * * * * * * * * * * * * * * * * * * * * * * * * * * * //

dimensions      [1 0 -1 0 0 0 0];

internalField   nonuniform List<scalar> 
7429
(
-8.73514e-05
8.73513e-05
-0.0001759
8.85489e-05
-0.000265443
8.95425e-05
-0.000355976
9.0533e-05
-0.000447494
9.15175e-05
-0.000540005
9.25104e-05
-0.000633508
9.35033e-05
-0.000728014
9.45052e-05
-0.00082355
9.5536e-05
-0.00092013
9.65803e-05
-0.00101779
9.76554e-05
-0.00111655
9.87685e-05
-0.00121649
9.99334e-05
-0.00131762
0.000101135
-0.00142005
0.000102422
-0.0015238
0.000103753
-0.00162894
0.000105143
-0.00173552
0.000106576
-0.00184342
0.000107906
-0.00195246
0.000109032
-0.00206244
0.000109987
-0.00217321
0.000110768
-0.00228459
0.000111381
-0.00239641
0.000111812
-0.00250843
0.000112022
-0.00262043
0.000112004
-0.00273216
0.000111726
-0.00284324
0.000111076
-0.00295327
0.000110039
-0.00306185
0.000108571
-0.00316867
0.000106823
-0.00327346
0.000104796
-0.00337593
0.000102463
-0.00347566
9.97367e-05
-0.00357224
9.65793e-05
-0.0036651
9.28578e-05
-0.00375366
8.85544e-05
-0.00383723
8.35754e-05
-0.00391508
7.78482e-05
-0.00398642
7.1338e-05
-0.00405041
6.39897e-05
-0.00410619
5.5786e-05
-0.0041529
4.67011e-05
-0.00418971
3.68103e-05
-0.00421578
2.6078e-05
-0.00423005
1.42651e-05
-0.00423034
2.89276e-07
-0.00421404
-1.62975e-05
-0.00418148
-3.25619e-05
-0.00413241
-4.90718e-05
-0.00406653
-6.58731e-05
-0.00398372
-8.28115e-05
-0.00388389
-9.98366e-05
-0.0037671
-0.000116783
-0.00363362
-0.000133484
-0.0034839
-0.000149723
-0.00331831
-0.00016558
-0.00313767
-0.000180649
-0.00294264
-0.000195027
-0.00273423
-0.000208406
-0.00251353
-0.000220701
-0.00228188
-0.000231647
-0.00204084
-0.000241048
-0.00179228
-0.000248557
-0.00153816
-0.000254125
-0.00128062
-0.000257538
-0.00102199
-0.000258631
-0.000764704
-0.000257282
-0.000511448
-0.000253256
-0.000264856
-0.000246593
-2.74585e-05
-0.000237397
0.000197938
-0.000225396
0.000408627
-0.00021069
0.000602275
-0.000193647
0.000776396
-0.000174122
0.000928735
-0.000152339
0.00105743
-0.000128694
0.00116086
-0.000103429
0.00123767
-7.68115e-05
0.0012871
-4.94351e-05
0.00130865
-2.15444e-05
0.00130022
8.43141e-06
0.00126242
3.77963e-05
0.00119733
6.50944e-05
0.0011068
9.05225e-05
0.000992632
0.000114172
0.000857159
0.000135473
0.00070319
0.000153968
0.000533913
0.000169278
0.000353062
0.000180851
0.000164515
0.000188547
-2.74021e-05
0.000191917
-0.000218265
0.000190863
-0.000403725
0.000185461
-0.000579283
0.000175558
-0.000740735
0.000161452
-0.000884168
0.000143433
-0.00100599
0.000121819
-0.00110316
9.7176e-05
-0.00117336
7.01989e-05
-0.00121498
4.16175e-05
-0.00122735
1.23679e-05
-0.00120697
-2.03763e-05
-0.00115734
-4.96281e-05
-0.00108075
-7.65949e-05
-0.000979721
-0.000101027
-0.000857509
-0.000122212
-0.000718212
-0.000139298
-0.000566618
-0.000151594
-0.000408054
-0.000158564
-0.000248038
-0.000160016
-9.2358e-05
-0.00015568
5.34376e-05
-0.000145796
0.000183966
-0.000130528
0.000294459
-0.000110493
0.00038103
-8.65705e-05
0.000440543
-5.95135e-05
0.000471157
-3.06139e-05
0.000471596
-4.3896e-07
0.000440869
3.07271e-05
0.0003829
5.79689e-05
0.000301024
8.18758e-05
0.000199323
0.000101702
8.29772e-05
0.000116345
-4.19403e-05
0.000124917
-0.000168898
0.000126958
-0.000291294
0.000122395
-0.000402602
0.000111309
-0.00049693
9.43275e-05
-0.000569272
7.23418e-05
-0.000615814
4.6542e-05
-0.000634341
1.85271e-05
-0.000621833
-1.25072e-05
-0.000580266
-4.15679e-05
-0.000512886
-6.73794e-05
-0.000423324
-8.95625e-05
-0.000316723
-0.000106601
-0.000199077
-0.000117647
-7.71874e-05
-0.000121889
4.20014e-05
-0.000119189
0.000151659
-0.000109657
0.000245716
-9.40574e-05
0.000318988
-7.32714e-05
0.000367709
-4.87213e-05
0.00038954
-2.18314e-05
0.000382649
6.89081e-06
0.000348714
3.39351e-05
0.000290688
5.80266e-05
0.000212312
7.83762e-05
0.000118509
9.38022e-05
1.50346e-05
0.000103475
-9.18009e-05
0.000106836
-0.000195715
0.000103914
-0.000290728
9.50133e-05
-0.000371502
8.07741e-05
-0.000433616
6.21135e-05
-0.000473818
4.02025e-05
-0.000490219
1.64014e-05
-0.000481424
-8.79572e-06
-0.000448771
-3.2653e-05
-0.000394205
-5.45656e-05
-0.000320647
-7.35577e-05
-0.000231916
-8.87315e-05
-0.000132461
-9.94548e-05
-2.71747e-05
-0.000105287
7.89316e-05
-0.000106106
0.000181235
-0.000102304
0.000275279
-9.40438e-05
0.000357228
-8.19485e-05
0.000424007
-6.67791e-05
0.000473362
-4.93555e-05
0.000503906
-3.05434e-05
0.000515229
-1.13235e-05
0.000507653
7.57623e-06
0.00048245
2.52035e-05
0.000441502
4.09475e-05
0.000387214
5.4288e-05
0.000322461
6.47536e-05
0.000250245
7.22153e-05
0.000173831
7.6414e-05
9.62327e-05
7.75985e-05
2.04047e-05
7.5828e-05
-5.10176e-05
7.14223e-05
-0.000115855
6.48379e-05
-0.000172296
5.64404e-05
-0.0002191
4.68044e-05
-0.000255396
3.62958e-05
-0.000280912
2.55155e-05
-0.000295773
1.48613e-05
-0.000300376
4.60302e-06
-0.000295531
-4.84447e-06
-0.000282256
-1.32756e-05
-0.000261598
-2.06577e-05
-0.000234757
-2.68416e-05
-0.000202859
-3.18973e-05
-0.000166968
-3.58918e-05
-0.000127991
-3.89763e-05
-8.67484e-05
-4.12429e-05
-4.38926e-05
-4.28559e-05
-4.38926e-05
-7.29926e-05
0.000160344
-0.000146649
0.000162205
-0.000221327
0.00016422
-0.000297105
0.00016631
-0.000374017
0.00016843
-0.000452076
0.000170569
-0.000531271
0.000172698
-0.000611556
0.00017479
-0.000692874
0.000176854
-0.000775147
0.000178853
-0.000858279
0.000180787
-0.00094216
0.000182649
-0.00102675
0.00018452
-0.00111199
0.000186374
-0.00119785
0.000188284
-0.00128435
0.000190254
-0.00137148
0.000192274
-0.00145932
0.00019442
-0.0015481
0.00019668
-0.00163813
0.000199062
-0.00172969
0.000201548
-0.00182306
0.00020414
-0.00191846
0.000206776
-0.00201608
0.000209439
-0.00211606
0.000211993
-0.00221843
0.000214378
-0.00232319
0.000216487
-0.00243026
0.000218146
-0.0025395
0.000219276
-0.00265062
0.000219692
-0.00276308
0.000219287
-0.00287604
0.000217749
-0.00298861
0.000215036
-0.00309957
0.000210699
-0.00320725
0.00020426
-0.00331142
0.000197023
-0.0034123
0.000189434
-0.00350941
0.00018069
-0.00360187
0.000170307
-0.00368873
0.000158196
-0.00376897
0.000144229
-0.00384139
0.000128208
-0.00390478
0.000110087
-0.00395776
8.97934e-05
-0.00399905
6.73669e-05
-0.00402673
4.1949e-05
-0.00404261
1.61703e-05
-0.00404071
-1.82066e-05
-0.00402192
-5.13504e-05
-0.0039856
-8.53867e-05
-0.00393114
-0.000120338
-0.00385813
-0.000155821
-0.00376639
-0.00019157
-0.00365588
-0.000227303
-0.00352676
-0.000262595
-0.00337932
-0.000297164
-0.00321415
-0.000330751
-0.00303181
-0.000362995
-0.00283323
-0.000393605
-0.00261925
-0.00042239
-0.0023914
-0.000448547
-0.00215121
-0.000471836
-0.00190065
-0.000491608
-0.00164172
-0.000507488
-0.00137664
-0.000519203
-0.00110799
-0.000526189
-0.000838233
-0.000528386
-0.000570218
-0.000525297
-0.000306779
-0.000516695
-5.08393e-05
-0.000502532
0.000194724
-0.000482961
0.000426868
-0.00045754
0.000642739
-0.000426561
0.00083967
-0.000390579
0.00101509
-0.000349537
0.00116661
-0.00030386
0.00129225
-0.000254333
0.0013902
-0.000201386
0.00145919
-0.0001458
0.00149841
-8.86502e-05
0.00150748
-3.06133e-05
0.00148354
3.23636e-05
0.00142977
9.15693e-05
0.00134731
0.000147558
0.00123772
0.000200105
0.00110306
0.000248832
0.000946119
0.000292418
0.000770066
0.000330021
0.000578618
0.000360726
0.000375824
0.000383644
0.000166146
0.000398225
-4.58136e-05
0.000403877
-0.000255202
0.000400251
-0.000457167
0.000387425
-0.000646953
0.000365345
-0.000820044
0.000334542
-0.000972052
0.000295441
-0.00109938
0.000249143
-0.00119894
0.000196743
-0.00126821
0.00013947
-0.00130507
7.84716e-05
-0.00130865
1.595e-05
-0.00127833
-5.06989e-05
-0.0012167
-0.000111251
-0.00112573
-0.00016757
-0.00100833
-0.000218421
-0.000868463
-0.000262084
-0.000710863
-0.000296898
-0.000541001
-0.000321456
-0.000364731
-0.000334833
-0.000188295
-0.000336452
-1.80778e-05
-0.000325897
0.000139898
-0.000303771
0.000279802
-0.000270432
0.000396615
-0.000227307
0.000486085
-0.00017604
0.000545145
-0.000118573
0.00057181
-5.72786e-05
0.000563816
7.55425e-06
0.000523836
7.0708e-05
0.000454287
0.000127518
0.000358661
0.000177502
0.000241915
0.000218448
0.000110053
0.000248207
-3.01575e-05
0.000265128
-0.000171306
0.000268106
-0.00030614
0.000257229
-0.000427591
0.00023276
-0.000529348
0.000196084
-0.000606172
0.000149166
-0.000654073
9.44429e-05
-0.000670616
3.50702e-05
-0.000653787
-2.93363e-05
-0.000606276
-8.90783e-05
-0.000530873
-0.000142783
-0.000432068
-0.000188367
-0.000315657
-0.000223012
-0.000188622
-0.000244682
-5.81615e-05
-0.00025235
6.82526e-05
-0.000245603
0.000183295
-0.000224699
0.000280645
-0.000191407
0.00035514
-0.000147766
0.000402849
-9.64312e-05
0.000422096
-4.10779e-05
0.000411346
1.76412e-05
0.000372967
7.23135e-05
0.000309821
0.000121173
0.000226254
0.000161943
0.000127561
0.000192495
2.03646e-05
0.000210671
-8.95631e-05
0.000216763
-0.000195386
0.000209737
-0.00029111
0.000190737
-0.00037153
0.000161193
-0.000432388
0.000122972
-0.000470869
7.86835e-05
-0.000485214
3.07462e-05
-0.000474681
-1.93281e-05
-0.000440688
-6.66463e-05
-0.000385356
-0.000109898
-0.000311822
-0.000147092
-0.000224062
-0.000176492
-0.000126755
-0.000196762
-2.45249e-05
-0.000207516
7.79484e-05
-0.00020858
0.000175898
-0.000200253
0.000265094
-0.00018324
0.000342112
-0.000158967
0.000404077
-0.000128744
0.000449041
-9.43193e-05
0.000475893
-5.73959e-05
0.000484392
-1.9822e-05
0.000475114
1.68538e-05
0.000449354
5.0964e-05
0.000409037
8.12646e-05
0.000356586
0.000106738
0.000294679
0.000126661
0.00022636
0.000140534
0.000154569
0.000148205
8.22161e-05
0.000149951
1.19958e-05
0.000146048
-5.37174e-05
0.000137136
-0.000112939
0.00012406
-0.000164111
0.000107612
-0.00020609
8.87837e-05
-0.000238233
6.84389e-05
-0.00026036
4.76422e-05
-0.000272671
2.71718e-05
-0.000275602
7.53446e-06
-0.000270113
-1.03335e-05
-0.000257007
-2.63815e-05
-0.00023742
-4.0245e-05
-0.000212417
-5.18443e-05
-0.000183059
-6.12556e-05
-0.000150315
-6.86359e-05
-0.000115013
-7.4278e-05
-7.78372e-05
-7.84186e-05
-3.93493e-05
-8.13438e-05
-8.32419e-05
-8.50654e-05
0.000245409
-0.000170878
0.000248018
-0.000256985
0.000250327
-0.000343073
0.000252397
-0.000428898
0.000254255
-0.000514254
0.000255924
-0.000599055
0.000257499
-0.000683265
0.000259
-0.000766995
0.000260584
-0.000850365
0.000262222
-0.000933488
0.000263909
-0.00101648
0.000265643
-0.00109956
0.000267595
-0.00118292
0.000269735
-0.00126686
0.000272223
-0.00135176
0.000275152
-0.00143806
0.000278575
-0.00152621
0.000282569
-0.00161599
0.000286461
-0.00170703
0.000290106
-0.00179922
0.000293732
-0.00189258
0.000297504
-0.00198721
0.000301408
-0.00208325
0.000305475
-0.00218073
0.000309475
-0.00227967
0.000313317
-0.00237992
0.000316736
-0.00248124
0.000319467
-0.00258401
0.000322047
-0.00268875
0.000324432
-0.00279596
0.000326499
-0.00290589
0.00032767
-0.00301869
0.000327837
-0.00313441
0.000326423
-0.00325321
0.000323056
-0.00337363
0.000317443
-0.0034933
0.000309106
-0.00361059
0.000297979
-0.00372393
0.000283647
-0.00383168
0.000265949
-0.00393215
0.000244702
-0.00402376
0.000219809
-0.004105
0.00019133
-0.00417435
0.00015914
-0.00422964
0.000122658
-0.00427177
8.40793e-05
-0.00429699
4.13917e-05
-0.00430162
-1.35708e-05
-0.0042839
-6.90728e-05
-0.00424481
-0.000124481
-0.00418435
-0.000180792
-0.00410244
-0.000237737
-0.0039988
-0.00029521
-0.0038737
-0.000352395
-0.00372709
-0.00040921
-0.00355894
-0.000465311
-0.00336994
-0.000519749
-0.00316072
-0.000572217
-0.00293229
-0.000622037
-0.00268577
-0.000668911
-0.00242309
-0.000711228
-0.00214613
-0.000748791
-0.00185743
-0.000780306
-0.0015593
-0.000805624
-0.00125451
-0.000823994
-0.0009461
-0.000834598
-0.000637212
-0.000837274
-0.000331141
-0.000831369
-3.14526e-05
-0.000816383
0.000258337
-0.000792322
0.00053488
-0.000759503
0.000794548
-0.000717208
0.00103398
-0.000665995
0.0012502
-0.000606797
0.00144
-0.000539341
0.00160074
-0.000464593
0.00173013
-0.000383723
0.00182634
-0.000297594
0.00188797
-0.000207432
0.00191399
-0.000114672
0.00190409
-2.07098e-05
0.00185567
8.07793e-05
0.00177313
0.000174106
0.00165743
0.000263259
0.00151021
0.000347325
0.00133432
0.000424724
0.00113323
0.000493505
0.000910963
0.000552292
0.000672077
0.000599612
0.000421626
0.000634095
0.00016509
0.000654761
-9.17826e-05
0.00066075
-0.000343318
0.000651787
-0.000583924
0.000628031
-0.000807694
0.000589115
-0.00100913
0.000535978
-0.00118388
0.000470189
-0.0013272
0.000392468
-0.00143578
0.000305321
-0.00150632
0.000210013
-0.00153777
0.00010992
-0.00152743
5.60233e-06
-0.00147867
-9.94578e-05
-0.0013925
-0.000197418
-0.00127144
-0.000288627
-0.00111958
-0.000370288
-0.000942062
-0.000439598
-0.000744911
-0.000494049
-0.000534831
-0.000531536
-0.000319034
-0.00055063
-0.000105252
-0.000550234
9.88911e-05
-0.000530041
0.00028599
-0.00049087
0.000449178
-0.00043362
0.000582676
-0.000360805
0.000681482
-0.000274847
0.000742209
-0.0001793
0.000763822
-7.88909e-05
0.000742943
2.84328e-05
0.000684334
0.000129317
0.000590345
0.000221507
0.000465787
0.000302059
0.00031706
0.000367174
0.000151821
0.000413446
-2.14256e-05
0.000438375
-0.000193922
0.000440603
-0.00035683
0.000420137
-0.000501639
0.000377569
-0.000621027
0.000315473
-0.000708858
0.000236997
-0.000760985
0.00014657
-0.000774506
4.85913e-05
-0.000749072
-5.477e-05
-0.000687614
-0.000150536
-0.000593702
-0.000236696
-0.000473138
-0.000308931
-0.000333454
-0.000362696
-0.00018277
-0.000395365
-3.01401e-05
-0.000404979
0.000115128
-0.000390872
0.000245612
-0.000355183
0.00035388
-0.000299675
0.000434311
-0.000228198
0.000483316
-0.000145436
0.000498884
-5.66456e-05
0.00048098
3.55454e-05
0.000432396
0.000120897
0.000356662
0.000196906
0.000259268
0.000259337
0.000146907
0.000304856
2.61236e-05
0.000331455
-9.51708e-05
0.000338058
-0.000210387
0.000324953
-0.000313119
0.00029347
-0.000397928
0.000246002
-0.000460647
0.000185691
-0.000498393
0.000116429
-0.000509956
4.23093e-05
-0.000495811
-3.34728e-05
-0.000457177
-0.00010528
-0.00039676
-0.000170315
-0.000318248
-0.000225603
-0.000226167
-0.000268573
-0.000125231
-0.000297698
-2.05345e-05
-0.000312213
8.29327e-05
-0.000312047
0.000180658
-0.000297978
0.000268554
-0.000271137
0.000343246
-0.000233659
0.000402194
-0.000187692
0.00044366
-0.000135786
0.000466853
-8.05888e-05
0.000471823
-2.47916e-05
0.000459442
2.92353e-05
0.000431188
7.92175e-05
0.000389191
0.000123262
0.00033592
0.000160009
0.000274226
0.000188356
0.000207056
0.000207703
0.000137283
0.000217979
6.77278e-05
0.000219506
9.38175e-07
0.000212838
-6.0891e-05
0.000198965
-0.00011597
0.000179138
-0.000162926
0.000154568
-0.000200802
0.00012666
-0.000229165
9.68019e-05
-0.000247988
6.64651e-05
-0.000257507
3.66904e-05
-0.000258443
8.47095e-06
-0.000251592
-1.7184e-05
-0.00023797
-4.00038e-05
-0.000218618
-5.95973e-05
-0.000194612
-7.58502e-05
-0.000166975
-8.88928e-05
-0.000136579
-9.90321e-05
-0.000104169
-0.000106688
-7.03336e-05
-0.000112254
-3.55038e-05
-0.000116174
-0.000118746
-7.90895e-05
0.000324498
-0.000157203
0.000326131
-0.000234489
0.000327612
-0.000310139
0.000328046
-0.00038357
0.000327687
-0.000454456
0.00032681
-0.000523633
0.000326675
-0.000592783
0.00032815
-0.000663342
0.000331143
-0.000732246
0.000331125
-0.00079746
0.000329123
-0.000857559
0.000325742
-0.000911971
0.000322006
-0.000960479
0.000318243
-0.0010034
0.00031514
-0.0010413
0.000313057
-0.00107522
0.000312489
-0.00110644
0.000313788
-0.00113707
0.000317092
-0.00116956
0.000322594
-0.00120618
0.000330354
-0.00124908
0.000340405
-0.00130035
0.000352675
-0.00136163
0.000366758
-0.00143465
0.000382498
-0.00152034
0.000399005
-0.0016198
0.000416196
-0.00173284
0.000432506
-0.00185971
0.000448917
-0.00199861
0.000463327
-0.00214862
0.000476514
-0.00230727
0.000486325
-0.00247179
0.000492357
-0.00263778
0.00049241
-0.00280665
0.000491922
-0.00297903
0.000489829
-0.00315373
0.000483798
-0.00332821
0.000472465
-0.00350009
0.000455527
-0.00366681
0.000432666
-0.00382528
0.000403171
-0.00397359
0.000368124
-0.00410799
0.000325731
-0.0042276
0.000278745
-0.00432752
0.000222585
-0.00440772
0.000164279
-0.00446517
9.88379e-05
-0.00450357
2.48288e-05
-0.00451378
-5.8861e-05
-0.00449726
-0.000141003
-0.00445325
-0.000224797
-0.00438123
-0.000309759
-0.0042809
-0.000395542
-0.00415174
-0.000481554
-0.00399405
-0.000566901
-0.00380839
-0.000650969
-0.00359534
-0.000732799
-0.003356
-0.000811562
-0.00309206
-0.00088598
-0.00280562
-0.000955351
-0.00249923
-0.00101761
-0.00217556
-0.00107246
-0.00183702
-0.00111884
-0.00148748
-0.00115516
-0.00113028
-0.0011812
-0.00076906
-0.00119582
-0.000407805
-0.00119853
-5.09043e-05
-0.00118827
0.000297646
-0.00116493
0.000633175
-0.00112785
0.000951871
-0.0010782
0.00124925
-0.00101459
0.00152139
-0.000938134
0.00176428
-0.000849685
0.00197468
-0.000749741
0.00214911
-0.00063902
0.00228503
-0.000519645
0.00238025
-0.000392813
0.00243376
-0.000260939
0.00244329
-0.000124208
0.00240441
1.81703e-05
0.00232667
0.000158526
0.00220729
0.000293481
0.00204796
0.000422587
0.00185134
0.000543951
0.00162123
0.00065483
0.0013622
0.000752542
0.00107944
0.000835048
0.000778642
0.000900409
0.000466159
0.000946578
0.000148368
0.000972552
-0.00016771
0.000976828
-0.000474813
0.00095889
-0.000765593
0.000918811
-0.00103349
0.00085701
-0.00127249
0.000774979
-0.0014763
0.000673998
-0.00164001
0.000556179
-0.00175909
0.000424397
-0.00183126
0.000282186
-0.00185498
0.000133644
-0.00182697
-2.24056e-05
-0.00175293
-0.0001735
-0.00163322
-0.000317129
-0.00147166
-0.000450193
-0.00127358
-0.000568369
-0.0010456
-0.000667575
-0.000795424
-0.000744222
-0.000531728
-0.000795233
-0.000263829
-0.000818529
-7.85852e-07
-0.000813277
0.000247606
-0.000778432
0.000472987
-0.000716251
0.000666822
-0.000627455
0.000822039
-0.000516022
0.000933184
-0.000385992
0.000996533
-0.000242649
0.00100944
-9.17952e-05
0.000971757
6.61131e-05
0.000887663
0.000213411
0.000760622
0.000348548
0.000597359
0.000465322
0.000406181
0.000558353
0.000196683
0.000622944
-2.06513e-05
0.000655709
-0.000234508
0.000654459
-0.000434133
0.000619762
-0.000609245
0.000552681
-0.000751117
0.000457344
-0.000852577
0.000338457
-0.000909196
0.000203189
-0.000918215
5.76108e-05
-0.000880289
-9.26967e-05
-0.000798877
-0.000231948
-0.000679205
-0.000356368
-0.000529185
-0.00045895
-0.000357996
-0.000533886
-0.000176273
-0.000577088
5.26551e-06
-0.000586518
0.000176331
-0.000561937
0.000327114
-0.000505966
0.000449487
-0.000422049
0.000537582
-0.000316292
0.00058746
-0.000195314
0.000597978
-6.71635e-05
0.000570299
6.32239e-05
0.000507538
0.000183659
0.000414863
0.000289582
0.000299013
0.000375187
0.000167736
0.000436134
2.94096e-05
0.000469781
-0.000107376
0.000474844
-0.000235231
0.000452808
-0.000347287
0.000405526
-0.000437956
0.000336671
-0.000503119
0.000250854
-0.000540292
0.000153602
-0.000548548
5.05651e-05
-0.000529121
-5.28997e-05
-0.000483797
-0.000150604
-0.000416031
-0.000238082
-0.000330121
-0.000311513
-0.000231104
-0.00036759
-0.000124185
-0.000404617
-1.49215e-05
-0.000421476
9.16453e-05
-0.000418614
0.000190875
-0.000397208
0.000278818
-0.000359079
0.000352164
-0.000307005
0.000408678
-0.000244205
0.000446925
-0.000174033
0.000466351
-0.000100015
0.000467421
-2.58615e-05
0.000451294
4.53619e-05
0.000419737
0.000110774
0.00037501
0.000167989
0.000319885
0.000215134
0.000257271
0.000250969
0.000189974
0.000275
0.000121148
0.000286805
5.3377e-05
0.000287277
-1.09637e-05
0.000277179
-6.97455e-05
0.000257747
-0.000121375
0.000230768
-0.000164671
0.000197865
-0.000198888
0.000160877
-0.000223781
0.000121695
-0.0002394
8.2084e-05
-0.000246186
4.3477e-05
-0.000244971
7.25597e-06
-0.000236599
-2.55564e-05
-0.000222158
-5.44443e-05
-0.000202731
-7.9025e-05
-0.000179382
-9.91984e-05
-0.000153054
-0.000115221
-0.000124583
-0.000127503
-9.46502e-05
-0.00013662
-6.37111e-05
-0.000143193
-3.21022e-05
-0.000147782
-0.000150848
-0.000110571
0.000435068
-0.000219967
0.000435527
-0.000328001
0.000435645
-0.000433357
0.000433403
-0.000534835
0.000429164
-0.000630833
0.000422808
-0.000720466
0.000416307
-0.000801559
0.000409242
-0.000878566
0.000408149
-0.000957136
0.000409695
-0.0010358
0.000407788
-0.00111049
0.000400427
-0.00117941
0.000390934
-0.00124161
0.000380442
-0.00129669
0.000370213
-0.00134467
0.000361038
-0.00138589
0.000353711
-0.00142114
0.000349041
-0.00145189
0.000347839
-0.00148037
0.000351073
-0.00150893
0.00035891
-0.00154034
0.000371821
-0.00157762
0.000389956
-0.00162329
0.000412422
-0.00167973
0.00043894
-0.00174678
0.000466058
-0.00182256
0.000491975
-0.00190331
0.000513252
-0.00199727
0.000542875
-0.00210879
0.000574845
-0.00223994
0.000607664
-0.00239115
0.000637535
-0.00256218
0.000663393
-0.00275307
0.000683298
-0.00295786
0.000696712
-0.00317048
0.000702451
-0.00338669
0.000700003
-0.00360297
0.000688749
-0.00381581
0.000668368
-0.00402179
0.000638641
-0.00421817
0.000599559
-0.00440073
0.000550678
-0.00456649
0.000491496
-0.00471257
0.000424825
-0.00483825
0.000348259
-0.00493626
0.000262286
-0.00500606
0.000168639
-0.00505187
7.06387e-05
-0.00506107
-4.9657e-05
-0.00503739
-0.000164684
-0.00498152
-0.000280664
-0.00489272
-0.000398557
-0.00477061
-0.000517654
-0.00461504
-0.000637129
-0.00442534
-0.000756593
-0.00420239
-0.000873926
-0.00394717
-0.000988015
-0.00366092
-0.00109782
-0.00334651
-0.00120039
-0.00300582
-0.00129603
-0.0026417
-0.00138174
-0.00225751
-0.00145665
-0.00185697
-0.00151939
-0.00144414
-0.00156799
-0.00102305
-0.00160229
-0.000598628
-0.00162024
-0.000175358
-0.0016218
0.000241615
-0.00160524
0.000647076
-0.00157039
0.00103611
-0.00151688
0.00140348
-0.00144557
0.00174419
-0.00135531
0.00205337
-0.00124731
0.00232677
-0.00112308
0.00255998
-0.000982951
0.00274932
-0.000828356
0.00289216
-0.000662489
0.00298601
-0.00048666
0.00302753
-0.000302463
0.00301714
-0.000113811
0.00295332
8.1986e-05
0.00283997
0.00027188
0.00267711
0.000456338
0.00246728
0.000632418
0.00221432
0.000796906
0.00192274
0.000946411
0.00159824
0.00107704
0.00124709
0.0011862
0.000876176
0.00127132
0.000493319
0.00132943
0.000106881
0.00135899
-0.000274384
0.00135809
-0.000642077
0.00132658
-0.000988726
0.00126546
-0.0013055
0.00117379
-0.00158471
0.00105418
-0.00181911
0.000908406
-0.00200305
0.000740114
-0.00213252
0.000553864
-0.00220402
0.000353694
-0.00221652
0.000146142
-0.00216835
-7.05823e-05
-0.00206322
-0.000278626
-0.00190346
-0.000476893
-0.00169421
-0.000659442
-0.0014426
-0.000819974
-0.00115694
-0.000953239
-0.000846751
-0.00105441
-0.000522634
-0.00111935
-0.000195416
-0.00114575
0.000122901
-0.00113159
0.00042142
-0.00107695
0.000688759
-0.00098359
0.000915484
-0.00085418
0.00109358
-0.000694121
0.00121664
-0.000509048
0.00127991
-0.000305917
0.00128125
-9.31341e-05
0.00122373
0.000123631
0.00110917
0.000327974
0.000943858
0.000513856
0.000735779
0.000673401
0.000495491
0.000798641
0.000235134
0.0008833
-3.14296e-05
0.000922273
-0.000291462
0.000914492
-0.000531622
0.000859921
-0.000739758
0.000760817
-0.000905407
0.000622994
-0.00102063
0.000453674
-0.00108031
0.00026287
-0.00108213
5.9433e-05
-0.00102831
-0.000146517
-0.000922701
-0.000337555
-0.000772597
-0.000506471
-0.00058831
-0.000643238
-0.000381191
-0.000741004
-0.000164331
-0.000793948
4.95256e-05
-0.000800375
0.000248011
-0.000760423
0.00042019
-0.000678144
0.000556971
-0.00055883
0.00065198
-0.000411301
0.000701468
-0.000244802
0.000704905
-7.06012e-05
0.000664977
0.000103153
0.000585522
0.000263113
0.000473448
0.000401656
0.000336998
0.000511637
0.000185438
0.000587694
2.83559e-05
0.000626863
-0.000125097
0.000628296
-0.000266141
0.000593853
-0.000387612
0.000526997
-0.000483777
0.000432836
-0.000550729
0.000317805
-0.000586374
0.000189247
-0.00059044
5.4631e-05
-0.000564669
-7.86707e-05
-0.000511683
-0.000203589
-0.000435631
-0.000314134
-0.000341568
-0.000405576
-0.00023503
-0.000474128
-0.000121767
-0.00051788
-7.32619e-06
-0.000535917
0.00010251
-0.00052845
0.000203471
-0.000498169
0.00029146
-0.000447068
0.000363585
-0.00037913
0.000417641
-0.000298262
0.000452554
-0.000208946
0.000468207
-0.000115668
0.000465237
-2.28915e-05
0.000445233
6.53664e-05
0.000410166
0.000145841
0.00036261
0.000215545
0.000305402
0.000272342
0.00024155
0.000314821
0.000174143
0.000342407
0.000105893
0.000355055
3.95293e-05
0.00035364
-2.2575e-05
0.000339283
-7.86338e-05
0.000313805
-0.000127096
0.00027923
-0.000167017
0.000237786
-0.000197814
0.000191673
-0.000219436
0.000143317
-0.000232017
9.46649e-05
-0.000236242
4.77022e-05
-0.000232997
4.01036e-06
-0.000223201
-3.53521e-05
-0.000207947
-6.96986e-05
-0.000188405
-9.85668e-05
-0.000165583
-0.00012202
-0.000140416
-0.000140389
-0.000113682
-0.000154238
-8.59854e-05
-0.000164316
-5.76832e-05
-0.000171495
-2.90028e-05
-0.000176463
-0.000179851
-0.000206296
0.000641364
-0.00040795
0.000637181
-0.0006029
0.000630595
-0.000786187
0.000616689
-0.000955071
0.000598049
-0.00110207
0.000569804
-0.00123311
0.000547348
-0.00132623
0.000502361
-0.00140974
0.000491657
-0.00145546
0.000455423
-0.00147413
0.000426455
-0.00146337
0.000389668
-0.00142657
0.00035413
-0.00136431
0.000318183
-0.00127881
0.000284708
-0.00117296
0.000255194
-0.00105077
0.00023152
-0.000916829
0.000215098
-0.000776714
0.000207725
-0.000636565
0.000210924
-0.000504596
0.000226941
-0.000389691
0.000256915
-0.000302095
0.00030236
-0.000247522
0.000357849
-0.000234575
0.000425993
-0.000258654
0.000490136
-0.000335253
0.000568574
-0.000441871
0.000619869
-0.000605271
0.000706276
-0.000797413
0.000766987
-0.00102578
0.000836035
-0.00128412
0.000895872
-0.00157132
0.000950596
-0.00188222
0.000994191
-0.00221094
0.00102544
-0.00255041
0.00104192
-0.00289395
0.00104354
-0.0032349
0.0010297
-0.00356738
0.00100085
-0.00388473
0.000955994
-0.00418485
0.00089967
-0.00445967
0.000825504
-0.0047118
0.000743622
-0.00493149
0.000644518
-0.00511636
0.000533128
-0.00526601
0.000411932
-0.00537897
0.000281606
-0.00545441
0.000146072
-0.00549349
-1.0577e-05
-0.0054919
-0.00016627
-0.0054481
-0.000324464
-0.00536175
-0.000484904
-0.00523172
-0.000647683
-0.00505895
-0.000809902
-0.00484389
-0.000971655
-0.00458839
-0.00112943
-0.00429446
-0.00128195
-0.00396393
-0.00142834
-0.00359956
-0.00156476
-0.0032044
-0.00169119
-0.00278234
-0.0018038
-0.00233682
-0.00190217
-0.00187302
-0.00198319
-0.00139543
-0.00204558
-0.000909527
-0.00208819
-0.000420327
-0.00210944
6.6192e-05
-0.00210832
0.00054438
-0.00208343
0.00100799
-0.002034
0.00145093
-0.00195982
0.00186756
-0.00186221
0.00225182
-0.00173956
0.002598
-0.00159349
0.00290119
-0.00142628
0.00315671
-0.00123847
0.00336019
-0.00103183
0.00350755
-0.000809853
0.0035961
-0.000575207
0.00362499
-0.000331353
0.00359446
-8.32887e-05
0.00350173
0.000174725
0.0033501
0.00042351
0.00314119
0.000665242
0.00287832
0.000895291
0.00256604
0.00110918
0.00221004
0.00130241
0.00181706
0.00147003
0.00139483
0.00160842
0.000952142
0.00171401
0.000498289
0.00178329
4.25931e-05
0.00181469
-0.000405573
0.00180626
-0.000835951
0.00175696
-0.00123792
0.00166743
-0.00160199
0.00153786
-0.00191965
0.00137184
-0.00218373
0.00117248
-0.00238716
0.00094355
-0.00252492
0.000691617
-0.00259329
0.000422069
-0.00259115
0.000144005
-0.00251931
-0.00014243
-0.00237978
-0.000418151
-0.00217679
-0.000679887
-0.0019168
-0.000919429
-0.00160835
-0.00112843
-0.00126173
-0.00129985
-0.000888358
-0.00142778
-0.000500969
-0.00150674
-0.000113468
-0.00153325
0.000261183
-0.00150624
0.000609129
-0.0014249
0.000919067
-0.00129353
0.00117841
-0.00111352
0.00137807
-0.000893779
0.00151081
-0.000641787
0.00157241
-0.000367521
0.00156135
-8.20778e-05
0.00147984
0.000205145
0.00133156
0.000476252
0.00112424
0.000721177
0.000868066
0.000929575
0.000576899
0.00108981
0.000264288
0.00119591
-5.383e-05
0.00124039
-0.000361164
0.00122183
-0.000642203
0.00114096
-0.00088293
0.00100154
-0.00107137
0.000811433
-0.00119862
0.000580922
-0.00125891
0.000323159
-0.00125112
5.16508e-05
-0.00117849
-0.000219148
-0.00104604
-0.00047001
-0.000863292
-0.000689216
-0.000642369
-0.000864161
-0.000398336
-0.000985038
-0.00014554
-0.00104674
0.000100584
-0.0010465
0.000325858
-0.000985697
0.00051807
-0.000870356
0.000667486
-0.000708246
0.000767556
-0.000511372
0.00081497
-0.000292216
0.000809368
-6.49992e-05
0.000755456
0.000157065
0.000658138
0.00036043
0.000525885
0.000533909
0.000368553
0.000668969
0.0001968
0.000759447
2.15869e-05
0.000802076
-0.000147005
0.000796888
-0.000299793
0.00074664
-0.000429196
0.0006564
-0.000529493
0.000533133
-0.000596966
0.000385278
-0.000630058
0.000222339
-0.000629165
5.37375e-05
-0.000596464
-0.000111372
-0.000535594
-0.000264459
-0.000451403
-0.000398325
-0.000349458
-0.000507521
-0.000235856
-0.000587731
-0.000116823
-0.000636912
1.45388e-06
-0.000654194
0.000114208
-0.000641204
0.000216246
-0.000600207
0.000303854
-0.000534676
0.000374187
-0.000449462
0.000425487
-0.000349562
0.000456981
-0.00024044
0.00046874
-0.000127427
0.00046186
-1.60119e-05
0.000438214
8.90126e-05
0.000399945
0.000184111
0.000349862
0.000265629
0.000290904
0.0003313
0.000226186
0.000379539
0.00015872
0.000409873
9.13874e-05
0.000422388
2.66828e-05
0.000418345
-3.31947e-05
0.000399161
-8.65144e-05
0.000367125
-0.000131921
0.000324637
-0.000168633
0.000274498
-0.000196239
0.000219279
-0.000214777
0.000161854
-0.000224629
0.000104517
-0.000226534
4.96071e-05
-0.000221416
-1.10746e-06
-0.000210375
-4.63936e-05
-0.000194494
-8.55796e-05
-0.000174898
-0.000118162
-0.000152647
-0.000144271
-0.000128621
-0.000164414
-0.000103555
-0.000179304
-7.79283e-05
-0.000189943
-5.20918e-05
-0.000197332
-2.61238e-05
-0.000202431
-0.000205975
-0.000284907
0.000926271
-0.000561271
0.000913545
-0.000824346
0.00089367
-0.00107042
0.000862762
-0.00129203
0.00081966
-0.00146748