# Selection :     faceZone(f0)
# Faces  :        1
# Area   :        1.0000000000e-01
# Time            	areaAverage(U)
1                 	(8.6309185920e+00 0.0000000000e+00 0.0000000000e+00)
