/*--------------------------------*- C++ -*----------------------------------*\
  =========                 |
  \\      /  F ield         | OpenFOAM: The Open Source CFD Toolbox
   \\    /   O peration     | Website:  https://openfoam.org
    \\  /    A nd           | Version:  12
     \\/     M anipulation  |
\*---------------------------------------------------------------------------*/
FoamFile
{
    format      ascii;
    class       volScalarField;
    location    "19";
    object      p;
}
// * * * * * * * * * * * * * * * * * * * * * * * * * * * * * * * * * * * * * //

dimensions      [1 -1 -2 0 0 0 0];

internalField   nonuniform List<scalar> 
3829
(
-618.076
-618.075
-618.072
-618.068
-618.063
-618.056
-618.047
-618.037
-618.024
-618.01
-617.994
-617.975
-617.955
-617.932
-617.906
-617.877
-617.846
-617.812
-617.775
-617.734
-617.691
-617.644
-617.594
-617.54
-617.483
-617.423
-617.359
-617.293
-617.223
-617.151
-617.075
-616.998
-616.918
-616.837
-616.753
-616.669
-616.584
-616.498
-616.412
-616.326
-616.24
-616.156
-616.073
-615.991
-615.913
-615.837
-615.764
-615.695
-615.629
-615.567
-615.51
-615.457
-615.409
-615.365
-615.326
-615.291
-615.261
-615.236
-615.216
-615.199
-615.187
-615.179
-615.174
-615.172
-615.173
-615.176
-615.18
-615.186
-615.192
-615.197
-615.202
-615.205
-615.207
-615.205
-615.2
-615.191
-615.178
-615.161
-615.138
-615.109
-615.075
-615.034
-614.989
-614.938
-614.883
-614.824
-614.761
-614.695
-614.627
-614.557
-614.488
-614.421
-614.355
-614.294
-614.238
-614.187
-614.144
-614.109
-614.084
-614.068
-614.063
-614.069
-614.086
-614.112
-614.148
-614.192
-614.243
-614.3
-614.36
-614.423
-614.484
-614.542
-614.596
-614.642
-614.679
-614.705
-614.719
-614.721
-614.707
-614.68
-614.639
-614.588
-614.527
-614.459
-614.387
-614.314
-614.243
-614.179
-614.124
-614.082
-614.055
-614.045
-614.052
-614.078
-614.121
-614.178
-614.247
-614.323
-614.403
-614.478
-614.545
-614.598
-614.634
-614.649
-614.641
-614.61
-614.556
-614.484
-614.399
-614.305
-614.211
-614.124
-614.051
-613.998
-613.97
-613.969
-613.997
-614.049
-614.122
-614.207
-614.298
-614.381
-614.45
-614.496
-614.515
-614.505
-614.468
-614.408
-614.336
-614.26
-614.194
-614.148
-614.128
-614.138
-614.182
-614.249
-614.329
-614.41
-614.478
-614.519
-614.526
-614.496
-614.431
-614.343
-614.246
-614.154
-614.092
-614.069
-614.087
-614.15
-614.239
-614.339
-614.448
-614.503
-614.513
-614.477
-614.404
-614.315
-614.235
-614.187
-1776.56
-1776.56
-1776.56
-1776.56
-1776.55
-1776.55
-1776.54
-1776.53
-1776.52
-1776.51
-1776.5
-1776.48
-1776.46
-1776.44
-1776.42
-1776.39
-1776.36
-1776.33
-1776.29
-1776.25
-1776.2
-1776.15
-1776.1
-1776.04
-1775.97
-1775.91
-1775.83
-1775.76
-1775.68
-1775.59
-1775.51
-1775.42
-1775.33
-1775.23
-1775.13
-1775.04
-1774.94
-1774.84
-1774.74
-1774.64
-1774.54
-1774.44
-1774.35
-1774.26
-1774.17
-1774.09
-1774.01
-1773.93
-1773.86
-1773.8
-1773.74
-1773.69
-1773.64
-1773.6
-1773.56
-1773.53
-1773.51
-1773.49
-1773.48
-1773.47
-1773.47
-1773.47
-1773.48
-1773.48
-1773.5
-1773.51
-1773.53
-1773.55
-1773.56
-1773.58
-1773.6
-1773.61
-1773.62
-1773.63
-1773.63
-1773.62
-1773.61
-1773.6
-1773.58
-1773.55
-1773.51
-1773.47
-1773.42
-1773.36
-1773.3
-1773.23
-1773.16
-1773.08
-1773
-1772.92
-1772.84
-1772.76
-1772.68
-1772.61
-1772.54
-1772.48
-1772.43
-1772.39
-1772.36
-1772.34
-1772.34
-1772.35
-1772.37
-1772.41
-1772.45
-1772.51
-1772.57
-1772.65
-1772.72
-1772.8
-1772.88
-1772.95
-1773.01
-1773.07
-1773.12
-1773.15
-1773.17
-1773.17
-1773.15
-1773.12
-1773.07
-1773.01
-1772.93
-1772.85
-1772.76
-1772.67
-1772.58
-1772.5
-1772.44
-1772.38
-1772.35
-1772.34
-1772.35
-1772.38
-1772.43
-1772.51
-1772.59
-1772.68
-1772.79
-1772.88
-1772.96
-1773.03
-1773.07
-1773.09
-1773.08
-1773.04
-1772.98
-1772.89
-1772.79
-1772.68
-1772.56
-1772.46
-1772.37
-1772.3
-1772.27
-1772.27
-1772.31
-1772.37
-1772.46
-1772.57
-1772.68
-1772.78
-1772.87
-1772.92
-1772.94
-1772.93
-1772.88
-1772.8
-1772.71
-1772.61
-1772.53
-1772.47
-1772.45
-1772.46
-1772.52
-1772.6
-1772.7
-1772.8
-1772.88
-1772.94
-1772.95
-1772.91
-1772.83
-1772.72
-1772.6
-1772.49
-1772.42
-1772.39
-1772.41
-1772.49
-1772.6
-1772.72
-1772.85
-1772.92
-1772.93
-1772.88
-1772.79
-1772.68
-1772.58
-1772.52
-2802.91
-2802.92
-2802.92
-2802.92
-2802.92
-2802.92
-2802.92
-2802.92
-2802.91
-2802.91
-2802.91
-2802.9
-2802.89
-2802.88
-2802.86
-2802.84
-2802.81
-2802.78
-2802.75
-2802.7
-2802.66
-2802.6
-2802.54
-2802.47
-2802.39
-2802.31
-2802.22
-2802.12
-2802.02
-2801.91
-2801.8
-2801.69
-2801.57
-2801.45
-2801.32
-2801.2
-2801.07
-2800.95
-2800.82
-2800.7
-2800.58
-2800.46
-2800.35
-2800.24
-2800.13
-2800.04
-2799.94
-2799.86
-2799.78
-2799.71
-2799.65
-2799.59
-2799.55
-2799.51
-2799.48
-2799.46
-2799.45
-2799.44
-2799.44
-2799.45
-2799.47
-2799.49
-2799.52
-2799.55
-2799.58
-2799.62
-2799.66
-2799.7
-2799.74
-2799.77
-2799.81
-2799.84
-2799.87
-2799.89
-2799.9
-2799.91
-2799.91
-2799.9
-2799.88
-2799.85
-2799.81
-2799.76
-2799.7
-2799.63
-2799.55
-2799.46
-2799.37
-2799.27
-2799.17
-2799.06
-2798.96
-2798.86
-2798.76
-2798.66
-2798.58
-2798.5
-2798.44
-2798.39
-2798.35
-2798.33
-2798.33
-2798.35
-2798.38
-2798.43
-2798.5
-2798.58
-2798.67
-2798.76
-2798.87
-2798.97
-2799.08
-2799.18
-2799.27
-2799.35
-2799.41
-2799.45
-2799.48
-2799.48
-2799.46
-2799.41
-2799.34
-2799.26
-2799.16
-2799.04
-2798.92
-2798.8
-2798.68
-2798.58
-2798.49
-2798.42
-2798.37
-2798.36
-2798.37
-2798.42
-2798.49
-2798.59
-2798.7
-2798.83
-2798.97
-2799.1
-2799.21
-2799.3
-2799.36
-2799.39
-2799.38
-2799.33
-2799.24
-2799.13
-2798.99
-2798.84
-2798.68
-2798.54
-2798.43
-2798.34
-2798.3
-2798.31
-2798.36
-2798.45
-2798.57
-2798.71
-2798.87
-2799
-2799.11
-2799.19
-2799.21
-2799.19
-2799.12
-2799.01
-2798.88
-2798.74
-2798.63
-2798.55
-2798.51
-2798.54
-2798.61
-2798.72
-2798.86
-2799
-2799.11
-2799.19
-2799.2
-2799.15
-2799.05
-2798.9
-2798.74
-2798.59
-2798.49
-2798.46
-2798.49
-2798.59
-2798.74
-2798.9
-2799.08
-2799.16
-2799.17
-2799.1
-2798.97
-2798.82
-2798.68
-2798.6
-3712.11
-3712.11
-3712.12
-3712.13
-3712.14
-3712.15
-3712.17
-3712.19
-3712.21
-3712.23
-3712.25
-3712.26
-3712.27
-3712.28
-3712.28
-3712.28
-3712.27
-3712.25
-3712.22
-3712.18
-3712.13
-3712.07
-3711.99
-3711.91
-3711.81
-3711.71
-3711.59
-3711.46
-3711.32
-3711.18
-3711.03
-3710.87
-3710.71
-3710.55
-3710.38
-3710.21
-3710.04
-3709.88
-3709.71
-3709.55
-3709.39
-3709.24
-3709.1
-3708.96
-3708.83
-3708.72
-3708.61
-3708.52
-3708.44
-3708.36
-3708.3
-3708.25
-3708.21
-3708.18
-3708.17
-3708.16
-3708.17
-3708.18
-3708.21
-3708.24
-3708.28
-3708.34
-3708.39
-3708.46
-3708.52
-3708.59
-3708.66
-3708.74
-3708.81
-3708.87
-3708.94
-3709
-3709.05
-3709.09
-3709.12
-3709.14
-3709.15
-3709.15
-3709.13
-3709.1
-3709.05
-3708.99
-3708.91
-3708.82
-3708.72
-3708.61
-3708.49
-3708.36
-3708.22
-3708.09
-3707.95
-3707.81
-3707.68
-3707.55
-3707.44
-3707.34
-3707.26
-3707.19
-3707.15
-3707.12
-3707.13
-3707.16
-3707.21
-3707.28
-3707.37
-3707.48
-3707.61
-3707.74
-3707.89
-3708.04
-3708.18
-3708.32
-3708.45
-3708.56
-3708.64
-3708.7
-3708.73
-3708.73
-3708.7
-3708.64
-3708.55
-3708.43
-3708.29
-3708.13
-3707.96
-3707.8
-3707.63
-3707.49
-3707.36
-3707.27
-3707.21
-3707.19
-3707.21
-3707.27
-3707.38
-3707.51
-3707.67
-3707.84
-3708.05
-3708.23
-3708.38
-3708.5
-3708.59
-3708.63
-3708.61
-3708.54
-3708.43
-3708.27
-3708.08
-3707.87
-3707.67
-3707.48
-3707.32
-3707.21
-3707.16
-3707.17
-3707.24
-3707.37
-3707.54
-3707.73
-3707.94
-3708.13
-3708.28
-3708.38
-3708.41
-3708.37
-3708.26
-3708.11
-3707.93
-3707.74
-3707.57
-3707.46
-3707.42
-3707.44
-3707.54
-3707.7
-3707.89
-3708.09
-3708.25
-3708.36
-3708.38
-3708.31
-3708.16
-3707.97
-3707.75
-3707.55
-3707.41
-3707.36
-3707.42
-3707.55
-3707.75
-3707.97
-3708.22
-3708.32
-3708.33
-3708.23
-3708.05
-3707.83
-3707.64
-3707.53
-4517.46
-4517.47
-4517.49
-4517.51
-4517.55
-4517.6
-4517.65
-4517.71
-4517.77
-4517.84
-4517.91
-4517.98
-4518.04
-4518.1
-4518.15
-4518.19
-4518.21
-4518.22
-4518.21
-4518.18
-4518.12
-4518.04
-4517.95
-4517.83
-4517.7
-4517.54
-4517.38
-4517.19
-4517
-4516.8
-4516.58
-4516.36
-4516.14
-4515.91
-4515.68
-4515.45
-4515.23
-4515
-4514.79
-4514.58
-4514.38
-4514.2
-4514.02
-4513.86
-4513.7
-4513.56
-4513.44
-4513.33
-4513.23
-4513.15
-4513.09
-4513.05
-4513.01
-4513
-4513
-4513.02
-4513.05
-4513.09
-4513.15
-4513.22
-4513.3
-4513.39
-4513.49
-4513.59
-4513.7
-4513.82
-4513.93
-4514.04
-4514.16
-4514.26
-4514.36
-4514.45
-4514.54
-4514.6
-4514.66
-4514.7
-4514.72
-4514.72
-4514.71
-4514.67
-4514.61
-4514.54
-4514.44
-4514.33
-4514.19
-4514.05
-4513.89
-4513.71
-4513.54
-4513.35
-4513.17
-4512.99
-4512.81
-4512.65
-4512.5
-4512.37
-4512.26
-4512.18
-4512.12
-4512.1
-4512.1
-4512.14
-4512.21
-4512.31
-4512.44
-4512.6
-4512.77
-4512.96
-4513.16
-4513.36
-4513.56
-4513.75
-4513.92
-4514.07
-4514.18
-4514.27
-4514.31
-4514.31
-4514.26
-4514.18
-4514.05
-4513.89
-4513.7
-4513.48
-4513.26
-4513.03
-4512.81
-4512.61
-4512.44
-4512.31
-4512.23
-4512.2
-4512.24
-4512.33
-4512.47
-4512.65
-4512.87
-4513.11
-4513.39
-4513.63
-4513.84
-4514.01
-4514.12
-4514.17
-4514.15
-4514.06
-4513.9
-4513.69
-4513.44
-4513.16
-4512.88
-4512.63
-4512.42
-4512.27
-4512.2
-4512.22
-4512.32
-4512.5
-4512.73
-4513
-4513.28
-4513.54
-4513.74
-4513.86
-4513.91
-4513.84
-4513.69
-4513.48
-4513.23
-4512.96
-4512.74
-4512.58
-4512.52
-4512.56
-4512.7
-4512.92
-4513.18
-4513.45
-4513.68
-4513.82
-4513.84
-4513.75
-4513.56
-4513.29
-4512.99
-4512.72
-4512.54
-4512.48
-4512.55
-4512.74
-4513.01
-4513.3
-4513.63
-4513.77
-4513.77
-4513.63
-4513.39
-4513.09
-4512.83
-4512.67
-5230.55
-5230.57
-5230.61
-5230.66
-5230.74
-5230.83
-5230.94
-5231.06
-5231.18
-5231.31
-5231.43
-5231.56
-5231.67
-5231.77
-5231.86
-5231.93
-5231.99
-5232.03
-5232.05
-5232.06
-5232.05
-5232.03
-5231.97
-5231.89
-5231.77
-5231.6
-5231.39
-5231.15
-5230.88
-5230.58
-5230.28
-5229.96
-5229.64
-5229.33
-5229.01
-5228.7
-5228.4
-5228.11
-5227.83
-5227.56
-5227.31
-5227.07
-5226.86
-5226.65
-5226.47
-5226.31
-5226.18
-5226.06
-5225.97
-5225.89
-5225.84
-5225.81
-5225.79
-5225.8
-5225.83
-5225.87
-5225.94
-5226.02
-5226.12
-5226.23
-5226.36
-5226.5
-5226.65
-5226.81
-5226.97
-5227.13
-5227.3
-5227.47
-5227.63
-5227.78
-5227.93
-5228.06
-5228.18
-5228.28
-5228.36
-5228.42
-5228.46
-5228.47
-5228.45
-5228.41
-5228.34
-5228.24
-5228.12
-5227.97
-5227.8
-5227.61
-5227.4
-5227.18
-5226.95
-5226.71
-5226.47
-5226.23
-5226
-5225.79
-5225.6
-5225.43
-5225.29
-5225.18
-5225.12
-5225.09
-5225.1
-5225.15
-5225.25
-5225.39
-5225.56
-5225.76
-5226
-5226.25
-5226.51
-5226.79
-5227.05
-5227.3
-5227.53
-5227.72
-5227.88
-5227.99
-5228.04
-5228.04
-5227.98
-5227.86
-5227.69
-5227.48
-5227.22
-5226.94
-5226.64
-5226.33
-5226.04
-5225.78
-5225.56
-5225.39
-5225.28
-5225.24
-5225.3
-5225.42
-5225.61
-5225.86
-5226.15
-5226.47
-5226.83
-5227.14
-5227.42
-5227.65
-5227.8
-5227.87
-5227.84
-5227.72
-5227.51
-5227.23
-5226.9
-5226.53
-5226.16
-5225.83
-5225.56
-5225.37
-5225.28
-5225.31
-5225.45
-5225.69
-5226
-5226.36
-5226.73
-5227.06
-5227.32
-5227.48
-5227.52
-5227.44
-5227.25
-5226.96
-5226.62
-5226.25
-5225.96
-5225.75
-5225.67
-5225.73
-5225.91
-5226.2
-5226.55
-5226.92
-5227.22
-5227.41
-5227.44
-5227.32
-5227.06
-5226.71
-5226.32
-5225.96
-5225.72
-5225.64
-5225.74
-5226
-5226.36
-5226.75
-5227.15
-5227.34
-5227.34
-5227.16
-5226.82
-5226.43
-5226.08
-5225.87
-5861.9
-5861.94
-5862.04
-5862.17
-5862.36
-5862.58
-5862.85
-5863.15
-5863.47
-5863.8
-5864.14
-5864.47
-5864.8
-5865.11
-5865.39
-5865.64
-5865.85
-5866.02
-5866.14
-5866.2
-5866.22
-5866.18
-5865.98
-5865.68
-5865.32
-5864.92
-5864.48
-5864.02
-5863.55
-5863.08
-5862.62
-5862.15
-5861.7
-5861.26
-5860.83
-5860.42
-5860.03
-5859.66
-5859.31
-5858.98
-5858.68
-5858.41
-5858.16
-5857.94
-5857.75
-5857.56
-5857.41
-5857.28
-5857.18
-5857.11
-5857.07
-5857.05
-5857.06
-5857.09
-5857.15
-5857.24
-5857.34
-5857.47
-5857.62
-5857.79
-5857.97
-5858.17
-5858.38
-5858.59
-5858.82
-5859.05
-5859.28
-5859.5
-5859.72
-5859.93
-5860.13
-5860.31
-5860.47
-5860.61
-5860.72
-5860.8
-5860.85
-5860.87
-5860.86
-5860.81
-5860.72
-5860.6
-5860.44
-5860.26
-5860.04
-5859.8
-5859.53
-5859.24
-5858.95
-5858.64
-5858.33
-5858.03
-5857.74
-5857.47
-5857.22
-5857.01
-5856.84
-5856.7
-5856.62
-5856.59
-5856.61
-5856.68
-5856.81
-5856.99
-5857.21
-5857.48
-5857.78
-5858.11
-5858.45
-5858.8
-5859.15
-5859.47
-5859.76
-5860.01
-5860.21
-5860.35
-5860.42
-5860.41
-5860.34
-5860.18
-5859.96
-5859.68
-5859.35
-5858.98
-5858.59
-5858.2
-5857.83
-5857.49
-5857.21
-5857
-5856.87
-5856.83
-5856.89
-5857.05
-5857.29
-5857.61
-5857.99
-5858.4
-5858.85
-5859.26
-5859.63
-5859.92
-5860.11
-5860.2
-5860.17
-5860.01
-5859.74
-5859.38
-5858.95
-5858.48
-5858.01
-5857.59
-5857.24
-5857
-5856.9
-5856.94
-5857.12
-5857.43
-5857.83
-5858.3
-5858.78
-5859.2
-5859.53
-5859.73
-5859.77
-5859.67
-5859.41
-5859.04
-5858.61
-5858.09
-5857.73
-5857.47
-5857.36
-5857.43
-5857.67
-5858.05
-5858.5
-5859
-5859.38
-5859.62
-5859.67
-5859.51
-5859.17
-5858.72
-5858.21
-5857.76
-5857.45
-5857.35
-5857.48
-5857.81
-5858.28
-5858.79
-5859.28
-5859.52
-5859.53
-5859.28
-5858.85
-5858.34
-5857.88
-5857.61
-6420.04
-6420.13
-6420.33
-6420.59
-6420.93
-6421.34
-6421.84
-6422.38
-6422.97
-6423.59
-6424.21
-6424.81
-6425.37
-6425.88
-6426.34
-6426.72
-6427.02
-6427.24
-6427.35
-6427.35
-6427.22
-6426.93
-6426.67
-6426.41
-6426.08
-6425.65
-6425.14
-6424.55
-6423.94
-6423.3
-6422.67
-6422.05
-6421.45
-6420.87
-6420.33
-6419.81
-6419.33
-6418.88
-6418.47
-6418.09
-6417.74
-6417.43
-6417.15
-6416.9
-6416.68
-6416.48
-6416.34
-6416.23
-6416.14
-6416.09
-6416.07
-6416.07
-6416.11
-6416.18
-6416.28
-6416.41
-6416.57
-6416.75
-6416.95
-6417.18
-6417.43
-6417.69
-6417.97
-6418.26
-6418.55
-6418.85
-6419.15
-6419.44
-6419.73
-6420
-6420.25
-6420.49
-6420.69
-6420.87
-6421.02
-6421.12
-6421.19
-6421.22
-6421.2
-6421.14
-6421.04
-6420.89
-6420.7
-6420.46
-6420.19
-6419.89
-6419.55
-6419.2
-6418.82
-6418.44
-6418.06
-6417.68
-6417.32
-6416.98
-6416.68
-6416.41
-6416.2
-6416.04
-6415.94
-6415.9
-6415.93
-6416.02
-6416.18
-6416.41
-6416.7
-6417.04
-6417.42
-6417.83
-6418.27
-6418.71
-6419.14
-6419.54
-6419.91
-6420.22
-6420.47
-6420.64
-6420.73
-6420.72
-6420.62
-6420.43
-6420.15
-6419.79
-6419.37
-6418.91
-6418.42
-6417.93
-6417.47
-6417.05
-6416.69
-6416.43
-6416.27
-6416.24
-6416.3
-6416.5
-6416.8
-6417.21
-6417.69
-6418.21
-6418.77
-6419.28
-6419.74
-6420.1
-6420.35
-6420.46
-6420.41
-6420.22
-6419.88
-6419.43
-6418.89
-6418.3
-6417.72
-6417.19
-6416.75
-6416.46
-6416.33
-6416.39
-6416.62
-6417.01
-6417.53
-6418.11
-6418.71
-6419.24
-6419.65
-6419.9
-6419.95
-6419.8
-6419.47
-6419
-6418.46
-6417.81
-6417.34
-6417.02
-6416.89
-6416.98
-6417.28
-6417.75
-6418.32
-6418.96
-6419.44
-6419.74
-6419.8
-6419.6
-6419.18
-6418.61
-6417.97
-6417.4
-6417.02
-6416.9
-6417.06
-6417.48
-6418.07
-6418.71
-6419.31
-6419.61
-6419.62
-6419.31
-6418.76
-6418.11
-6417.54
-6417.2
-6913.67
-6913.79
-6914.04
-6914.46
-6915.04
-6915.77
-6916.67
-6917.69
-6918.75
-6919.82
-6920.88
-6921.91
-6922.88
-6923.75
-6924.52
-6925.16
-6925.68
-6926.06
-6926.31
-6926.43
-6926.43
-6926.32
-6926.03
-6925.51
-6924.78
-6923.89
-6922.89
-6921.79
-6920.72
-6919.71
-6918.76
-6917.88
-6917.08
-6916.34
-6915.67
-6915.06
-6914.51
-6914
-6913.54
-6913.13
-6912.75
-6912.42
-6912.13
-6911.87
-6911.66
-6911.49
-6911.33
-6911.22
-6911.14
-6911.1
-6911.1
-6911.14
-6911.21
-6911.32
-6911.47
-6911.65
-6911.86
-6912.1
-6912.36
-6912.66
-6912.98
-6913.31
-6913.66
-6914.03
-6914.4
-6914.77
-6915.15
-6915.52
-6915.87
-6916.21
-6916.53
-6916.82
-6917.07
-6917.3
-6917.48
-6917.61
-6917.7
-6917.74
-6917.72
-6917.64
-6917.51
-6917.33
-6917.1
-6916.81
-6916.48
-6916.11
-6915.7
-6915.27
-6914.81
-6914.34
-6913.88
-6913.42
-6912.98
-6912.56
-6912.19
-6911.87
-6911.61
-6911.42
-6911.3
-6911.25
-6911.29
-6911.41
-6911.62
-6911.9
-6912.25
-6912.67
-6913.14
-6913.65
-6914.18
-6914.72
-6915.25
-6915.75
-6916.2
-6916.58
-6916.88
-6917.09
-6917.19
-6917.18
-6917.05
-6916.81
-6916.47
-6916.03
-6915.52
-6914.95
-6914.35
-6913.75
-6913.18
-6912.67
-6912.24
-6911.91
-6911.72
-6911.68
-6911.77
-6912.01
-6912.39
-6912.89
-6913.47
-6914.12
-6914.79
-6915.42
-6915.98
-6916.43
-6916.73
-6916.86
-6916.81
-6916.57
-6916.15
-6915.6
-6914.94
-6914.22
-6913.51
-6912.86
-6912.34
-6911.98
-6911.83
-6911.9
-6912.2
-6912.68
-6913.31
-6914.03
-6914.76
-6915.41
-6915.91
-6916.21
-6916.26
-6916.08
-6915.66
-6915.07
-6914.39
-6913.63
-6913.04
-6912.64
-6912.48
-6912.59
-6912.97
-6913.54
-6914.23
-6915.05
-6915.63
-6915.99
-6916.06
-6915.82
-6915.3
-6914.6
-6913.83
-6913.13
-6912.67
-6912.52
-6912.72
-6913.24
-6913.96
-6914.74
-6915.46
-6915.84
-6915.83
-6915.45
-6914.78
-6913.98
-6913.28
-6912.86
-7348.72
-7348.92
-7349.33
-7349.96
-7350.86
-7352.04
-7353.59
-7355.6
-7358.47
-7360.49
-7362.27
-7363.8
-7365.11
-7366.24
-7367.18
-7367.96
-7368.58
-7369.03
-7369.33
-7369.46
-7369.5
-7369.43
-7369.11
-7368.42
-7367.35
-7365.93
-7364.29
-7361.76
-7360.22
-7358.77
-7357.58
-7356.55
-7355.64
-7354.83
-7354.1
-7353.44
-7352.85
-7352.32
-7351.85
-7351.42
-7351.03
-7350.69
-7350.4
-7350.14
-7349.93
-7349.75
-7349.62
-7349.52
-7349.47
-7349.46
-7349.49
-7349.56
-7349.67
-7349.82
-7350.02
-7350.25
-7350.52
-7350.82
-7351.16
-7351.53
-7351.92
-7352.33
-7352.76
-7353.21
-7353.66
-7354.12
-7354.57
-7355.02
-7355.45
-7355.86
-7356.24
-7356.59
-7356.9
-7357.17
-7357.39
-7357.55
-7357.65
-7357.7
-7357.68
-7357.59
-7357.44
-7357.22
-7356.94
-7356.6
-7356.2
-7355.76
-7355.27
-7354.75
-7354.2
-7353.64
-7353.09
-7352.54
-7352.01
-7351.52
-7351.08
-7350.7
-7350.39
-7350.16
-7350.01
-7349.97
-7350.02
-7350.17
-7350.41
-7350.75
-7351.18
-7351.68
-7352.25
-7352.86
-7353.5
-7354.15
-7354.78
-7355.37
-7355.91
-7356.37
-7356.73
-7356.98
-7357.09
-7357.08
-7356.92
-7356.63
-7356.22
-7355.69
-7355.08
-7354.4
-7353.68
-7352.96
-7352.28
-7351.66
-7351.15
-7350.77
-7350.54
-7350.48
-7350.6
-7350.89
-7351.35
-7351.95
-7352.65
-7353.42
-7354.23
-7354.98
-7355.65
-7356.18
-7356.54
-7356.7
-7356.63
-7356.35
-7355.85
-7355.18
-7354.4
-7353.54
-7352.69
-7351.92
-7351.3
-7350.87
-7350.7
-7350.79
-7351.15
-7351.73
-7352.49
-7353.34
-7354.22
-7354.99
-7355.6
-7355.95
-7356.01
-7355.77
-7355.27
-7354.55
-7353.73
-7352.83
-7352.12
-7351.64
-7351.45
-7351.59
-7352.04
-7352.73
-7353.54
-7354.57
-7355.24
-7355.66
-7355.75
-7355.46
-7354.84
-7354
-7353.07
-7352.24
-7351.69
-7351.51
-7351.76
-7352.39
-7353.26
-7354.19
-7355.04
-7355.48
-7355.48
-7355.02
-7354.2
-7353.25
-7352.4
-7351.9
-7732.07
-7732.3
-7732.79
-7733.58
-7734.7
-7736.22
-7738.28
-7740.96
-7745.13
-7748.49
-7751.33
-7753.78
-7755.88
-7757.65
-7759.11
-7760.28
-7761.15
-7761.73
-7762.01
-7761.97
-7761.54
-7760.72
-7759.65
-7758.44
-7757.06
-7755.38
-7753.43
-7750.5
-7748.58
-7746.91
-7745.53
-7744.57
-7743.6
-7742.79
-7742.07
-7741.44
-7740.87
-7740.36
-7739.89
-7739.47
-7739.1
-7738.76
-7738.47
-7738.22
-7738.02
-7737.86
-7737.74
-7737.66
-7737.62
-7737.64
-7737.7
-7737.81
-7737.96
-7738.16
-7738.41
-7738.69
-7739.02
-7739.4
-7739.8
-7740.24
-7740.71
-7741.21
-7741.72
-7742.25
-7742.79
-7743.33
-7743.87
-7744.4
-7744.9
-7745.39
-7745.84
-7746.25
-7746.62
-7746.94
-7747.19
-7747.38
-7747.5
-7747.55
-7747.53
-7747.43
-7747.25
-7746.99
-7746.66
-7746.26
-7745.79
-7745.27
-7744.7
-7744.09
-7743.45
-7742.8
-7742.14
-7741.5
-7740.88
-7740.31
-7739.79
-7739.35
-7738.98
-7738.72
-7738.55
-7738.5
-7738.56
-7738.74
-7739.04
-7739.44
-7739.94
-7740.54
-7741.2
-7741.92
-7742.67
-7743.43
-7744.17
-7744.87
-7745.5
-7746.04
-7746.46
-7746.74
-7746.88
-7746.86
-7746.67
-7746.33
-7745.84
-7745.22
-7744.5
-7743.7
-7742.86
-7742.01
-7741.21
-7740.49
-7739.89
-7739.44
-7739.18
-7739.11
-7739.25
-7739.6
-7740.14
-7740.84
-7741.67
-7742.58
-7743.52
-7744.4
-7745.19
-7745.81
-7746.24
-7746.42
-7746.34
-7746
-7745.42
-7744.63
-7743.71
-7742.71
-7741.71
-7740.81
-7740.08
-7739.6
-7739.4
-7739.51
-7739.93
-7740.62
-7741.51
-7742.52
-7743.54
-7744.45
-7745.15
-7745.56
-7745.63
-7745.34
-7744.74
-7743.89
-7742.91
-7741.87
-7741.04
-7740.47
-7740.24
-7740.41
-7740.95
-7741.76
-7742.71
-7743.92
-7744.7
-7745.21
-7745.3
-7744.96
-7744.24
-7743.25
-7742.17
-7741.19
-7740.55
-7740.34
-7740.64
-7741.38
-7742.4
-7743.49
-7744.48
-7744.99
-7744.98
-7744.44
-7743.48
-7742.36
-7741.36
-7740.77
-8069.97
-8070.09
-8070.32
-8070.66
-8071.03
-8071.41
-8071.66
-8072
-8089.15
-8088.65
-8088.28
-8087.75
-8087.19
-8086.6
-8086.02
-8085.43
-8084.89
-8084.38
-8083.91
-8083.48
-8083.08
-8082.72
-8082.39
-8082.11
-8081.87
-8081.68
-8081.52
-8081.41
-8081.36
-8081.35
-8081.39
-8081.49
-8081.63
-8081.83
-8082.07
-8082.37
-8082.72
-8083.11
-8083.55
-8084.03
-8084.54
-8085.09
-8085.67
-8086.27
-8086.88
-8087.51
-8088.14
-8088.76
-8089.37
-8089.96
-8090.52
-8091.05
-8091.52
-8091.95
-8092.31
-8092.6
-8092.82
-8092.96
-8093.02
-8092.99
-8092.87
-8092.66
-8092.36
-8091.98
-8091.52
-8090.98
-8090.38
-8089.72
-8089.01
-8088.28
-8087.52
-8086.77
-8086.03
-8085.32
-8084.66
-8084.07
-8083.56
-8083.15
-8082.84
-8082.65
-8082.6
-8082.67
-8082.88
-8083.22
-8083.69
-8084.28
-8084.96
-8085.73
-8086.56
-8087.43
-8088.3
-8089.16
-8089.96
-8090.69
-8091.3
-8091.78
-8092.11
-8092.26
-8092.24
-8092.02
-8091.62
-8091.06
-8090.34
-8089.5
-8088.58
-8087.61
-8086.64
-8085.72
-8084.89
-8084.19
-8083.68
-8083.38
-8083.3
-8083.47
-8083.88
-8084.5
-8085.31
-8086.27
-8087.31
-8088.4
-8089.42
-8090.32
-8091.04
-8091.52
-8091.73
-8091.64
-8091.24
-8090.57
-8089.67
-8088.6
-8087.45
-8086.31
-8085.28
-8084.44
-8083.88
-8083.66
-8083.79
-8084.28
-8085.08
-8086.11
-8087.27
-8088.45
-8089.5
-8090.3
-8090.77
-8090.84
-8090.5
-8089.79
-8088.81
-8087.68
-8086.49
-8085.53
-8084.86
-8084.61
-8084.81
-8085.43
-8086.38
-8087.49
-8088.84
-8089.76
-8090.34
-8090.46
-8090.06
-8089.22
-8088.08
-8086.84
-8085.72
-8084.98
-8084.74
-8085.09
-8085.94
-8087.12
-8088.38
-8089.5
-8090.1
-8090.08
-8089.45
-8088.35
-8087.05
-8085.9
-8085.22
-8368.05
-8368.09
-8368.15
-8368.24
-8368.4
-8368.73
-8368.93
-8369.18
-8392.43
-8392.06
-8391.76
-8391.36
-8390.93
-8390.46
-8389.99
-8389.51
-8389.04
-8388.58
-8388.15
-8387.74
-8387.36
-8387.02
-8386.71
-8386.43
-8386.2
-8386.01
-8385.87
-8385.78
-8385.74
-8385.75
-8385.82
-8385.94
-8386.12
-8386.36
-8386.65
-8387
-8387.41
-8387.86
-8388.37
-8388.92
-8389.51
-8390.14
-8390.8
-8391.49
-8392.19
-8392.9
-8393.62
-8394.33
-8395.02
-8395.69
-8396.33
-8396.92
-8397.46
-8397.94
-8398.35
-8398.69
-8398.93
-8399.09
-8399.15
-8399.12
-8398.98
-8398.74
-8398.4
-8397.97
-8397.44
-8396.83
-8396.15
-8395.4
-8394.6
-8393.76
-8392.91
-8392.05
-8391.22
-8390.42
-8389.67
-8389
-8388.42
-8387.95
-8387.61
-8387.4
-8387.34
-8387.43
-8387.67
-8388.06
-8388.6
-8389.26
-8390.04
-8390.92
-8391.86
-8392.84
-8393.84
-8394.8
-8395.72
-8396.54
-8397.23
-8397.78
-8398.14
-8398.31
-8398.28
-8398.03
-8397.58
-8396.93
-8396.12
-8395.17
-8394.12
-8393.02
-8391.92
-8390.87
-8389.93
-8389.15
-8388.57
-8388.23
-8388.15
-8388.34
-8388.8
-8389.51
-8390.44
-8391.52
-8392.71
-8393.94
-8395.09
-8396.11
-8396.93
-8397.47
-8397.71
-8397.6
-8397.15
-8396.39
-8395.36
-8394.16
-8392.85
-8391.56
-8390.39
-8389.45
-8388.82
-8388.57
-8388.73
-8389.29
-8390.2
-8391.37
-8392.69
-8394.03
-8395.21
-8396.12
-8396.64
-8396.72
-8396.33
-8395.51
-8394.39
-8393.1
-8391.76
-8390.66
-8389.91
-8389.63
-8389.86
-8390.57
-8391.65
-8392.92
-8394.42
-8395.47
-8396.13
-8396.27
-8395.82
-8394.87
-8393.57
-8392.16
-8390.9
-8390.06
-8389.79
-8390.19
-8391.16
-8392.5
-8393.93
-8395.19
-8395.86
-8395.85
-8395.12
-8393.87
-8392.39
-8391.09
-8390.31
-8632.33
-8632.38
-8632.47
-8632.63
-8632.83
-8632.95
-8632.91
-8632.99
-8661.11
-8660.9
-8660.69
-8660.41
-8660.07
-8659.68
-8659.29
-8658.86
-8658.43
-8658.01
-8657.61
-8657.22
-8656.85
-8656.51
-8656.21
-8655.94
-8655.71
-8655.53
-8655.4
-8655.32
-8655.29
-8655.32
-8655.41
-8655.57
-8655.78
-8656.06
-8656.4
-8656.8
-8657.26
-8657.77
-8658.35
-8658.97
-8659.64
-8660.34
-8661.09
-8661.86
-8662.64
-8663.44
-8664.25
-8665.04
-8665.82
-8666.57
-8667.28
-8667.94
-8668.55
-8669.08
-8669.54
-8669.91
-8670.19
-8670.36
-8670.43
-8670.39
-8670.23
-8669.97
-8669.58
-8669.1
-8668.51
-8667.82
-8667.05
-8666.22
-8665.32
-8664.39
-8663.43
-8662.48
-8661.54
-8660.65
-8659.82
-8659.07
-8658.43
-8657.91
-8657.52
-8657.29
-8657.23
-8657.33
-8657.6
-8658.05
-8658.65
-8659.39
-8660.27
-8661.25
-8662.3
-8663.4
-8664.51
-8665.59
-8666.61
-8667.53
-8668.3
-8668.91
-8669.31
-8669.5
-8669.46
-8669.18
-8668.67
-8667.95
-8667.04
-8665.97
-8664.8
-8663.57
-8662.34
-8661.17
-8660.12
-8659.25
-8658.6
-8658.22
-8658.13
-8658.35
-8658.87
-8659.67
-8660.71
-8661.92
-8663.25
-8664.62
-8665.9
-8667.04
-8667.95
-8668.56
-8668.82
-8668.7
-8668.19
-8667.34
-8666.2
-8664.85
-8663.39
-8661.95
-8660.65
-8659.6
-8658.9
-8658.62
-8658.8
-8659.44
-8660.46
-8661.77
-8663.25
-8664.74
-8666.06
-8667.07
-8667.66
-8667.73
-8667.29
-8666.37
-8665.11
-8663.66
-8662.16
-8660.94
-8660.1
-8659.78
-8660.04
-8660.85
-8662.07
-8663.5
-8665.14
-8666.32
-8667.07
-8667.22
-8666.72
-8665.65
-8664.2
-8662.63
-8661.22
-8660.28
-8659.99
-8660.43
-8661.52
-8663.02
-8664.62
-8666.02
-8666.77
-8666.75
-8665.94
-8664.53
-8662.88
-8661.42
-8660.55
-8866.29
-8866.3
-8866.33
-8866.35
-8866.32
-8866.25
-8866.41
-8866.49
-8899.36
-8899.22
-8899.06
-8898.83
-8898.54
-8898.2
-8897.85
-8897.46
-8897.06
-8896.66
-8896.27
-8895.89
-8895.53
-8895.19
-8894.89
-8894.62
-8894.39
-8894.21
-8894.09
-8894.01
-8894
-8894.05
-8894.16
-8894.34
-8894.59
-8894.9
-8895.29
-8895.73
-8896.25
-8896.83
-8897.46
-8898.16
-8898.9
-8899.68
-8900.5
-8901.36
-8902.23
-8903.11
-8904
-8904.88
-8905.74
-8906.57
-8907.35
-8908.08
-8908.75
-8909.34
-8909.84
-8910.25
-8910.55
-8910.75
-8910.82
-8910.77
-8910.6
-8910.3
-8909.88
-8909.33
-8908.68
-8907.92
-8907.08
-8906.15
-8905.16
-8904.13
-8903.07
-8902.02
-8900.99
-8900
-8899.09
-8898.27
-8897.56
-8896.98
-8896.57
-8896.32
-8896.25
-8896.36
-8896.67
-8897.16
-8897.82
-8898.65
-8899.62
-8900.7
-8901.86
-8903.08
-8904.3
-8905.5
-8906.62
-8907.63
-8908.48
-8909.15
-8909.6
-8909.8
-8909.75
-8909.44
-8908.88
-8908.08
-8907.07
-8905.89
-8904.59
-8903.23
-8901.88
-8900.59
-8899.43
-8898.47
-8897.75
-8897.33
-8897.24
-8897.49
-8898.06
-8898.95
-8900.1
-8901.44
-8902.9
-8904.41
-8905.83
-8907.09
-8908.09
-8908.76
-8909.04
-8908.91
-8908.35
-8907.41
-8906.14
-8904.65
-8903.05
-8901.46
-8900.03
-8898.87
-8898.1
-8897.8
-8898.01
-8898.71
-8899.84
-8901.29
-8902.92
-8904.57
-8906.03
-8907.14
-8907.78
-8907.86
-8907.36
-8906.34
-8904.94
-8903.33
-8901.69
-8900.34
-8899.41
-8899.06
-8899.35
-8900.25
-8901.61
-8903.2
-8904.97
-8906.29
-8907.12
-8907.28
-8906.73
-8905.55
-8903.95
-8902.21
-8900.66
-8899.62
-8899.3
-8899.79
-8901
-8902.66
-8904.42
-8905.96
-8906.78
-8906.76
-8905.86
-8904.31
-8902.48
-8900.87
-8899.91
-9073.5
-9073.51
-9073.52
-9073.54
-9073.58
-9073.65
-9073.64
-9073.66
-9110.59
-9110.47
-9110.32
-9110.14
-9109.87
-9109.55
-9109.21
-9108.84
-9108.45
-9108.06
-9107.67
-9107.29
-9106.93
-9106.59
-9106.28
-9106.01
-9105.78
-9105.6
-9105.47
-9105.41
-9105.4
-9105.47
-9105.6
-9105.8
-9106.08
-9106.43
-9106.86
-9107.35
-9107.92
-9108.55
-9109.25
-9110.01
-9110.82
-9111.68
-9112.58
-9113.52
-9114.47
-9115.44
-9116.4
-9117.36
-9118.3
-9119.21
-9120.06
-9120.86
-9121.59
-9122.23
-9122.78
-9123.22
-9123.55
-9123.76
-9123.83
-9123.78
-9123.59
-9123.26
-9122.79
-9122.2
-9121.49
-9120.66
-9119.73
-9118.72
-9117.64
-9116.52
-9115.36
-9114.21
-9113.09
-9112.01
-9111.02
-9110.12
-9109.35
-9108.72
-9108.27
-9108
-9107.93
-9108.06
-9108.39
-9108.93
-9109.66
-9110.56
-9111.62
-9112.8
-9114.08
-9115.4
-9116.74
-9118.04
-9119.27
-9120.37
-9121.3
-9122.02
-9122.51
-9122.73
-9122.67
-9122.33
-9121.71
-9120.83
-9119.73
-9118.44
-9117.03
-9115.54
-9114.06
-9112.66
-9111.39
-9110.34
-9109.57
-9109.11
-9109.01
-9109.28
-9109.92
-9110.89
-9112.14
-9113.61
-9115.21
-9116.85
-9118.4
-9119.77
-9120.87
-9121.59
-9121.9
-9121.75
-9121.14
-9120.1
-9118.72
-9117.1
-9115.35
-9113.62
-9112.06
-9110.8
-9109.97
-9109.64
-9109.87
-9110.64
-9111.88
-9113.47
-9115.25
-9117.04
-9118.63
-9119.85
-9120.54
-9120.62
-9120.07
-9118.95
-9117.41
-9115.65
-9113.87
-9112.39
-9111.37
-9110.99
-9111.32
-9112.3
-9113.79
-9115.54
-9117.44
-9118.89
-9119.8
-9119.98
-9119.38
-9118.09
-9116.34
-9114.44
-9112.75
-9111.62
-9111.27
-9111.81
-9113.13
-9114.95
-9116.87
-9118.54
-9119.44
-9119.41
-9118.43
-9116.73
-9114.73
-9112.97
-9111.92
-9257.04
-9257.05
-9257.06
-9257.07
-9257.09
-9257.11
-9257.09
-9257.13
-9297.8
-9297.7
-9297.56
-9297.37
-9297.12
-9296.81
-9296.48
-9296.11
-9295.72
-9295.33
-9294.93
-9294.54
-9294.17
-9293.82
-9293.5
-9293.22
-9292.99
-9292.81
-9292.68
-9292.62
-9292.62
-9292.7
-9292.85
-9293.08
-9293.38
-9293.77
-9294.23
-9294.77
-9295.39
-9296.08
-9296.84
-9297.66
-9298.54
-9299.47
-9300.44
-9301.45
-9302.48
-9303.53
-9304.58
-9305.61
-9306.63
-9307.6
-9308.53
-9309.39
-9310.17
-9310.87
-9311.46
-9311.93
-9312.29
-9312.51
-9312.59
-9312.53
-9312.32
-9311.96
-9311.46
-9310.81
-9310.04
-9309.14
-9308.14
-9307.04
-9305.88
-9304.66
-9303.41
-9302.17
-9300.96
-9299.8
-9298.72
-9297.75
-9296.92
-9296.25
-9295.76
-9295.47
-9295.4
-9295.54
-9295.9
-9296.49
-9297.28
-9298.26
-9299.4
-9300.68
-9302.06
-9303.49
-9304.94
-9306.35
-9307.67
-9308.85
-9309.86
-9310.64
-9311.16
-9311.4
-9311.33
-9310.96
-9310.29
-9309.34
-9308.14
-9306.75
-9305.22
-9303.62
-9302.02
-9300.5
-9299.13
-9298
-9297.17
-9296.68
-9296.57
-9296.87
-9297.55
-9298.6
-9299.96
-9301.55
-9303.28
-9305.05
-9306.72
-9308.21
-9309.38
-9310.17
-9310.5
-9310.33
-9309.67
-9308.55
-9307.06
-9305.3
-9303.41
-9301.55
-9299.86
-9298.51
-9297.61
-9297.26
-9297.52
-9298.35
-9299.69
-9301.41
-9303.34
-9305.28
-9306.99
-9308.3
-9309.05
-9309.13
-9308.53
-9307.31
-9305.64
-9303.74
-9301.81
-9300.21
-9299.11
-9298.71
-9299.06
-9300.13
-9301.75
-9303.65
-9305.67
-9307.24
-9308.23
-9308.43
-9307.78
-9306.38
-9304.49
-9302.44
-9300.62
-9299.4
-9299.02
-9299.61
-9301.03
-9303
-9305.09
-9306.87
-9307.84
-9307.81
-9306.75
-9304.91
-9302.75
-9300.84
-9299.71
-9419.63
-9419.63
-9419.64
-9419.65
-9419.66
-9419.67
-9419.67
-9419.7
-9463.71
-9463.62
-9463.47
-9463.28
-9463.03
-9462.73
-9462.39
-9462.01
-9461.62
-9461.21