/*--------------------------------*- C++ -*----------------------------------*\
  =========                 |
  \\      /  F ield         | OpenFOAM: The Open Source CFD Toolbox
   \\    /   O peration     | Website:  https://openfoam.org
    \\  /    A nd           | Version:  12
     \\/     M anipulation  |
\*---------------------------------------------------------------------------*/
FoamFile
{
    format      ascii;
    class       volScalarField;
    location    "19";
    object      p_rgh;
}
// * * * * * * * * * * * * * * * * * * * * * * * * * * * * * * * * * * * * * //

dimensions      [1 -1 -2 0 0 0 0];

internalField   nonuniform List<scalar> 
3829
(
-3.83792
-3.83661
-3.83395
-3.82988
-3.82434
-3.81725
-3.80852
-3.79808
-3.78581
-3.77161
-3.75537
-3.73695
-3.71625
-3.69311
-3.66741
-3.63902
-3.6078
-3.57365
-3.53643
-3.49606
-3.45245
-3.40554
-3.35529
-3.30168
-3.24472
-3.18445
-3.12094
-3.05429
-2.98464
-2.91215
-2.83701
-2.75946
-2.67974
-2.59813
-2.51494
-2.4305
-2.34514
-2.25921
-2.17309
-2.08714
-2.00176
-1.91735
-1.8343
-1.75306
-1.67437
-1.59844
-1.52562
-1.45624
-1.3906
-1.32895
-1.27154
-1.21853
-1.17007
-1.12625
-1.08713
-1.05272
-1.02299
-0.997876
-0.977259
-0.960971
-0.948779
-0.940397
-0.935484
-0.933642
-0.934426
-0.937334
-0.941818
-0.947346
-0.953211
-0.958849
-0.963628
-0.966911
-0.968067
-0.96649
-0.961607
-0.952894
-0.939891
-0.922221
-0.899629
-0.870693
-0.836072
-0.795921
-0.750456
-0.699958
-0.644785
-0.585393
-0.522413
-0.456603
-0.388823
-0.318249
-0.249561
-0.182074
-0.117023
-0.0556437
0.000821955
0.0511678
0.0942762
0.129124
0.154853
0.170779
0.175707
0.169547
0.152823
0.126141
0.0902479
0.0461062
-0.00501872
-0.0615905
-0.121829
-0.184139
-0.245393
-0.303834
-0.357247
-0.403486
-0.440577
-0.466849
-0.480999
-0.482196
-0.468483
-0.441073
-0.40103
-0.349676
-0.288856
-0.220981
-0.148848
-0.0751977
-0.00488873
0.0593428
0.114066
0.15621
0.183259
0.193438
0.185939
0.159977
0.117296
0.06014
-0.00842263
-0.0843342
-0.164481
-0.239765
-0.306523
-0.359896
-0.39562
-0.410538
-0.40295
-0.371075
-0.317567
-0.245772
-0.160332
-0.0669962
0.0275747
0.114437
0.187412
0.240201
0.268225
0.268991
0.241362
0.188936
0.116797
0.031579
-0.0594371
-0.142683
-0.211367
-0.257818
-0.276896
-0.266844
-0.22917
-0.169824
-0.0973877
-0.0220555
0.0441653
0.0908554
0.110846
0.100429
0.0567821
-0.010073
-0.0902106
-0.171904
-0.239345
-0.28051
-0.287415
-0.25711
-0.192184
-0.104529
-0.00738873
0.0846831
0.1461
0.169916
0.150936
0.0888957
-0.000298911
-0.100133
-0.209094
-0.264728
-0.2749
-0.238291
-0.165426
-0.0766839
0.00332963
0.0510493
-3.95539
-3.95448
-3.9526
-3.94968
-3.94565
-3.94038
-3.93376
-3.92562
-3.9158
-3.90412
-3.89036
-3.87433
-3.8558
-3.83456
-3.81043
-3.78316
-3.75255
-3.71836
-3.68038
-3.63842
-3.59233
-3.54198
-3.48729
-3.42823
-3.3648
-3.29707
-3.22516
-3.14922
-3.06945
-2.98608
-2.89935
-2.80955
-2.71705
-2.62222
-2.5255
-2.42734
-2.32821
-2.2286
-2.12902
-2.02995
-1.93185
-1.83512
-1.74004
-1.64898
-1.56148
-1.47804
-1.39897
-1.32461
-1.25521
-1.19104
-1.13231
-1.07919
-1.03182
-0.990274
-0.954599
-0.924778
-0.900751
-0.88239
-0.869512
-0.861873
-0.859165
-0.861001
-0.866919
-0.876397
-0.888851
-0.90364
-0.920068
-0.937468
-0.954947
-0.97179
-0.987202
-1.00038
-1.01054
-1.01693
-1.01884
-1.0156
-1.00666
-0.991509
-0.969728
-0.94063
-0.904364
-0.861016
-0.810767
-0.753905
-0.690881
-0.622314
-0.548991
-0.471885
-0.392071
-0.310457
-0.229138
-0.149203
-0.0721569
0.000490455
0.0672193
0.126571
0.177189
0.217847
0.247501
0.265229
0.267988
0.257753
0.234929
0.200066
0.153988
0.0978994
0.0333874
-0.0376164
-0.112853
-0.191575
-0.267762
-0.340435
-0.406811
-0.464205
-0.5102
-0.542668
-0.559986
-0.560954
-0.544323
-0.510929
-0.461819
-0.398592
-0.3236
-0.239851
-0.150881
-0.0603932
0.0262676
0.105374
0.172712
0.224505
0.257565
0.269579
0.259494
0.227082
0.174059
0.10307
0.0179761
-0.0763848
-0.177757
-0.271202
-0.35395
-0.420169
-0.464662
-0.483559
-0.474528
-0.436495
-0.371959
-0.284798
-0.180885
-0.0673192
0.0474796
0.152792
0.240933
0.304174
0.336888
0.335721
0.300534
0.234957
0.145323
0.040033
-0.0720348
-0.173924
-0.257444
-0.313173
-0.334703
-0.319388
-0.270195
-0.194102
-0.102031
-0.00657382
0.0766803
0.135309
0.159947
0.145831
0.0928855
0.0101316
-0.0896914
-0.191816
-0.276221
-0.328223
-0.337629
-0.300589
-0.221806
-0.114665
0.00411208
0.116095
0.1907
0.218849
0.194021
0.11888
0.0109631
-0.108374
-0.246527
-0.310452
-0.319595
-0.27171
-0.17959
-0.0682987
0.0316619
0.0911786
-4.14652
-4.14674
-4.14716
-4.14768
-4.1482
-4.14853
-4.14845
-4.14767
-4.14591
-4.14285
-4.13812
-4.13126
-4.12177
-4.10909
-4.09267
-4.07194
-4.0464
-4.01553
-3.97892
-3.93617
-3.88698
-3.83114
-3.76849
-3.69897
-3.62264
-3.53959
-3.45007
-3.35437
-3.2529
-3.14613
-3.03466
-2.91911
-2.80015
-2.67848
-2.55477
-2.42971
-2.30403
-2.17847
-2.05379
-1.93078
-1.81026
-1.69313
-1.58043
-1.4709
-1.36644
-1.26791
-1.17582
-1.09064
-1.01277
-0.942516
-0.880144
-0.825846
-0.779755
-0.741939
-0.712404
-0.691088
-0.677851
-0.672449
-0.674529
-0.683624
-0.699204
-0.720652
-0.747272
-0.778291
-0.812872
-0.850109
-0.889029
-0.928628
-0.967836
-1.00557
-1.04075
-1.07227
-1.09908
-1.12015
-1.13451
-1.14127
-1.13964
-1.12896
-1.10883
-1.0788
-1.03862
-0.988391
-0.928331
-0.858852
-0.780588
-0.694416
-0.601462
-0.503083
-0.40079
-0.296245
-0.191464
-0.0883498
0.0110352
0.104616
0.190356
0.26629
0.330631
0.3818
0.418541
0.439895
0.43842
0.420548
0.386301
0.336125
0.270986
0.192514
0.10285
0.00459328
-0.0992818
-0.206357
-0.310979
-0.410495
-0.501149
-0.579364
-0.641822
-0.685709
-0.708795
-0.709654
-0.687159
-0.642039
-0.575465
-0.489643
-0.387891
-0.274366
-0.15385
-0.031576
0.0855801
0.192412
0.283218
0.352894
0.397134
0.412789
0.397629
0.352517
0.279614
0.182642
0.0669905
-0.0611077
-0.204691
-0.331273
-0.443415
-0.533383
-0.594153
-0.620329
-0.608642
-0.558703
-0.473073
-0.356979
-0.218455
-0.0670079
0.0855863
0.225213
0.341438
0.423886
0.464929
0.460185
0.410365
0.319753
0.197156
0.0541978
-0.0970979
-0.23371
-0.344782
-0.417738
-0.443696
-0.41804
-0.346536
-0.238794
-0.10968
0.0239698
0.139333
0.220226
0.253766
0.233409
0.161727
0.0484979
-0.0886355
-0.229465
-0.345782
-0.417987
-0.431852
-0.382351
-0.277154
-0.133324
0.0260179
0.175064
0.274254
0.310466
0.274716
0.174094
0.0301994
-0.126927
-0.314706
-0.395037
-0.402577
-0.333742
-0.205682
-0.0520759
0.0853574
0.167018
-4.30238
-4.30546
-4.31164
-4.32084
-4.33287
-4.34743
-4.3641
-4.3823
-4.40129
-4.42014
-4.43786
-4.45341
-4.46576
-4.47379
-4.47635
-4.47233
-4.46072
-4.44059
-4.41113
-4.37159
-4.32133
-4.25988
-4.18691
-4.10231
-4.00618
-3.89887
-3.78096
-3.65328
-3.51681
-3.3726
-3.22154
-3.06466
-2.90311
-2.73811
-2.57089
-2.40272
-2.23481
-2.0683
-1.9043
-1.74378
-1.58763
-1.43651
-1.29093
-1.15087
-1.02544
-0.910554
-0.805958
-0.711744
-0.628109
-0.555279
-0.493474
-0.44285
-0.403532
-0.375534
-0.3588
-0.353166
-0.358329
-0.373884
-0.399328
-0.434012
-0.477171
-0.527913
-0.58524
-0.648044
-0.715128
-0.785214
-0.856943
-0.928892
-0.99958
-1.0675
-1.13115
-1.18903
-1.23965
-1.28163
-1.31368
-1.33458
-1.34322
-1.3387
-1.32032
-1.28807
-1.24148
-1.18052
-1.10545
-1.01689
-0.915811
-0.803482
-0.681513
-0.551809
-0.416508
-0.277917
-0.138862
-0.00196801
0.129863
0.253747
0.366842
0.4664
0.549916
0.615152
0.660254
0.683806
0.679312
0.652098
0.602185
0.530251
0.437742
0.326981
0.200962
0.0632923
-0.0818952
-0.230402
-0.376051
-0.514329
-0.640116
-0.748437
-0.834722
-0.895084
-0.926428
-0.926606
-0.895174
-0.832475
-0.740069
-0.62114
-0.480346
-0.323462
-0.1571
0.0112217
0.172515
0.319426
0.444129
0.539709
0.60049
0.62209
0.598081
0.533529
0.431247
0.296512
0.137042
-0.0374593
-0.246836
-0.41901
-0.573044
-0.697261
-0.781543
-0.818289
-0.802774
-0.735276
-0.618721
-0.460491
-0.271706
-0.0654689
0.141605
0.33083
0.487487
0.597414
0.649986
0.639977
0.56824
0.440764
0.270117
0.0723725
-0.135515
-0.322084
-0.47256
-0.570259
-0.604315
-0.561205
-0.456461
-0.302716
-0.119588
0.0705872
0.232759
0.3458
0.39211
0.362957
0.263123
0.105122
-0.0866681
-0.284625
-0.447365
-0.548671
-0.56879
-0.501412
-0.357325
-0.160135
0.0583435
0.2608
0.395472
0.443148
0.391682
0.252725
0.0552115
-0.157868
-0.411131
-0.516131
-0.522195
-0.423232
-0.242906
-0.0277559
0.164179
0.278016
-4.36454
-4.37361
-4.39189
-4.41926
-4.45544
-4.49988
-4.5522
-4.6113
-4.67574
-4.74361
-4.81296
-4.8814
-4.94652
-5.00561
-5.05591
-5.09457
-5.1188
-5.12589
-5.11369
-5.08056
-5.02562
-4.94889
-4.85154
-4.73476
-4.59989
-4.44795
-4.28047
-4.09896
-3.90524
-3.70078
-3.48727
-3.26672
-3.04122
-2.81285
-2.5836
-2.35535
-2.12989
-1.90888
-1.6939
-1.48644
-1.28791
-1.09988
-0.923918
-0.762068
-0.605581
-0.46659
-0.341909
-0.232195
-0.137886
-0.0593062
0.00336638
0.0500162
0.0806653
0.0954273
0.0945625
0.0785095
0.047852
0.00333579
-0.0541652
-0.12366
-0.204031
-0.294012
-0.392218
-0.497104
-0.607034
-0.720227
-0.83483
-0.948917
-1.06047
-1.16744
-1.26781
-1.35958
-1.44073
-1.50939
-1.56381
-1.60233
-1.62361
-1.62647
-1.60987
-1.57359
-1.51729
-1.44097
-1.3451
-1.23056
-1.09871
-0.951342
-0.790665
-0.619305
-0.440196
-0.256545
-0.072177
0.109259
0.283773
0.447439
0.596308
0.726598
0.834851
0.917978
0.973449
0.999748
0.99125
0.952054
0.881808
0.781457
0.653149
0.50008
0.326412
0.137147
-0.0620693
-0.265098
-0.464307
-0.653168
-0.824658
-0.97199
-1.08911
-1.17073
-1.2126
-1.21166
-1.16804
-1.08177
-0.955079
-0.792454
-0.600203
-0.386279
-0.159874
0.0686272
0.287534
0.486479
0.65504
0.783971
0.866126
0.896542
0.859037
0.768306
0.627129
0.442239
0.22405
-0.0138023
-0.297007
-0.531264
-0.741377
-0.910967
-1.02613
-1.07648
-1.05608
-0.965369
-0.808043
-0.594421
-0.339688
-0.0620835
0.216058
0.469859
0.679058
0.824462
0.891772
0.874101
0.772916
0.596577
0.362615
0.0929052
-0.188559
-0.440012
-0.640943
-0.769434
-0.816131
-0.746572
-0.598793
-0.385561
-0.131954
0.135455
0.358599
0.512835
0.575267
0.534619
0.397315
0.180312
-0.083528
-0.357881
-0.581551
-0.720579
-0.748706
-0.65749
-0.46193
-0.194635
0.101331
0.373373
0.554389
0.616672
0.544238
0.353827
0.0843476
-0.206091
-0.531768
-0.672616
-0.677795
-0.539589
-0.290784
0.0050486
0.268469
0.424552
-4.07375
-4.0932
-4.13241
-4.19076
-4.26735
-4.36003
-4.4664
-4.58315
-4.70709
-4.83423
-4.96076
-5.08252
-5.19586
-5.29756
-5.38532
-5.45768
-5.51398
-5.55413
-5.57793
-5.58526
-5.57659
-5.55148
-5.50122
-5.41708
-5.29193
-5.12391
-4.91556
-4.67254
-4.40148
-4.10957
-3.80364
-3.48913
-3.17048
-2.85148
-2.5354
-2.22509
-1.92305
-1.6314
-1.35195
-1.08625
-0.835659
-0.600907
-0.382476
-0.180126
0.0075654
0.163105
0.297238
0.411444
0.50577
0.579982
0.633848
0.667246
0.680227
0.673032
0.646051
0.599843
0.535162
0.452965
0.35439
0.240757
0.113565
-0.025487
-0.174554
-0.331627
-0.494622
-0.660899
-0.828113
-0.993745
-1.15517
-1.3097
-1.45469
-1.58746
-1.70545
-1.80616
-1.88727
-1.94671
-1.98266
-1.99344
-1.97742
-1.93535
-1.86622
-1.77008
-1.64762
-1.50015
-1.32955
-1.13819
-0.929065
-0.705702
-0.472037
-0.232341
0.0082948
0.244964
0.472366
0.685238
0.87831
1.04648
1.18503
1.28961
1.35654
1.38303
1.37247
1.31934
1.22406
1.0885
0.915805
0.710355
0.477775
0.224789
-0.0411145
-0.31147
-0.576551
-0.82749
-1.05492
-1.2501
-1.40467
-1.51182
-1.56605
-1.56388
-1.50469
-1.3887
-1.21919
-1.00222
-0.746285
-0.462062
-0.161393
0.141392
0.430927
0.693361
0.914852
1.0833
1.18949
1.22938
1.17599
1.05425
0.865556
0.618435
0.326479
0.00604219
-0.352103
-0.667145
-0.947764
-1.1736
-1.32674
-1.39374
-1.36742
-1.24758
-1.03967
-0.75771
-0.421781
-0.056135
0.309269
0.642072
0.915388
1.10377
1.18882
1.16103
1.02257
0.785459
0.472952
0.114557
-0.257192
-0.588133
-0.849625
-1.01045
-1.04902
-0.968802
-0.772122
-0.487214
-0.149473
0.222664
0.517513
0.720966
0.802865
0.747953
0.56384
0.274181
-0.0786736
-0.449898
-0.748602
-0.933329
-0.970406
-0.849722
-0.590297
-0.236367
0.15495
0.512322
0.75016
0.8304
0.731884
0.476698
0.117065
-0.272524
-0.675672
-0.864144
-0.86877
-0.682304
-0.348915
0.0466112
0.398158
0.606485
-3.46176
-3.50818
-3.60153
-3.74031
-3.92393
-4.15011
-4.41559
-4.7132
-5.03469
-5.36955
-5.70467
-6.03937
-6.3654
-6.6742
-6.95814
-7.20941
-7.42104
-7.5893
-7.70553
-7.77034
-7.78991
-7.74977
-7.54845
-7.25028
-6.88985
-6.485
-6.04911
-5.58921
-5.12023
-4.65004
-4.18204
-3.71889
-3.26454
-2.82234
-2.39508
-1.98499
-1.5939
-1.22339
-0.874834
-0.549286
-0.247844
0.0281979
0.277589
0.498605
0.688332
0.871047
1.02625
1.15299
1.25165
1.32269
1.36652
1.38355
1.3743
1.33939
1.27958
1.19581
1.0892
0.961038
0.812844
0.646314
0.463389
0.266283
0.0574088
-0.160514
-0.387488
-0.615359
-0.843764
-1.06936
-1.28872
-1.49838
-1.69498
-1.87507
-2.03529
-2.17265
-2.28416
-2.36713
-2.4191
-2.43801
-2.42256
-2.37219
-2.2865
-2.16573
-2.01088
-1.82365
-1.60649
-1.3625
-1.09555
-0.810219
-0.511664
-0.205371
0.102016
0.404153
0.6942
0.965321
1.21073
1.42384
1.59853
1.72913
1.81089
1.83972
1.82391
1.7525
1.62649
1.44856
1.22288
0.955261
0.652952
0.324597
-0.0198956
-0.369656
-0.712214
-1.03611
-1.32937
-1.5805
-1.77903
-1.91595
-1.98434
-1.97983
-1.9016
-1.74994
-1.52942
-1.24794
-0.916589
-0.549094
-0.160915
0.229336
0.602008
0.938992
1.22201
1.43506
1.56471
1.60225
1.543
1.38845
1.14469
0.824435
0.445697
0.0295478
-0.419678
-0.828333
-1.19153
-1.48328
-1.68091
-1.76741
-1.73349
-1.57875
-1.31088
-0.948207
-0.516724
-0.0472403
0.420707
0.846062
1.19431
1.43261
1.53772
1.49726
1.31425
1.00483
0.59927
0.136034
-0.341911
-0.766442
-1.09935
-1.2998
-1.33863
-1.23346
-0.975672
-0.605968
-0.179951
0.34015
0.707826
0.968087
1.07276
1.00077
0.760936
0.386221
-0.0705136
-0.561982
-0.947454
-1.18466
-1.23185
-1.07603
-0.74099
-0.284849
0.218944
0.676458
0.98103
1.08194
0.952641
0.620092
0.153767
-0.351575
-0.847104
-1.09036
-1.09398
-0.850312
-0.416695
0.0966364
0.552319
0.822321
-1.77259
-1.8678
-2.0659
-2.32705
-2.66469
-3.07633
-3.57081
-4.11499
-4.70843
-5.32272
-5.946
-6.54051
-7.1018
-7.61627
-8.0708
-8.45437
-8.75726
-8.97007
-9.08342
-9.08464
-8.94916
-8.6687
-8.40844
-8.14327
-7.81559
-7.38834
-6.87852
-6.28816
-5.67073
-5.03291
-4.40051
-3.78066
-3.18171
-2.60749
-2.06142
-1.54617
-1.06371
-0.615241
-0.201017
0.179087
0.525479
0.838652
1.11961
1.36973
1.59068
1.78808
1.92849
2.04101
2.12447
2.1778
2.20022
2.19156
2.15199
2.08198
1.98229
1.85395
1.69827
1.51683
1.31144
1.08422
0.837542
0.574096
0.296807
0.00888369
-0.286392
-0.584826
-0.882727
-1.17608
-1.46067
-1.7322
-1.98649
-2.21934
-2.42662
-2.6045
-2.74942
-2.85807
-2.92774
-2.95643
-2.93869
-2.87748
-2.7719
-2.62219
-2.42961
-2.19633
-1.92541
-1.62081
-1.28741
-0.931003
-0.558084
-0.175645
0.208049
0.584972
0.946528
1.28413
1.58926
1.85369
2.0698
2.23076
2.33089
2.36559
2.33996
2.24553
2.08318
1.85618
1.5696
1.23073
0.848755
0.434581
0.000615984
-0.439313
-0.870013
-1.27677
-1.64458
-1.95888
-2.20684
-2.37733
-2.4615
-2.45365
-2.35293
-2.16015
-1.8811
-1.52587
-1.10834
-0.645653
-0.157952
0.331774
0.799055
1.22084
1.57399
1.83782
1.9945
2.02819
1.9622
1.76904
1.46191
1.05808
0.580516
0.0565406
-0.499522
-1.0135
-1.4699
-1.83612
-2.08387
-2.19209
-2.14887
-1.95389
-1.61749
-1.16277
-0.62269
-0.0352419
0.548909
1.07919
1.51194
1.80627
1.93322
1.87782
1.64343
1.25111
0.73942
0.156477
-0.442297
-0.973242
-1.3876
-1.63479
-1.68248
-1.53769
-1.20575
-0.73451
-0.192071
0.456552
0.922158
1.25008
1.3808
1.28887
0.985375
0.514748
-0.0567779
-0.695302
-1.1755
-1.47087
-1.52931
-1.33306
-0.911653
-0.339097
0.292442
0.863605
1.24398
1.36803
1.203
0.78188
0.193977
-0.442021
-1.04429
-1.34862
-1.35045
-1.04114
-0.493023
0.154512
0.728928
1.06915
0.535093
0.409253
0.163945
-0.255012
-0.837844
-1.57291
-2.47252
-3.48982
-4.55275
-5.61474
-6.67761
-7.71262
-8.68025
-9.55413
-10.3191
-10.9622
-11.4761
-11.8587
-12.1104
-12.233
-12.2329
-12.1194
-11.832
-11.3058
-10.58
-9.68986
-8.68662
-7.5877
-6.52383
-5.50607
-4.55961
-3.68322
-2.87845
-2.1431
-1.473
-0.862936
-0.307296
0.198651
0.658331
1.07413
1.44796
1.78123
2.07459
2.32773
2.54033
2.70809
2.86745
2.98521
3.06252
3.10059
3.10049
3.06297
2.98878
2.87873
2.73388
2.55548
2.34507
2.10449
1.83592
1.54186
1.22513
0.889
0.537
0.173049
-0.198677
-0.573632
-0.947109
-1.31419
-1.66973
-2.00852
-2.32548
-2.61549
-2.87352
-3.09488
-3.27535
-3.41091
-3.49873
-3.53672
-3.51565
-3.44179
-3.31361
-3.13128
-2.89635
-2.61149
-2.28052
-1.90835
-1.50102
-1.06563
-0.610181
-0.14319
0.325
0.78466
1.22527
1.63634
2.00741
2.32847
2.59036
2.78488
2.90526
2.94606
2.90922
2.78869
2.58562
2.30382
1.94958
1.53169
1.06151
0.55247
0.0194901
-0.520058
-1.04783
-1.54576
-1.99534
-2.3791
-2.68107
-2.88786
-2.98882
-2.97707
-2.85091
-2.61218
-2.26811
-1.83103
-1.31799
-0.750273
-0.152179
0.447462
1.01909
1.53447
1.96537
2.2865
2.47704
2.52179
2.43173
2.19112
1.81227
1.31549
0.728697
0.0857488
-0.590184
-1.21976
-1.77848
-2.22636
-2.52889
-2.66031
-2.60633
-2.36653
-1.95411
-1.39743
-0.737309
-0.0202946
0.691881
1.3376
1.86304
2.21866
2.36866
2.29612
2.00435
1.52
0.890558
0.175108
-0.556799
-1.2052
-1.70937
-2.00796
-2.06302
-1.87431
-1.45816
-0.871216
-0.190208
0.574806
1.15781
1.56236
1.722
1.60723
1.23262
0.656775
-0.0320605
-0.853565
-1.42839
-1.78677
-1.85732
-1.61632
-1.09937
-0.397883
0.374194
1.0707
1.53436
1.68374
1.47872
0.959315
0.236854
-0.542656
-1.26371
-1.63455
-1.63387
-1.25189
-0.576709
0.219311
0.925132
1.34287
4.81443
4.6163
4.21037
3.57889
2.67611
1.49305
-0.0545054
-2.05851
-4.93475
-6.95622
-8.73257
-10.2613
-11.5782
-12.7009
-13.6466
-14.4249
-15.0393
-15.4943
-15.7884
-15.9265
-15.9681
-15.8932
-15.5742
-14.8815
-13.8097
-12.3972
-10.7562
-8.21912
-6.68461
-5.2376
-4.03989
-3.01221
-2.1017
-1.28923
-0.561051
0.0928947
0.681771
1.2124
1.69012
2.11911
2.50248
2.84214
3.13934
3.39482
3.60946
3.78389
3.92071
4.01527
4.0691
4.08132
4.0516
3.97996
3.86677
3.7127
3.51875
3.28623
3.01691
2.71285
2.37658
2.01099
1.61941
1.20567
0.773943
0.328882
-0.124556
-0.58105
-1.03497
-1.48046
-1.91142
-2.32163
-2.70503
-3.05552
-3.3671
-3.63417
-3.85151
-4.01429
-4.11806
-4.15892
-4.13967
-4.05363
-3.90112
-3.68319
-3.40204
-3.06102
-2.66481
-2.21936
-1.73196
-1.21117
-0.666565
-0.108196
0.45109
0.999882
1.52556
2.01559
2.45751
2.8394
3.15036
3.38066
3.52232
3.56917
3.52012
3.37124
3.12405
2.78296
2.35553
1.85242
1.28715
0.675752
0.0362382
-0.610401
-1.24242
-1.8381
-2.37541
-2.83349
-3.19309
-3.43829
-3.55672
-3.54024
-3.38631
-3.09766
-2.68312
-2.15753
-1.54147
-0.860779
-0.143606
0.574306
1.25815
1.87413
2.38857
2.77158
2.99886
3.05394
2.93865
2.64586
2.18894
1.59148
0.88719
0.116114
-0.689773
-1.44325
-2.11161
-2.64688
-3.0077
-3.16337
-3.09739
-2.80899
-2.3145
-1.64783
-0.858346
-0.00259125
0.847154
1.61655
2.24126
2.66215
2.83655
2.74462
2.39048
1.80638
1.04967
0.191764
-0.683428
-1.45802
-2.05842
-2.41155
-2.47269
-2.23658
-1.7285
-1.01585
-0.188715
0.707138
1.41312
1.90005
2.09034
1.94994
1.49743
0.806995
-0.00211583
-1.02878
-1.69912
-2.12593
-2.21003
-1.92074
-1.30073
-0.46027
0.462908
1.29394
1.84699
2.02327
1.77465
1.14911
0.281429
-0.651838
-1.5011
-1.94298
-1.93908
-1.47852
-0.666135
0.289822
1.13729
1.63859
10.6578
10.4201
9.93127
9.14777
8.02546
6.50331
4.44698
1.75958
-2.40977
-5.76873
-8.60267
-11.0563
-13.1582
-14.9297
-16.3904
-17.553
-18.4257
-19.0045
-19.2844
-19.2502
-18.819
-17.9992
-16.9262
-15.7151
-14.3364
-12.6555
-10.7082
-7.77476
-5.8567
-4.18382
-2.80642
-1.8449
-0.87948
-0.065702
0.651286
1.2853
1.855
2.36883
2.8337
3.25293
3.62868
3.96197
4.25293
4.50159
4.70698
4.86854
4.98473
5.06666
5.10051
5.08701
5.02639
4.91879
4.76455
4.56427
4.31894
4.02994
3.69917
3.32897
2.92216
2.48208
2.01253
1.51795
1.00319
0.473634
-0.0649424
-0.606355
-1.14404
-1.67116
-2.18057
-2.66502
-3.11743
-3.53065
-3.89766
-4.21197
-4.46747
-4.65842
-4.7799
-4.82756
-4.80454
-4.7032
-4.52373
-4.26739
-3.93683
-3.53607
-3.07064
-2.54757
-1.97552
-1.36451
-0.725792
-0.0710661
0.584208
1.22681
1.84195
2.41495
2.93126
3.37694
3.73923
4.00681
4.17033
4.22275
4.16086
3.98205
3.68814
3.28446
2.77979
2.18677
1.52127
0.802227
0.0507632
-0.708491
-1.44999
-2.14832
-2.77764
-3.31343
-3.73334
-4.01853
-4.15476
-4.13267
-3.94907
-3.60747
-3.11835
-2.4993
-1.7746
-0.974823
-0.1326
0.709799
1.51165
2.23328
2.83535
3.28314
3.54858
3.61272
3.47188
3.124
2.5844
1.88054
1.05258
0.146765
-0.796
-1.67962
-2.46296
-3.0897
-3.51133
-3.69211
-3.61295
-3.27301
-2.69193
-1.9094
-0.98391
0.0179631
1.01188
1.91085
2.6395
3.12845
3.32811
3.21499
2.79468
2.10495
1.2138
0.206327
-0.8197
-1.72682
-2.42807
-2.83781
-2.90385
-2.61764
-2.01192
-1.16635
-0.187273
0.850946
1.68408
2.25714
2.47913
2.31064
1.77449
0.959731
0.01112
-1.19649
-1.98011
-2.48177
-2.58098
-2.24075
-1.51196
-0.524933
0.55678
1.52914
2.17605
2.38038
2.08539
1.34778
0.326898
-0.767832
-1.75183
-2.26809
-2.26039
-1.71226
-0.759685
0.364779
1.36134
1.95074
17.5236
17.4029
17.1678
16.8334
16.4658
16.0846
15.8303
15.4875
-1.6612
-1.15494
-0.79055
-0.254998
0.303223
0.894638
1.47384
2.0633
2.59938
3.10741
3.57953
4.01569
4.41454
4.77552
5.09747
5.37912
5.61908
5.81613
5.96938
6.07898
6.13309
6.1407
6.0989
6.00619
5.8619
5.66593
5.41869
5.1211
4.77459
4.38119
3.94352
3.46473
2.94857
2.39938
1.82221
1.22259
0.606647
-0.0189726
-0.647204
-1.27051
-1.88105
-2.47062
-3.03087
-3.55367
-4.03083
-4.45428
-4.81661
-5.11085
-5.33058
-5.47045
-5.52609
-5.49658
-5.37786
-5.16949
-4.87272
-4.49052
-4.02754
-3.49021
-2.88666
-2.22691
-1.52257
-0.786601
-0.0322112
0.722154
1.46149
2.16884
2.82729
3.42015
3.93138
4.34633
4.65198
4.83754
4.89499
4.81984
4.61007
4.26772
3.79922
3.21472
2.52878
1.7598
0.929683
0.0628675
-0.812376
-1.6667
-2.47071
-3.19464
-3.81019
-4.29193
-4.61797
-4.77203
-4.74366
-4.52902
-4.13241
-3.56601
-2.85026
-2.01338
-1.09033
-0.119423
0.851231
1.7747
2.60515
3.29736
3.8116
4.11579
4.18818
4.02128
3.61648
2.99119
2.17737
1.22159
0.177109
-0.906792
-1.92443
-2.82605
-3.54676
-4.03076
-4.23705
-4.14377
-3.75032
-3.0796
-2.17748
-1.11166
0.0408028
1.18296
2.21515
3.0505
3.60921
3.83441
3.6989
3.20974
2.4105
1.38048
0.218384
-0.962944
-2.00654
-2.81146
-3.27899
-3.34903
-3.01063
-2.30341
-1.32013
-0.185123
1.00259
1.96578
2.62723
2.8814
2.68295
2.05895
1.11237
0.00610035
-1.35251
-2.26637
-2.84804
-2.96353
-2.57069
-1.72932
-0.590539
0.654001
1.77199
2.51552
2.74862
2.40544
1.55191
0.372225
-0.888533
-2.01109
-2.6039
-2.59233
-1.95832
-0.85601
0.442604
1.59325
2.27355
24.8624
24.8282
24.7664
24.6721
24.5182
24.1814
23.9823
23.7321
0.48662
0.85527
1.15916
1.55392
1.99088
2.45708
2.92324
3.41082
3.87939
4.33297
4.76506
5.17264
5.55149
5.89817
6.20942
6.48234
6.71412
6.90198
7.04331
7.13562
7.1763
7.1637
7.09636
6.97308
6.79307
6.55605
6.26232
5.91277
5.5089
5.05294
4.54774
3.99682
3.40437
2.77525
2.11515
1.43026
0.727514
0.0143896
-0.701132
-1.41054
-2.10495
-2.77507
-3.41148
-4.00496
-4.54626
-5.02626
-5.43661
-5.76949
-6.01774
-6.17536
-6.23763
-6.20175
-6.06493
-5.82666
-5.4883
-5.05321
-4.52668
-3.91608
-3.23058
-2.48164
-1.68253
-0.847858
0.00791018
0.862711
1.70003
2.50071
3.24565
3.91591
4.49337
4.96142
5.30528
5.51281
5.57497
5.48622
5.24481
4.85319
4.31871
3.65311
2.87285
1.9989
1.05615
0.0725884
-0.920161
-1.88872
-2.7996
-3.61914
-4.31525
-4.85924
-5.22635
-5.39812
-5.36285
-5.11639
-4.66365
-4.01861
-3.20462
-2.25388
-1.20557
-0.104525
0.996055
2.04269
2.98323
3.76656
4.34781
4.69066
4.77049
4.57744
4.11482
3.40239
2.47697
1.39127
0.206573
-1.02016
-2.17346
-3.19476
-4.0104
-4.55727
-4.78902
-4.68101
-4.23297
-3.47106
-2.44769
-1.23953
0.0653442
1.35737
2.52419
3.46726
4.09628
4.34694
4.18829
3.62882
2.71817
1.54696
0.228054
-1.11043
-2.29214
-3.20186
-3.72745
-3.80077
-3.40895
-2.59822
-1.47464
-0.181701
1.15868
2.25324
3.00401
3.29032
3.06071
2.34638
1.26375
-0.00671726
-1.50437
-2.55442
-3.2189
-3.35135
-2.9051
-1.94924
-0.656024
0.75299
2.01834
2.85964
3.12178
2.72952
1.75812
0.416897
-1.01215
-2.2742
-2.94463
-2.92914
-2.20743
-0.953486
0.52205
1.82884
2.60155
31.1479
31.1041
31.0072
30.8472
30.6498
30.5274
30.5721
30.4943
2.37181
2.58541
2.78749
3.07316
3.41395
3.80141
4.1957
4.62492
5.04876
5.46843
5.87557
6.26506
6.63126
6.96926
7.27433
7.54218
7.76874
7.95022
8.08303
8.16388
8.18972
8.15809
8.06697
7.91482
7.70061
7.42391
7.0849
6.68451
6.22432
5.70675
5.13496
4.51282
3.84497
3.1368
2.39461
1.62531
0.836568
0.0367382
-0.765299
-1.56004
-2.33758
-3.08754
-3.7994
-4.46285
-5.06759
-5.60345
-6.06114
-6.43197
-6.70802
-6.88268
-6.95064
-6.90823
-6.75297
-6.48444
-6.10414
-5.61585
-5.02552
-4.34139
-3.5738
-2.73561
-1.8418
-0.908587
0.0488076
1.00375
1.93875
2.83246
3.66357
4.41092
5.05425
5.57505
5.95678
6.18596
6.25245
6.14994
5.87674
5.43575
4.83522
4.08848
3.21397
2.23524
1.18019
0.0798559
-1.03003
-2.11238
-3.1297
-4.04441
-4.82066
-5.4264
-5.83419
-6.02331
-5.98072
-5.70219
-5.19313
-4.46934
-3.55713
-2.49243
-1.31913
-0.0882573
1.14192
2.31132
3.36153
4.23553
4.88333
5.26428
5.35099
5.13186
4.6113
3.81175
2.7748
1.55916
0.234724
-1.13432
-2.42282
-3.56338
-4.4735
-5.08278
-5.33961
-5.21652
-4.71366
-3.86045
-2.71594
-1.36582
0.0910599
1.5323
2.8331
3.88336
4.58215
4.85788
4.67578
4.04572
3.02353
1.71084
0.235455
-1.2595
-2.57894
-3.59306
-4.17616
-4.2522
-3.80658
-2.8919
-1.62753
-0.176852
1.31616
2.54175
3.38151
3.69953
3.43822
2.63278
1.41274
-0.0212442
-1.65546
-2.84094
-3.58894
-3.7386
-3.2389
-2.16851
-0.720738
0.852594
2.26429
3.20308
3.49413
3.05271
1.96341
0.460393
-1.13694
-2.53683
-3.28492
-3.26556
-2.45597
-1.05052
0.601691
2.06457
2.92955
36.8778
36.8628
36.8382
36.8184
36.845
36.9131
36.7568
36.6688
3.79967
3.94289
4.10804
4.33261
4.62008
4.9606
5.31748
5.70605
6.10203
6.50172
6.89541
7.27647
7.63801
7.97382
8.27804
8.54529
8.77052
8.94906
9.07647
9.14872
9.16216
9.11368
9.00085
8.8218
8.57528
8.26071
7.87821
7.42869
6.91389
6.33645
5.69981
5.00823
4.26679
3.48142
2.65903
1.8072
0.934376
0.0497227
-0.836974
-1.71524
-2.57414
-3.40224
-4.18791
-4.91979
-5.5865
-6.17685
-6.68062
-7.08829
-7.39117
-7.58205
-7.65506
-7.60587
-7.4321
-7.13339
-6.71148
-6.17049
-5.51702
-4.76022
-3.91156
-2.98532
-1.99811
-0.967939
0.0899225
1.1433
2.17434
3.15954
4.07535
4.89844
5.60645
6.17897
6.59778
6.84802
6.91852
6.80225
6.4975
6.00777
5.34206
4.51519
3.54782
2.46591
1.30036
0.084903
-1.14014
-2.33434
-3.45628
-4.46449
-5.31937
-5.9856
-6.43316
-6.63905
-6.58897
-6.27852
-5.71377
-4.91223
-3.90316
-2.72607
-1.42984
-0.0709274
1.28667
2.57676
3.73475
4.69777
5.4108
5.82891
5.92203
5.67709
5.09929
4.21383
3.06698
1.72323
0.261149
-1.24762
-2.669
-3.92683
-4.92975
-5.60017
-5.88139
-5.74317
-5.18605
-4.2427
-2.97874
-1.48881
0.117305
1.70512
3.13758
4.29311
5.06026
5.36039
5.15493
4.45505
3.32268
1.87021
0.240704
-1.40775
-2.86277
-3.97953
-4.61891
-4.69718
-4.19815
-3.18059
-1.77684
-0.170521
1.47231
2.82712
3.75444
4.10339
3.81039
2.91455
1.5581
-0.0365776
-1.80437
-3.12264
-3.95338
-4.1201
-3.56758
-2.38422
-0.783749
0.951342
2.50636
3.54118
3.86064
3.37068
2.1652
0.502149
-1.26121
-2.79516
-3.62011
-3.59698
-2.7006
-1.14596
0.680504
2.2971
3.25304
41.9934
41.9854
41.9702
41.947
41.9162
41.844
41.8501
41.8352
4.90346
5.01689
5.1708
5.35237
5.62106
5.93966
6.2801
6.65194
7.0366
7.4295
7.82045
8.20195
8.56615
8.90584
9.21428
9.48522
9.71285
9.89173
10.0167
10.0831
10.0866
10.0234
9.891
9.68715
9.41041
9.06005
8.63613
8.13964
7.57243
6.93739
6.23827
5.47972
4.66727
3.80734
2.90745
1.97586
1.02172
0.0550179
-0.913604
-1.87271
-2.81037
-3.71409
-4.57119
-5.36924
-6.09583
-6.73878
-7.28694
-7.72997
-8.05848
-8.26471
-8.34228
-8.28609
-8.09397
-7.76564
-7.30299
-6.71047
-5.99533
-5.16761
-4.23986
-3.22776
-2.14964
-1.02548
0.130927
1.27968
2.40398
3.47807
4.47618
5.37281
6.14359
6.76627
7.22093
7.49147
7.56573
7.43576
7.10015
6.56286
5.83361
4.92871
3.87085
2.68849
1.41532
0.0881741
-1.24885
-2.55173
-3.77532
-4.87428
-5.80541
-6.53026
-7.01622
-7.23821
-7.18059
-6.83882
-6.21965
-5.34235
-4.23883
-2.95225
-1.53657
-0.0529923
1.42841
2.83574
4.09841
5.1478
5.92404
6.37804
6.47716
6.20691
5.57323
4.60414
3.35016
1.88171
0.285639
-1.35849
-2.90901
-4.28085
-5.37383
-6.10347
-6.40814
-6.25497
-5.64484
-4.6136
-3.23321
-1.60714
0.143576
1.87364
3.43402
4.69174
5.5251
5.84877
5.62029
4.85231
3.61241
2.0235
0.243948
-1.55302
-3.14009
-4.35659
-5.05044
-5.13053
-4.57913
-3.46114
-1.92107
-0.162563
1.62483
3.10581
4.11829
4.4971
4.17286
3.18859
1.69869
-0.052867
-1.94899
-3.39659
-4.30812
-4.49147
-3.88734
-2.59393
-0.844408
1.0481
2.74159
3.87003
4.21709
3.6798
2.36123
0.541935
-1.38358
-3.04597
-3.94628
-3.91953
-2.93855
-1.23868
0.757331
2.52376
3.56821
46.5422
46.537
46.5268
46.5108
46.4946
46.4753
46.4892
46.4566
5.78811
5.882
6.02804
6.21377
6.46549
6.77243
7.10774
7.47591
7.86074
8.25676
8.65349
9.04265
9.41554
9.76415
10.081
10.3592
10.5923
10.7744
10.8996
10.9626
10.9585
10.8826
10.7326
10.506
10.2012
9.81733
9.35431
8.81325
8.19617
7.50622
6.74747
5.92495
5.04462
4.11339
3.13937
2.13144
1.09946
0.0541602
-0.992954
-2.02954
-3.04268
-4.01889
-4.94444
-5.80587
-6.58975
-7.28297
-7.87348
-8.35015
-8.70294
-8.92356
-9.00542
-8.94194
-8.73187
-8.37481
-7.87275
-7.23042
-6.45573
-5.55956
-4.5555
-3.46054
-2.29487
-1.08096
0.171704
1.41139
2.62536
3.78494
4.86215
5.82945
6.66051
7.33132
7.82034
8.11017
8.18805
8.04458
7.67912
7.09587
6.30536
5.3253
4.18025
2.90105
1.52434
0.0899043
-1.35484
-2.76222
-4.08353
-5.26966
-6.27399
-7.05504
-7.57773
-7.81503
-7.74993
-7.37778
-6.70605
-5.75561
-4.56102
-3.16904
-1.63847
-0.0347611
1.56557
3.08561
4.4489
5.58121
6.41805
6.90639
7.01114
6.71629
6.0287
4.97906
3.62172
2.03321
0.307954
-1.46559
-3.14047
-4.62199
-5.80146
-6.58787
-6.9149
-6.74708
-6.08578
-4.96978
-3.47712
-1.71985
0.169541
2.03607
3.7195
5.0754
5.97221
6.3184
6.06752
5.23384
3.8902
2.16946
0.245377
-1.69355
-3.40799
-4.72044
-5.46646
-5.54805
-4.94588
-3.73091
-2.059
-0.153063
1.77178
3.37492
4.46939
4.87673
4.52211
3.45237
1.83345
-0.0702584
-2.08747
-3.6603
-4.64981
-4.84916
-4.19512
-2.79567
-0.902281
1.14198
2.9676
4.18646
4.56007
3.97715
2.54966
0.579801
-1.50311
-3.28667
-4.26027
-4.23008
-3.16758
-1.32781
0.831453
2.74225
3.87192
50.5805
50.5769
50.5694
50.5573
50.5464
50.532
50.5312
50.5093
6.4968
6.59022
6.73344
6.92335
7.17315
7.48001
7.81888
8.19248
8.58542
8.99189
9.40076
9.80309
10.1892
10.5506
10.8789
11.1671