/*--------------------------------*- C++ -*----------------------------------*\
  =========                 |
  \\      /  F ield         | OpenFOAM: The Open Source CFD Toolbox
   \\    /   O peration     | Website:  https://openfoam.org
    \\  /    A nd           | Version:  12
     \\/     M anipulation  |
\*---------------------------------------------------------------------------*/
FoamFile
{
    format      ascii;
    class       surfaceScalarField;
    location    "19";
    object      phi;
}
// * * * * * * * * * * * * * * * * * * * * * * * * * * * * * * * * * * * * * //

dimensions      [1 0 -1 0 0 0 0];

internalField   nonuniform List<scalar> 
7429
(
0.000158976
-0.000158977
0.000325577
-0.000166601
0.000494127
-0.00016855
0.000664187
-0.000170061
0.000835671
-0.000171485
0.00100838
-0.000172712
0.00118212
-0.000173743
0.00135671
-0.00017459
0.00153196
-0.000175244
0.00170771
-0.000175756
0.0018838
-0.000176086
0.00206012
-0.000176324
0.00223662
-0.000176495
0.00241321
-0.00017659
0.00258988
-0.000176678
0.00276666
-0.000176773
0.00294354
-0.000176882
0.00312058
-0.000177039
0.0032978
-0.000177226
0.00347524
-0.000177438
0.00365288
-0.000177643
0.00383066
-0.000177783
0.0040085
-0.00017784
0.00418618
-0.000177674
0.00436342
-0.000177238
0.00453982
-0.000176401
0.00471485
-0.000175037
0.00488792
-0.000173066
0.0050583
-0.000170386
0.00522512
-0.00016682
0.00538746
-0.000162339
0.00554434
-0.000156874
0.00569468
-0.000150344
0.00583738
-0.000142696
0.00597122
-0.000133845
0.00609508
-0.000123857
0.00620786
-0.000112786
0.00630862
-0.00010076
0.00639659
-8.79632e-05
0.00647056
-7.39699e-05
0.00652906
-5.85017e-05
0.006571
-4.19429e-05
0.00659415
-2.31524e-05
0.00659633
-2.17776e-06
0.00657508
2.12473e-05
0.00652964
4.54464e-05
0.00645886
7.0777e-05
0.00636177
9.70856e-05
0.0062376
0.000124171
0.00608578
0.000151819
0.00590605
0.000179737
0.00569831
0.000207738
0.00546291
0.000235396
0.00520027
0.000262642
0.00491137
0.000288902
0.00459695
0.000314419
0.00425875
0.000338204
0.00389782
0.000360928
0.0035165
0.000381315
0.00311635
0.000400155
0.0027005
0.000415847
0.00227164
0.000428862
0.00183326
0.000438379
0.00138896
0.000444296
0.000942712
0.000446253
0.000498813
0.000443899
6.17049e-05
0.000437108
-0.000363692
0.000425397
-0.0007725
0.000408808
-0.00115978
0.000387283
-0.00152074
0.000360954
-0.00185036
0.000329625
-0.00214394
0.000293575
-0.0023971
0.000253161
-0.00260585
0.000208751
-0.00276655
0.000160699
-0.00287635
0.000109801
-0.00293329
5.6941e-05
-0.00293371
4.15748e-07
-0.00287158
-6.21285e-05
-0.00275076
-0.00012082
-0.00257386
-0.000176892
-0.00234344
-0.000230425
-0.00206321
-0.000280225
-0.0017372
-0.000326012
-0.00137014
-0.000367058
-0.00096882
-0.000401325
-0.000540307
-0.000428512
-9.28674e-05
-0.00044744
0.000364302
-0.00045717
0.00082152
-0.000457218
0.00126857
-0.000447048
0.00169481
-0.00042624
0.00208992
-0.000395114
0.00244341
-0.000353484
0.00274567
-0.000302261
0.00298779
-0.000242126
0.00316203
-0.000174239
0.0032623
-0.000100263
0.00328349
-2.11945e-05
0.00321372
6.97691e-05
0.00305838
0.000155338
0.00282167
0.000236714
0.00250848
0.000313187
0.00212563
0.000382854
0.00168195
0.000443675
0.00118896
0.00049299
0.000660303
0.00052866
0.000111347
0.000548956
-0.000440385
0.000551732
-0.000977001
0.000536616
-0.00147966
0.000502659
-0.0019306
0.000450937
-0.00231245
0.000381856
-0.00260996
0.000297505
-0.00281079
0.00020083
-0.00290561
9.48182e-05
-0.00288196
-2.36438e-05
-0.00273746
-0.000144503
-0.00248086
-0.000256602
-0.00212226
-0.000358599
-0.001674
-0.000448262
-0.00115333
-0.000520667
-0.000582172
-0.000571156
1.46349e-05
-0.000596807
0.000609014
-0.00059438
0.00117175
-0.000562733
0.00167476
-0.000503015
0.00209079
-0.000416025
0.0023969
-0.00030611
0.00257498
-0.000178085
0.00261384
-3.8856e-05
0.00249346
0.000120379
0.00222816
0.0002653
0.00183333
0.000394832
0.00132891
0.00050442
0.000742316
0.00058659
0.000108176
0.000634141
-0.000533802
0.000641977
-0.00114187
0.000608072
-0.00167458
0.000532702
-0.00209437
0.000419794
-0.00236963
0.000275258
-0.00248004
0.000110415
-0.00240108
-7.89652e-05
-0.00214191
-0.000259169
-0.0017237
-0.000418212
-0.0011755
-0.0005482
-0.000537267
-0.000638228
0.000140531
-0.000677797
0.000800621
-0.000660091
0.00138619
-0.000585567
0.00184472
-0.00045853
0.00213327
-0.000288547
0.00222383
-9.05668e-05
0.00208808
0.000135755
0.00174685
0.000341227
0.00123154
0.000515307
0.000588644
0.000642899
-0.000121355
0.000709999
-0.000824358
0.000703003
-0.00144765
0.000623289
-0.00192499
0.00047734
-0.00220468
0.000279697
-0.00225935
5.46693e-05
-0.00206559
-0.000193761
-0.00166325
-0.000402338
-0.00110129
-0.000561966
-0.000448204
-0.000653085
0.000213514
-0.000661717
0.000796053
-0.000582539
0.00122624
-0.000430186
0.00145087
-0.000224632
0.00144228
8.58925e-06
0.00120555
0.000236733
0.000792854
0.000412694
0.000271052
0.000521803
-0.000274523
0.000545575
-0.000750304
0.000475781
-0.00107996
0.00032966
-0.00121309
0.000133129
-0.00111835
-9.47412e-05
-0.000826167
-0.000292185
-0.000392969
-0.000433198
0.000105427
-0.000498396
0.000573512
-0.000468085
0.000929562
-0.00035605
0.00111434
-0.000184777
0.00109188
2.24586e-05
0.000871365
0.000220515
0.00050451
0.000366855
5.49183e-05
0.000449592
-0.000397928
0.000452846
-0.000775485
0.000377557
-0.00102286
0.000247379
-0.00110712
8.42602e-05
-0.00101479
-9.23307e-05
-0.000774173
-0.000240621
-0.000419205
-0.000354968
-0.000419205
0.000244004
-0.000402982
0.000506107
-0.000428705
0.000771288
-0.000433732
0.00103904
-0.000437811
0.00130892
-0.000441372
0.00158068
-0.000444468
0.00185372
-0.000446781
0.00212756
-0.000448434
0.00240145
-0.000449141
0.00267476
-0.000449062
0.00294666
-0.000447983
0.00321669
-0.000446354
0.00348464
-0.000444447
0.00375039
-0.000442348
0.004013
-0.000439288
0.00427143
-0.000435201
0.00452485
-0.000430307
0.00477274
-0.000424931
0.00501475
-0.000419227
0.00525064
-0.000413338
0.00548024
-0.00040724
0.00570343
-0.000400976
0.00592
-0.000394405
0.00612973
-0.000387408
0.00633215
-0.000379654
0.00652684
-0.000371096
0.00671292
-0.000361119
0.00688972
-0.000349866
0.00705612
-0.000336781
0.00721162
-0.000322329
0.00735638
-0.000307099
0.00749052
-0.000291015
0.00761395
-0.000273774
0.00772633
-0.000255076
0.00782724
-0.000234755
0.00791588
-0.000212494
0.00799117
-0.000188075
0.00805205
-0.000161642
0.00809705
-0.00013296
0.00812525
-0.00010217
0.00813616
-6.9411e-05
0.00812883
-3.46153e-05
0.00809605
9.63228e-06
0.00803431
5.95568e-05
0.00794609
0.000109473
0.00783093
0.000160599
0.00768864
0.000213069
0.00751905
0.000266679
0.0073219
0.000321316
0.0070973
0.000376424
0.00684515
0.000431887
0.00656571
0.000487183
0.00625945
0.000541648
0.00592681
0.000595286
0.00556875
0.000646963
0.00518625
0.00069692
0.00478079
0.000743664
0.00435401
0.00078771
0.0039079
0.000827418
0.00344452
0.000863541
0.00296664
0.000893721
0.00247728
0.00091823
0.00197999
0.000935669
0.00147884
0.000945444
0.000977892
0.0009472
0.000481662
0.000940129
-4.84682e-06
0.000923617
-0.000476723
0.000897274
-0.000928631
0.000860716
-0.0013552
0.000813856
-0.00175162
0.00075737
-0.00211222
0.000690223
-0.00243235
0.000613709
-0.00270717
0.000527983
-0.00293275
0.00043433
-0.00310481
0.000332753
-0.00322014
0.000225139
-0.00327619
0.000112987
-0.00326852
-7.24958e-06
-0.00319615
-0.000134502
-0.00306136
-0.000255611
-0.00286539
-0.000372859
-0.00261162
-0.000484202
-0.00230269
-0.000589147
-0.00194316
-0.000685548
-0.00153929
-0.000770924
-0.00109783
-0.000842785
-0.000627094
-0.000899249
-0.000135952
-0.000938582
0.000365676
-0.000958797
0.00086697
-0.000958512
0.0013566
-0.000936676
0.00182293
-0.000892577
0.00225458
-0.000826757
0.00264037
-0.000739273
0.00296966
-0.00063155
0.00323263
-0.0005051
0.00342099
-0.0003626
0.00352717
-0.000206439
0.00354724
-4.12713e-05
0.00347008
0.00014693
0.00330127
0.000324148
0.00304397
0.000494013
0.00270279
0.000654372
0.00228526
0.000800381
0.00180115
0.000927786
0.00126337
0.00103077
0.000686618
0.00110542
8.9132e-05
0.00114644
-0.000510958
0.00115182
-0.00109389
0.00111955
-0.00163913
0.0010479
-0.00212746
0.000939271
-0.00253958
0.000793974
-0.00285942
0.00061735
-0.00307202
0.000413424
-0.00316817
0.000190969
-0.00313542
-5.63907e-05
-0.00297541
-0.000304515
-0.00269335
-0.000538663
-0.00229954
-0.000752405
-0.00180758
-0.000940226
-0.00123758
-0.00109066
-0.000611891
-0.00119685
4.01549e-05
-0.00124885
0.000688677
-0.0012429
0.00130197
-0.00117602
0.00184897
-0.00105002
0.00229996
-0.000867008
0.0026298
-0.00063595
0.0028181
-0.00036639
0.00285425
-7.50084e-05
0.00271999
0.000254646
0.00242971
0.000555579
0.00199764
0.000826901
0.00144555
0.00105651
0.000804107
0.00122804
0.000111423
0.00132682
-0.000589258
0.00134266
-0.00125201
0.00127082
-0.00183064
0.00111133
-0.00228523
0.000874388
-0.00258147
0.000571492
-0.00269557
0.000224514
-0.00260558
-0.000168957
-0.00232152
-0.000543228
-0.00186479
-0.000874937
-0.00126468
-0.00114831
-0.000567218
-0.00133569
0.000172155
-0.00141717
0.000891319
-0.00137926
0.00152815
-0.00122239
0.00202521
-0.000955594
0.00233597
-0.000599309
0.00242789
-0.00018248
0.00227909
0.000284554
0.00190837
0.000711947
0.00134762
0.00107605
0.000648356
0.00134217
-0.000121707
0.00148006
-0.000881695
0.00146299
-0.0015526
0.00129419
-0.00206238
0.000987127
-0.00235617
0.000573486
-0.00240023
9.87249e-05
-0.00218185
-0.000412144
-0.0017374
-0.000846788
-0.00112118
-0.00117819
-0.000409732
-0.00136453
0.000305928
-0.00137738
0.000931205
-0.00120782
0.00138516
-0.000884139
0.00161326
-0.000452734
0.00158324
3.86102e-05
0.00131201
0.000507959
0.00084995
0.000874758
0.000272432
0.00109932
-0.000325505
0.00114351
-0.000841674
0.00099195
-0.00119446
0.000682446
-0.00132905
0.000267714
-0.0012186
-0.000205187
-0.000896365
-0.000614419
-0.00042229
-0.000907273
0.00011841
-0.0010391
0.000621228
-0.000970902
0.000999015
-0.000733837
0.00118974
-0.000375506
0.00115794
5.42654e-05
0.000920698
0.000457754
0.000528749
0.000758804
5.3535e-05
0.000924806
-0.000416784
0.000923165
-0.000803807
0.00076458
-0.00105179
0.000495359
-0.00112987
0.000162345
-0.00103145
-0.000190749
-0.000783487
-0.000488586
-0.000423002
-0.000715454
-0.000842207
0.000127788
-0.000530771
0.000262248
-0.000563166
0.00039512
-0.000566605
0.000524968
-0.00056766
0.000649613
-0.000566018
0.000768243
-0.000563099
0.000878728
-0.000557266
0.000981971
-0.000551678
0.00107635
-0.000543525
0.00116184
-0.000534547
0.00123709
-0.000523233
0.00130316
-0.000512423
0.00136026
-0.000501554
0.00140973
-0.00049182
0.00145447
-0.000484032
0.0014982
-0.000478929
0.0015437
-0.000475807
0.00159416
-0.000475391
0.00165144
-0.000476511
0.00171814
-0.000480036
0.00179601
-0.000485107
0.00188714
-0.000492107
0.00199262
-0.000499884
0.00211384
-0.000508629
0.00225092
-0.00051674
0.00240448
-0.000524656
0.00257347
-0.000530112
0.00275783
-0.000534227
0.00295529
-0.000534237
0.00316425
-0.000531288
0.00338068
-0.000523528
0.00360163
-0.000511965
0.00382354
-0.000495687
0.00404338
-0.000474915
0.00425865
-0.000450031
0.00446989
-0.000423734
0.00467626
-0.000394445
0.00487587
-0.000361246
0.00506532
-0.000322415
0.00524134
-0.000278193
0.0054018
-0.000229863
0.00554092
-0.00017374
0.00566393
-0.000113378
0.00576786
-4.43734e-05
0.00584505
3.22825e-05
0.0058929
0.000112754
0.00590902
0.000196947
0.00589127
0.000284432
0.00583795
0.000374634
0.00574783
0.00046654
0.00562006
0.00055966
0.0054541
0.000653145
0.00524963
0.000746121
0.0050069
0.00083801
0.00472621
0.000927655
0.00440855
0.00101458
0.00405514
0.00109707
0.0036678
0.00117505
0.00324895
0.00124626
0.00280212
0.00131038
0.00233075
0.00136508
0.0018391
0.00140988
0.00133162
0.00144315
0.000813556
0.00146351
0.000290218
0.00147054
-0.000232379
0.00146273
-0.000748598
0.00143984
-0.00125182
0.0014005
-0.00173557
0.00134447
-0.00219317
0.00127146
-0.00261815
0.00118234
-0.00300413
0.00107621
-0.00334454
0.000954113
-0.00363405
0.0008175
-0.00386638
0.000666659
-0.00403786
0.000504235
-0.00414393
0.000331207
-0.00418293
0.000151986
-0.004143
-4.71828e-05
-0.00403067
-0.000246831
-0.00384633
-0.000439946
-0.00359165
-0.000627544
-0.00326857
-0.00080728
-0.00288134
-0.00097638
-0.00243563
-0.00113126
-0.00193784
-0.00126871
-0.00139671
-0.00138392
-0.00082154
-0.00147442
-0.000223836
-0.00153629
0.000384787
-0.00156742
0.000991187
-0.00156491
0.00158241
-0.0015279
0.0021443
-0.00145447
0.00266349
-0.00134595
0.00312666
-0.00120244
0.0035208
-0.00102569
0.00383454
-0.000818845
0.00405739
-0.000585446
0.00418035
-0.000329395
0.00420206
-6.29813e-05
0.00410732
0.00024167
0.00390409
0.00052737
0.00359516
0.000802946
0.00318569
0.00106385
0.00268424
0.00130183
0.00210384
0.00150819
0.00145982
0.00167478
0.000770177
0.00179506
5.57187e-05
0.0018609
-0.000660627
0.00186817
-0.00135509
0.00181401
-0.00200313
0.00169593
-0.00258203
0.00151817
-0.00306831
0.00128026
-0.00344352
0.000992557
-0.00369062
0.000660522
-0.00379783
0.000298183
-0.00374858
-0.000105643
-0.00355027
-0.000502829
-0.00320715
-0.000881779
-0.0027297
-0.00122986
-0.00213542
-0.0015345
-0.00144743
-0.00177865
-0.000695053
-0.00194922
8.80296e-05
-0.00203194
0.000864708
-0.00201958
0.00159814
-0.00190946
0.00224917
-0.00170105
0.00278464
-0.00140248
0.00317365
-0.00102495
0.0033927
-0.000585443
0.00342462
-0.000106931
0.0032578
0.000421464
0.00290593
0.000907458
0.00238337
0.00134946
0.00171695
0.00172293
0.000946697
0.00199828
0.000115571
0.00215795
-0.000724291
0.00218252
-0.00151529
0.00206183
-0.00220442
0.00180046
-0.00274245
0.00141242
-0.00308914
0.00091818
-0.0032158
0.000351173
-0.00310129
-0.000283465
-0.00275797
-0.000886547
-0.0022061
-0.00142681
-0.00148496
-0.00186946
-0.000648543
-0.00217211
0.00023739
-0.0023031
0.00109654
-0.0022384
0.00185467
-0.00198053
0.00244408
-0.001545
0.00280864
-0.000963873
0.00290963
-0.00028347
0.00272827
0.000465915
0.00228323
0.00115699
0.00161247
0.00174682
0.000777393
0.00217724
-0.000138519
0.00239597
-0.00103889
0.00236336
-0.0018288
0.0020841
-0.00242203
0.00158035
-0.00275276
0.000904219
-0.00278734
0.000133306
-0.00251172
-0.000687767
-0.00196915
-0.00138936
-0.00122529
-0.00192204
-0.000374307
-0.00221551
0.000474699
-0.00222638
0.00120579
-0.00193891
0.00172752
-0.00140587
0.00197311
-0.000698322
0.00190872
0.000103007
0.00156162
0.000855057
0.000988999
0.00144738
0.000285828
0.00180249
-0.000432736
0.00186208
-0.00104556
0.00160478
-0.0014552
0.00109208
-0.00159819
0.000410701
-0.00145391
-0.000349467
-0.00106026
-0.00100806
-0.000489717
-0.00147782
0.00015177
-0.00168058
0.000741393
-0.00156052
0.00117622
-0.00116867
0.00138662
-0.000585907
0.00133739
0.000103501
0.00105451
0.000740627
0.00059694
0.00121638
5.10033e-05
0.00147074
-0.000476822
0.00145099
-0.000901277
0.00118904
-0.00116545
0.000759533
-0.00123912
0.000236017
-0.00112192
-0.000307949
-0.000845922
-0.000764588
-0.000454631
-0.00110674
-0.00129684
0.000282037
-0.000812809
0.000589319
-0.000870448
0.00090617
-0.000883457
0.0012344
-0.000895889
0.00157383
-0.000905454
0.00192774
-0.000917012
0.00229154
-0.000921062
0.00266617
-0.000926314
0.00304195
-0.000919304
0.00341335
-0.000905942
0.00376514
-0.000875024
0.00409293
-0.000840219
0.0043926
-0.000801228
0.00466565
-0.000764867
0.00491187
-0.000730256
0.0051338
-0.000700858
0.00533434
-0.000676341
0.00551737
-0.000658421
0.00568667
-0.000645817
0.00584927
-0.000642637
0.00600975
-0.000645581
0.0061724
-0.000654761
0.0063388
-0.000666285
0.00651293
-0.000682759
0.00669285
-0.000696665
0.00688147
-0.00071328
0.00707162
-0.000720258
0.00726464
-0.000727247
0.00744707
-0.000716666
0.0076212
-0.000705424
0.00778626
-0.000688589
0.00794683
-0.000672528
0.0081022
-0.000651059
0.00825302
-0.000625742
0.00839744
-0.000594447
0.00853129
-0.000557579
0.00865139
-0.00051455
0.0087553
-0.000465153
0.00884214
-0.000409263
0.00891048
-0.000346529
0.00895802
-0.000277401
0.00898521
-0.000200932
0.00899041
-0.000118574
0.00896884
-2.281e-05
0.00890159
9.95307e-05
0.00879784
0.00021651
0.008659
0.000335787
0.00848524
0.000458189
0.00827615
0.00058372
0.00803065
0.000712045
0.00774843
0.000841883
0.00742835
0.000973225
0.00707089
0.00110358
0.00667521
0.00123368
0.00624157
0.0013613
0.00577103
0.00148512
0.00526539
0.00160271
0.00472621
0.00171423
0.00415614
0.00181634
0.00355866
0.00190786
0.00293759
0.00198615
0.00229754
0.00204993
0.00164372
0.00209697
0.000982069
0.00212517
0.000318504
0.0021341
-0.000340246
0.00212148
-0.000986781
0.00208637
-0.00161411
0.00202782
-0.0022144
0.00194476
-0.00277951
0.00183657
-0.00330219
0.00170502
-0.00377473
0.00154874
-0.00418973
0.00136911
-0.00454072
0.00116849
-0.00482131
0.000947244
-0.00502436
0.000707288
-0.00514622
0.00045307
-0.00518393
0.000189697
-0.0051285
-0.000102616
-0.0049867
-0.000388629
-0.00475661
-0.000670033
-0.00444004
-0.00094412
-0.00403956
-0.00120776
-0.00356069
-0.00145525
-0.0030099
-0.00168205
-0.00239629
-0.00188231
-0.00173029
-0.00204992
-0.00102448
-0.00218023
-0.000290942
-0.00226982
0.000454442
-0.0023128
0.00119691
-0.00230738
0.00191924
-0.00225023
0.0026047
-0.00213994
0.00323769
-0.00197893
0.00380059
-0.00176534
0.00427835
-0.00150344
0.00465717
-0.00119766
0.00492352
-0.000851805
0.00506855
-0.000474421
0.0050865
-8.0928e-05
0.0049672
0.000360964
0.00471633
0.000778246
0.00433577
0.0011835
0.00383308
0.00156654
0.00321875
0.00191615
0.00250841
0.00221853
0.00172065
0.00246255
0.000879484
0.00263622
9.22792e-06
0.00273116
-0.000861898
0.00273929
-0.00170513
0.00265724
-0.00249147
0.00248227
-0.00319169
0.0022184
-0.00377673
0.0018653
-0.00422413
0.00143995
-0.00451467
0.000951065
-0.00463295
0.000416468
-0.00456411
-0.000174486
-0.00431378
-0.000753156
-0.0038883
-0.00130726
-0.00329826
-0.0018199
-0.00256616
-0.0022666
-0.00172166
-0.00262315
-0.000801602
-0.00286929
0.000155994
-0.00298953
0.00110367
-0.00296725
0.00199577
-0.00280156
0.00278557
-0.00249086
0.003433
-0.0020499
0.00389993
-0.00149188
0.00415731
-0.000842821
0.00418261
-0.000132234
0.00397411
0.000629961
0.00353803
0.00134354
0.00289304
0.00199445
0.00207456
0.00254141
0.00112827
0.00294458
0.000111743
0.00317448
-0.000910065
0.00320433
-0.00187145
0.00302322
-0.00270642
0.00263543
-0.00335593
0.00206193
-0.00377053
0.00133277
-0.00391198
0.00049263
-0.00376585
-0.000429602
-0.00334074
-0.00131166
-0.0026618
-0.00210574
-0.00177654
-0.00275472
-0.000754736
-0.00319391
0.000326835
-0.00338467
0.00137293
-0.0032845
0.00229237
-0.00289998
0.00300398
-0.0022566
0.00343878
-0.00139867
0.00355423
-0.000398913
0.00332602
0.000694125
0.00277822
0.00170478
0.00195683
0.00256821
0.000940209
0.00319386
-0.000171339
0.00350752
-0.00125945
0.00345147
-0.00220808
0.00303274
-0.00291388
0.00228615
-0.00329874
0.00128908
-0.0033134
0.000147969
-0.00296078
-0.0010404
-0.00228484
-0.0020653
-0.00136947
-0.00283741
-0.00033221
-0.00325277
0.000692465
-0.00325106
0.00156752
-0.00281397
0.00217762
-0.00201597
0.00244505
-0.00096575
0.00233752
0.000210539
0.00188761
0.00130497
0.00116938
0.0021656
0.000298995
0.00267288
-0.000579477
0.00274055
-0.001319
0.0023443
-0.00180121
0.0015743
-0.00195819
0.000567682
-0.00176485
-0.000542808
-0.00127265
-0.00150026
-0.000574033
-0.00217644
0.000202663
-0.00245728
0.000906231
-0.00226409
0.00141654
-0.00167898
0.0016491
-0.000818468
0.0015752
0.000177401
0.0012288
0.00108703
0.000681397
0.00176378
4.03511e-05
0.00211179
-0.000562954
0.0020543
-0.00103755
0.00166364
-0.00132132
0.0010433
-0.00138615
0.000300845
-0.00124339
-0.000450705
-0.000929768
-0.00107821
-0.000496974
-0.00153954
-0.00179381
0.000374744
-0.00118755
0.000779843
-0.00127555
0.00118808
-0.00129169
0.00159833
-0.00130614
0.00200162
-0.00130874
0.00240301
-0.0013184
0.00275421
-0.00127227
0.00302338
-0.00119548
0.00311473
-0.00101066
0.00306303
-0.000854239
0.00289105
-0.000703045
0.00264992
-0.000599087
0.00236131
-0.000512626
0.00204696
-0.000450511
0.00172343
-0.000406729
0.00140714
-0.000384573
0.00111235
-0.000381545
0.000850758
-0.000396835
0.000632667
-0.000427727
0.000465547
-0.000475519
0.000351555
-0.000531589
0.000301062
-0.000604269
0.000312633
-0.000677857
0.000393059
-0.000763185
0.000534416
-0.000838022
0.000747432
-0.000926296
0.00101282
-0.000985645
0.00133848
-0.00105291
0.00168789
-0.00106608
0.00206222
-0.00107975
0.00244902
-0.00107539
0.00284262
-0.00106613
0.00323897
-0.00104741
0.00363507
-0.00102185
0.00402908
-0.000988458
0.00441802
-0.000946511
0.00479879
-0.000895329
0.00516776
-0.000834114
0.00552111
-0.000762618
0.00585627
-0.00068169
0.00616311
-0.000584245
0.00644233
-0.000480151
0.00667869
-0.000354934
0.00687929
-0.00022341
0.00705946
-8.06384e-05
0.00718963
8.63471e-05
0.00727104
0.000254373
0.00730068
0.000428544
0.007276
0.000608401
0.00719543
0.000792618
0.00705623
0.000981086
0.00685908
0.00117037
0.00660165
0.00136101
0.00628544
0.00154989
0.005911
0.00173574
0.00547985
0.00191627
0.00499468
0.00208788
0.00445896
0.00224995
0.00387752
0.00239777
0.00325392
0.00253146
0.00259419
0.00264588
0.00190422
0.0027399
0.00119137
0.00280982
0.000462737
0.0028538
-0.000274044
0.00287088
-0.00100957
0.002857
-0.00173576
0.00281256
-0.00244233
0.00273439
-0.00311993
0.00262236
-0.00375908
0.00247572
-0.00435084
0.00229678
-0.0048838
0.0020817
-0.00535055
0.00183587
-0.00574167
0.00155961
-0.0060498
0.00125537
-0.00626829
0.000925782
-0.00639152
0.000576299
-0.00641259
0.000210771
-0.00632457
-0.000190639
-0.00613296
-0.000580237
-0.00583708
-0.000965919
-0.00543834
-0.00134285
-0.0049408
-0.0017053
-0.00435052
-0.00204554
-0.00367527
-0.0023573
-0.00292611
-0.00263147
-0.00211512
-0.00286091
-0.00125743
-0.00303792
-0.000368085
-0.00315916
0.00053406
-0.00321495
0.00143122
-0.00320454
0.00230213
-0.00312114
0.003128
-0.00296581
0.00388935
-0.00274028
0.0045652
-0.00244119
0.00513759
-0.00207584
0.00558928
-0.00164934
0.00590377
-0.00116629
0.00607287
-0.000643524
0.00608631
-9.43651e-05
0.00593925
0.000508022
0.00563256
0.00108493
0.00517117
0.00164489
0.00456154
0.00217617
0.00381797
0.00265973
0.00296067
0.00307582
0.00201221
0.00341101
0.000998155
0.00365028
-4.88658e-05
0.00377818
-0.00109536
0.00378578
-0.0021078
0.00366968
-0.00304848
0.00342295
-0.00388209
0.00305201
-0.00458164
0.00256485
-0.00511085
0.00196916
-0.00544801
0.00128822
-0.0055749
0.000543363
-0.00548533
-0.000264061
-0.00517559
-0.00106289
-0.00465322
-0.00182963
-0.00393469
-0.00253843
-0.00304785
-0.00315344
-0.00202707
-0.00364393
-0.000912381
-0.00398398
0.000239473
-0.00414139
0.00137882
-0.0041066
0.00244918
-0.00387192
0.00339704
-0.00343872
0.004168
-0.00282087
0.00471945
-0.00204333
0.00501684
-0.0011402
0.00504055
-0.00015595
0.00478055
0.000889963
0.00424626
0.00187783
0.00346253
0.00277818
0.00247288
0.00353106
0.00132757
0.00408989
0.000101462
0.00440058
-0.00112672
0.00443251
-0.00227991
0.0041764
-0.00327906
0.00363458
-0.00405121
0.00283408
-0.0045375
0.00181906
-0.00469797
0.000653105
-0.00451452
-0.000613062
-0.00399463
-0.00183155
-0.00316997
-0.0029304
-0.00209993
-0.00382476
-0.000864893
-0.00442894
0.000433976
-0.00468354
0.00168776
-0.00453828
0.00278844
-0.00400065
0.00363626
-0.00310443
0.00414588
-0.00190829
0.00427435
-0.000527384
0.00399415
0.000974324
0.00332954
0.00236939
0.00233694
0.0035608
0.00111491
0.00441589
-0.000219214
0.00484165
-0.00151799
0.00475025
-0.00264481
0.00415956
-0.00347496
0.0031163
-0.00391199
0.0017261
-0.00391121
0.000147193
-0.00346854
-0.00148306
-0.00263915
-0.00289469
-0.00152885
-0.00394771
-0.000277856
-0.00450376
0.000945879
-0.00447479
0.00197824
-0.00384633
0.00268507
-0.0027228
0.00297564
-0.00125632
0.00281651
0.00036967
0.00224725
0.00187424
0.00136125
0.00305159
0.000303939
0.00373019
-0.000753297
0.00379778
-0.00163271
0.00322371
-0.00219751
0.0021391
-0.0023589
0.000729069
-0.0021091
-0.000792608
-0.00150315
-0.00210621
-0.000659123
-0.00302046
0.000268309
-0.00338471
0.00109767
-0.00309345
0.00168574
-0.00226704
0.00194413
-0.00107686
0.00183826
0.000283266
0.00141487
0.00151042
0.000767704
0.00241095
2.21073e-05
0.00285739
-0.000663858
0.00274026
-0.00119065
0.00219043
-0.00149191
0.00134456
-0.00154408
0.000353006
-0.00137002
-0.000624757
-0.00101572
-0.00143252
-0.000539018
-0.00201624
-0.00233283
8.03749e-05
-0.00126793
0.000192628
-0.0013878
0.000386712
-0.00148578
0.000713242
-0.00163268
0.00121759
-0.00181309
0.00194682
-0.00204763
0.00280258
-0.00212803
0.00372765
-0.00212055
0.00447704
-0.00176006
0.00518515
-0.00156235
0.00575325
-0.00127114
0.00614712
-0.000992962
0.00636779
-0.000733295
0.00644661
-0.00052933
0.0064189
-0.000379015
0.00631552
-0.000281199
0.00616187
-0.00022789
0.00597896
-0.000213928
0.00578043
-0.000229199
0.00558343
-0.000278516
0.0053996
-0.00034776
0.0052409
-0.000445572
0.00512896
-0.000565913
0.00510674
-0.000740973
0.00517931
-0.000910591
0.00538891
-0.00113589
0.00566347
-0.00126021
0.00607967
-0.00146911
0.0064359
-0.0014223
0.00680426
-0.00144811
0.00713219
-0.00140332
0.0074491
-0.00138303
0.00774733
-0.00134564
0.00803171
-0.00130623
0.00830113
-0.00125788
0.00855487
-0.00120025
0.00879214
-0.0011326
0.0090112
-0.00105317
0.0092099
-0.00096132
0.00938298
-0.000854774
0.00953533
-0.000736593
0.00965703
-0.000601853
0.00975469
-0.000452594
0.00982073
-0.000289447
0.00985489
-0.000114804
0.00982199
0.000119255
0.00974115
0.000335208
0.00961347
0.000556223
0.00943636
0.000785508
0.00920771
0.00102127
0.00892499
0.0012638
0.00858607
0.0015093
0.00818934
0.00175774
0.00773448
0.00200474
0.00722182
0.0022484
0.00665226
0.00248584
0.00602806
0.00271208
0.00535179
0.00292622
0.00462787
0.0031217
0.00386042
0.00329891
0.00305619
0.00345011
0.00222143
0.00357466
0.00136354
0.00366771
0.000491279
0.00372606
-0.000386349
0.00374851
-0.00126021
0.00373086
-0.00211952
0.00367188
-0.00295413
0.003569
-0.00375254
0.00342077
-0.00450356
0.00322674
-0.00519592
0.00298915
-0.00582076
0.00270653
-0.00636402
0.00237914
-0.00681691
0.0020125
-0.00717318
0.00161164
-0.00742264
0.00117524
-0.00755517
0.000708822
-0.00756609
0.000221696
-0.00745995
-0.000296781
-0.00723048
-0.000809705
-0.00687785
-0.00131856
-0.00640366
-0.00181704
-0.0058126
-0.00229636
-0.0051126
-0.00274554
-0.00431419
-0.0031557
-0.00342886
-0.0035168
-0.00247311
-0.00381666
-0.00146168
-0.00404936
-0.000416579
-0.00420426
0.000644741
-0.00427627
0.00169758
-0.00425738
0.00271917
-0.00414273
0.00368683
-0.00393346
0.00457667
-0.00363013
0.0053656
-0.00323011
0.006032
-0.00274224
0.00655458
-0.00217192
0.00691754
-0.00152925
0.0071121
-0.00083809
0.00711498
-9.72406e-05
0.00693776
0.000685239
0.00657249
0.0014502
0.00602369
0.00219369
0.00530186
0.002898
0.00442534
0.00353625
0.00341475
0.00408641
0.00229765
0.00452811
0.0011092
0.00483874
-0.000119046
0.00500642
-0.00134527
0.00501201
-0.00252786
0.00485227
-0.00362484
0.00451993
-0.0045987
0.00402587
-0.00540554
0.00337168
-0.00601991
0.00258353
-0.00640725
0.00167557
-0.00654804
0.00068415
-0.00643237
-0.000379724
-0.00605896
-0.00143631
-0.00543672
-0.00245186
-0.00458525
-0.00338991
-0.00353641
-0.00420228
-0.00233135
-0.00484899
-0.00102365
-0.00529168
0.000331723
-0.00549676
0.00166951
-0.00544439
0.00292169
-0.0051241
0.0040291
-0.00454612
0.00492702
-0.00371879
0.00556387
-0.00268018
0.00590151
-0.00147785
0.005922
-0.000176441
0.00560516
0.00120681
0.00496894
0.00251405
0.00404265
0.00370447
0.00287337
0.00470034
0.00153049
0.00543276
8.94169e-05
0.00584166
-0.00135411
0.00587603
-0.00270546
0.00552776
-0.00387238
0.00480149
-0.00477007
0.00373178
-0.00533017
0.00237917
-0.00551036
0.000833294
-0.00528385
-0.00083958
-0.00466353
-0.00245186
-0.00368756
-0.00390637
-0.0024271
-0.00508521
-0.000974434
-0.00588161
0.000548762
-0.00620674
0.00201735
-0.00600687
0.00330305
-0.00528636
0.00428839
-0.00408977
0.00487979
-0.00249969
0.00501395
-0.000661535
0.00467502
0.00131325
0.00388606
0.00315835
0.00271836
0.0047285
0.00128219
0.00585206
-0.000278082
0.00640192
-0.00179458
0.00626675
-0.0031022
0.00546718
-0.00405752
0.00407161
-0.00455471
0.0022233
-0.00452159
0.000114068
-0.0039836
-0.00202105
-0.00299496
-0.00388334
-0.00168087
-0.00526181
-0.000210851
-0.00597377
0.00121251
-0.00589815
0.00240486
-0.00503869
0.00320776
-0.0035257
0.00351972
-0.00156828
0.00330352
0.000585872
0.00260714
0.00257061
0.00154555
0.00411319
0.000293369
0.00498237
-0.000944477
0.00503563
-0.00196446
0.00424369
-0.00260394
0.00277858
-0.0027703
0.000895434
-0.00245587
-0.00110705
-0.00173
-0.00283208
-0.000733416
-0.00401704
0.000346382
-0.00446451
0.00130018
-0.00404725
0.00196624
-0.00293311
0.00223795
-0.00134857
0.00209751
0.00042371
0.00159449
0.00201344
0.000843773
0.00316166
-5.01623e-07
0.00370166
-0.000769622
0.00350938
-0.00134484
0.00276564
-0.00165812
0.00165785
-0.00169458
0.000389464
-0.00148575
-0.000833584
-0.00108998
-0.00182829
-0.000574745
-0.00253148
-0.00290758
0.000322974
-0.00159091
0.000751997
-0.00181683
0.00148277
-0.00221655
0.00275793
-0.00290784
0.00484387
-0.00389904
0.0078195
-0.00502326
0.0111875
-0.00549601
0.0139546
-0.00488763
0.0141258
-0.00193124
0.012568
-4.59529e-06
0.0104928
0.000804068
0.00837215
0.00112767
0.00639991
0.00123895
0.00461394
0.00125664
0.00300211
0.00123281
0.00154975
0.00117117
0.000249918
0.00107194
-0.000901572
0.000937562
-0.00190436
0.000773588
-0.00277169
0.000588813
-0.0035209
0.000401446
-0.0040772
0.000110729
-0.00427908
-0.000364034
-0.00417609
-0.00084396
-0.00384676
-0.00123992
-0.0031942
-0.00178846
-0.00225493
-0.00219948
-0.000883062
-0.00284098
0.000300427
-0.00260579
0.00130382
-0.00245151
0.00214793
-0.00224743
0.00287753
-0.00211263
0.0035293
-0.00199742
0.00412794
-0.00190486
0.00469315
-0.00182309
0.00523382
-0.00174092
0.00575658
-0.00165537
0.00625974
-0.00155632
0.00674807
-0.00144965
0.00721199
-0.0013187
0.00764064
-0.00116524
0.00802602
-0.000987239
0.0083657
-0.000792266
0.00864977
-0.000573526
0.00886944
-0.000334466
0.00906026
-7.15727e-05
0.0091859
0.000209571
0.00923835
0.000503772
0.00921552
0.00080834
0.00911357
0.00112322
0.00893389
0.00144349
0.00867353
0.00176966
0.00833331
0.00209795
0.00791386
0.0024242
0.00741766
0.0027446
0.00684638
0.00305712
0.00620353