/*--------------------------------*- C++ -*----------------------------------*\
  =========                 |
  \\      /  F ield         | OpenFOAM: The Open Source CFD Toolbox
   \\    /   O peration     | Website:  https://openfoam.org
    \\  /    A nd           | Version:  12
     \\/     M anipulation  |
\*---------------------------------------------------------------------------*/
FoamFile
{
    format      ascii;
    class       volVectorField;
    location    "19";
    object      U;
}
// * * * * * * * * * * * * * * * * * * * * * * * * * * * * * * * * * * * * * //

dimensions      [0 1 -1 0 0 0 0];

internalField   nonuniform List<vector> 
3829
(
(6.95673e-06 -0.000669481 0)
(1.87254e-05 -0.000715971 0)
(3.31541e-05 -0.000716238 0)
(4.60296e-05 -0.000714497 0)
(6.00627e-05 -0.000712163 0)
(7.36525e-05 -0.000709154 0)
(8.75518e-05 -0.000705483 0)
(0.000101438 -0.000701127 0)
(0.000115434 -0.000696069 0)
(0.000129441 -0.000690299 0)
(0.000143503 -0.000683809 0)
(0.000157586 -0.000676592 0)
(0.00017165 -0.000668638 0)
(0.000185751 -0.000659959 0)
(0.000199845 -0.000650557 0)
(0.000213954 -0.000640428 0)
(0.00022807 -0.000629595 0)
(0.000242193 -0.000618073 0)
(0.00025637 -0.000605874 0)
(0.000270536 -0.000593044 0)
(0.000284662 -0.000579599 0)
(0.00029885 -0.000565562 0)
(0.000313047 -0.000550974 0)
(0.000327241 -0.000535865 0)
(0.000341417 -0.000520266 0)
(0.000355516 -0.000504228 0)
(0.000369546 -0.000487762 0)
(0.000383428 -0.000470944 0)
(0.000397143 -0.000453769 0)
(0.000410673 -0.000436337 0)
(0.000423702 -0.000418668 0)
(0.000436473 -0.000400791 0)
(0.000448819 -0.000382765 0)
(0.000460482 -0.000364598 0)
(0.000471525 -0.00034632 0)
(0.000481799 -0.000327921 0)
(0.000491266 -0.000309442 0)
(0.000499748 -0.000290899 0)
(0.000507295 -0.000272317 0)
(0.000513792 -0.000253747 0)
(0.000519046 -0.000235243 0)
(0.000523052 -0.000216843 0)
(0.00052567 -0.00019856 0)
(0.000526671 -0.00018049 0)
(0.000525906 -0.000162725 0)
(0.000523245 -0.00014532 0)
(0.000518575 -0.00012834 0)
(0.000511841 -0.000111823 0)
(0.000503018 -9.58445e-05 0)
(0.000492015 -8.03933e-05 0)
(0.000478752 -6.55977e-05 0)
(0.00046323 -5.14151e-05 0)
(0.000445569 -3.79267e-05 0)
(0.000425711 -2.51656e-05 0)
(0.000403455 -1.3197e-05 0)
(0.000379389 -1.97424e-06 0)
(0.000353376 8.3339e-06 0)
(0.000325356 1.78592e-05 0)
(0.000295573 2.63862e-05 0)
(0.000264341 3.40619e-05 0)
(0.000231883 4.06797e-05 0)
(0.00019803 4.63131e-05 0)
(0.000163328 5.09351e-05 0)
(0.000127938 5.45047e-05 0)
(9.22815e-05 5.70549e-05 0)
(5.67922e-05 5.85174e-05 0)
(2.17855e-05 5.89681e-05 0)
(-1.2568e-05 5.83289e-05 0)
(-4.60015e-05 5.66921e-05 0)
(-7.78252e-05 5.40833e-05 0)
(-0.00010766 5.05037e-05 0)
(-0.000135285 4.60764e-05 0)
(-0.000160059 4.0806e-05 0)
(-0.000181824 3.48109e-05 0)
(-0.000200373 2.81349e-05 0)
(-0.000215071 2.09863e-05 0)
(-0.000225738 1.33265e-05 0)
(-0.000232422 5.43009e-06 0)
(-0.000234616 -2.70423e-06 0)
(-0.000232098 -1.07299e-05 0)
(-0.000224824 -1.87559e-05 0)
(-0.00021272 -2.64052e-05 0)
(-0.000196471 -3.38416e-05 0)
(-0.000176053 -4.0547e-05 0)
(-0.000151713 -4.66423e-05 0)
(-0.000124046 -5.19149e-05 0)
(-9.34582e-05 -5.61449e-05 0)
(-6.0247e-05 -5.93083e-05 0)
(-2.52038e-05 -6.12914e-05 0)
(1.09388e-05 -6.19811e-05 0)
(4.75862e-05 -6.13538e-05 0)
(8.36746e-05 -5.94081e-05 0)
(0.000118558 -5.61186e-05 0)
(0.000151355 -5.15339e-05 0)
(0.00018125 -4.5719e-05 0)
(0.000207418 -3.87834e-05 0)
(0.000229145 -3.08598e-05 0)
(0.000245732 -2.21285e-05 0)
(0.000256698 -1.27597e-05 0)
(0.000261506 -3.0527e-06 0)
(0.000259494 6.79619e-06 0)
(0.000250454 1.65362e-05 0)
(0.00023474 2.58693e-05 0)
(0.000212706 3.45676e-05 0)
(0.000184877 4.23258e-05 0)
(0.000151837 4.88796e-05 0)
(0.00011438 5.40343e-05 0)
(7.34737e-05 5.74959e-05 0)
(3.03968e-05 5.93104e-05 0)
(-1.36808e-05 5.90894e-05 0)
(-5.7279e-05 5.702e-05 0)
(-9.86836e-05 5.29985e-05 0)
(-0.000136894 4.71056e-05 0)
(-0.00017004 3.96851e-05 0)
(-0.000197196 3.06357e-05 0)
(-0.000217026 2.07185e-05 0)
(-0.000228819 9.78572e-06 0)
(-0.000231603 -1.28568e-06 0)
(-0.00022459 -1.24217e-05 0)
(-0.000208671 -2.29495e-05 0)
(-0.000183912 -3.25748e-05 0)
(-0.000151512 -4.08523e-05 0)
(-0.000112785 -4.73009e-05 0)
(-6.90229e-05 -5.16e-05 0)
(-2.19197e-05 -5.35193e-05 0)
(2.5861e-05 -5.29577e-05 0)
(7.22036e-05 -4.97299e-05 0)
(0.000114833 -4.41466e-05 0)
(0.000151389 -3.6274e-05 0)
(0.00018034 -2.65602e-05 0)
(0.000199557 -1.54428e-05 0)
(0.000208005 -3.57139e-06 0)
(0.000204609 8.53317e-06 0)
(0.000188987 2.00879e-05 0)
(0.000162519 3.05866e-05 0)
(0.000126337 3.92047e-05 0)
(8.26196e-05 4.54967e-05 0)
(3.37288e-05 4.88815e-05 0)
(-1.81103e-05 4.92338e-05 0)
(-6.86286e-05 4.62532e-05 0)
(-0.000114233 4.03691e-05 0)
(-0.000152204 3.15703e-05 0)
(-0.000179927 2.07574e-05 0)
(-0.000195131 8.38441e-06 0)
(-0.000196199 -4.49319e-06 0)
(-0.000182416 -1.69267e-05 0)
(-0.000154997 -2.81217e-05 0)
(-0.000116122 -3.71216e-05 0)
(-6.84127e-05 -4.31354e-05 0)
(-1.47846e-05 -4.55675e-05 0)
(3.96508e-05 -4.4157e-05 0)
(8.95274e-05 -3.88849e-05 0)
(0.000131227 -3.03207e-05 0)
(0.000161002 -1.89971e-05 0)
(0.000175922 -6.05111e-06 0)
(0.000173764 7.47129e-06 0)
(0.000154263 2.01347e-05 0)
(0.000119637 3.10298e-05 0)
(7.31233e-05 3.87279e-05 0)
(1.77058e-05 4.26447e-05 0)
(-4.01448e-05 4.20014e-05 0)
(-9.33798e-05 3.70693e-05 0)
(-0.000137237 2.83245e-05 0)
(-0.000167259 1.66727e-05 0)
(-0.000180201 3.50664e-06 0)
(-0.000173944 -9.70146e-06 0)
(-0.000149428 -2.14304e-05 0)
(-0.000110155 -3.02829e-05 0)
(-6.1092e-05 -3.5228e-05 0)
(-7.31098e-06 -3.55599e-05 0)
(4.34939e-05 -3.12614e-05 0)
(8.38674e-05 -2.3007e-05 0)
(0.00010977 -1.22044e-05 0)
(0.000117826 -1.84817e-07 0)
(0.000107225 1.10059e-05 0)
(8.05247e-05 2.00788e-05 0)
(4.24904e-05 2.55428e-05 0)
(-1.96661e-06 2.67226e-05 0)
(-4.40592e-05 2.32455e-05 0)
(-7.61038e-05 1.61246e-05 0)
(-9.42425e-05 6.62622e-06 0)
(-9.514e-05 -3.63993e-06 0)
(-7.8968e-05 -1.27951e-05 0)
(-4.936e-05 -1.9525e-05 0)
(-1.01107e-05 -2.24847e-05 0)
(3.03511e-05 -2.11338e-05 0)
(6.29969e-05 -1.60126e-05 0)
(8.40196e-05 -8.3763e-06 0)
(8.97992e-05 4.92524e-07 0)
(7.93586e-05 8.80964e-06 0)
(5.54192e-05 1.53466e-05 0)
(2.22936e-05 1.89457e-05 0)
(-1.53352e-05 1.90903e-05 0)
(-4.89773e-05 1.58843e-05 0)
(-7.29801e-05 1.03682e-05 0)
(-8.55868e-05 3.59767e-06 0)
(-8.45988e-05 -3.36056e-06 0)
(-7.10212e-05 -9.51987e-06 0)
(-4.71755e-05 -1.40757e-05 0)
(-1.65208e-05 -1.64888e-05 0)
(1.03682e-05 0.000359892 0)
(3.38407e-05 0.000392947 0)
(5.76172e-05 0.000393621 0)
(8.1669e-05 0.000393363 0)
(0.000105924 0.000392889 0)
(0.000130369 0.000392233 0)
(0.000154964 0.000391355 0)
(0.000179637 0.000390168 0)
(0.000204398 0.000388653 0)
(0.000229087 0.000386707 0)
(0.000253712 0.000384303 0)
(0.000278267 0.00038132 0)
(0.00030257 0.000377717 0)
(0.000326569 0.000373426 0)
(0.000350369 0.000368384 0)
(0.000373842 0.000362538 0)
(0.000396834 0.000355876 0)
(0.000419444 0.000348401 0)
(0.000441508 0.000340129 0)
(0.000462942 0.000331112 0)
(0.000483886 0.000321409 0)
(0.000504292 0.000311106 0)
(0.000524077 0.000300267 0)
(0.000543293 0.000289045 0)
(0.000561799 0.000277543 0)
(0.000579691 0.000265889 0)
(0.000596813 0.000254263 0)
(0.000613201 0.000242769 0)
(0.000628693 0.000231523 0)
(0.000643116 0.000220755 0)
(0.000656609 0.000210534 0)
(0.000669173 0.000200946 0)
(0.000680778 0.000192114 0)
(0.000691337 0.000184063 0)
(0.000701007 0.000176875 0)
(0.000709592 0.000170509 0)
(0.000716945 0.000165094 0)
(0.000723071 0.000160563 0)
(0.000727892 0.000157076 0)
(0.000731177 0.000154697 0)
(0.000732806 0.000153447 0)
(0.000732982 0.000153366 0)
(0.000731252 0.000154381 0)
(0.000726962 0.000156557 0)
(0.000720198 0.000159893 0)
(0.000711005 0.000164345 0)
(0.00069938 0.000169848 0)
(0.00068523 0.000176289 0)
(0.000668798 0.00018356 0)
(0.000649739 0.00019151 0)
(0.000628127 0.000200014 0)
(0.000604246 0.000208932 0)
(0.000577814 0.000217987 0)
(0.000548886 0.000227154 0)
(0.000517638 0.000236044 0)
(0.000484199 0.000244702 0)
(0.000448815 0.000252613 0)
(0.000411243 0.00025986 0)
(0.000371765 0.000265903 0)
(0.000330785 0.000270931 0)
(0.000288164 0.000274334 0)
(0.000244589 0.000276239 0)
(0.000200073 0.00027627 0)
(0.000155047 0.000274481 0)
(0.000109809 0.000270567 0)
(6.49762e-05 0.000264555 0)
(2.08356e-05 0.000256248 0)
(-2.23673e-05 0.000245665 0)
(-6.39631e-05 0.000232777 0)
(-0.000103661 0.000217672 0)
(-0.000140666 0.000200349 0)
(-0.000174784 0.000180948 0)
(-0.000205408 0.000159638 0)
(-0.000232227 0.000136513 0)
(-0.000254725 0.000111966 0)
(-0.000272618 8.61092e-05 0)
(-0.000285494 5.93646e-05 0)
(-0.000293283 3.20235e-05 0)
(-0.000295274 4.44112e-06 0)
(-0.000291652 -2.28621e-05 0)
(-0.000282318 -4.946e-05 0)
(-0.000267411 -7.50583e-05 0)
(-0.000247164 -9.913e-05 0)
(-0.000221416 -0.000121311 0)
(-0.000191539 -0.000141109 0)
(-0.000156965 -0.000158156 0)
(-0.00011879 -0.000171925 0)
(-7.76963e-05 -0.000182242 0)
(-3.41892e-05 -0.000188705 0)
(1.0677e-05 -0.000191209 0)
(5.59297e-05 -0.000189477 0)
(0.000100514 -0.000183564 0)
(0.000143622 -0.000173395 0)
(0.000184093 -0.0001592 0)
(0.000220943 -0.000141122 0)
(0.000253153 -0.000119557 0)
(0.000279828 -9.49012e-05 0)
(0.000300187 -6.77125e-05 0)
(0.00031343 -3.86185e-05 0)
(0.000318999 -8.37931e-06 0)
(0.000316427 2.23189e-05 0)
(0.000305255 5.25947e-05 0)
(0.000285954 8.16364e-05 0)
(0.000258911 0.000108664 0)
(0.0002246 0.000132686 0)
(0.000183962 0.00015301 0)
(0.000137752 0.000168806 0)
(8.7617e-05 0.000179588 0)
(3.46208e-05 0.000184753 0)
(-1.96846e-05 0.00018403 0)
(-7.3058e-05 0.000177321 0)
(-0.000124071 0.000164603 0)
(-0.000170599 0.000146335 0)
(-0.000211254 0.000122842 0)
(-0.000244123 9.49876e-05 0)
(-0.00026801 6.3556e-05 0)
(-0.000282014 2.98672e-05 0)
(-0.000284675 -5.04986e-06 0)
(-0.000275779 -3.96184e-05 0)
(-0.000255746 -7.26055e-05 0)
(-0.000225255 -0.000102482 0)
(-0.000185144 -0.000128033 0)
(-0.000137065 -0.000147951 0)
(-8.29303e-05 -0.000161178 0)
(-2.49608e-05 -0.000167044 0)
(3.40612e-05 -0.000164934 0)
(9.1123e-05 -0.000154797 0)
(0.00014342 -0.000137184 0)
(0.000188339 -0.000112542 0)
(0.000223615 -8.21407e-05 0)
(0.00024678 -4.75002e-05 0)
(0.000256695 -1.02521e-05 0)
(0.000252112 2.74231e-05 0)
(0.00023276 6.3561e-05 0)
(0.000200033 9.59213e-05 0)
(0.000155264 0.000122667 0)
(0.000101189 0.000141994 0)
(4.08279e-05 0.000152437 0)
(-2.30146e-05 0.000153096 0)
(-8.50307e-05 0.000143869 0)
(-0.000141097 0.0001249 0)
(-0.000187686 9.77201e-05 0)
(-0.000221397 6.35905e-05 0)
(-0.000239787 2.52761e-05 0)
(-0.000240456 -1.48731e-05 0)
(-0.000223261 -5.36719e-05 0)
(-0.000189516 -8.83619e-05 0)
(-0.000141506 -0.000116171 0)
(-8.25493e-05 -0.000134658 0)
(-1.65128e-05 -0.000142048 0)
(5.0505e-05 -0.000137277 0)
(0.000111792 -0.000120861 0)
(0.000162883 -9.39445e-05 0)
(0.000199205 -5.87444e-05 0)
(0.000217117 -1.83247e-05 0)
(0.000214064 2.35661e-05 0)
(0.000190108 6.31569e-05 0)
(0.000147615 9.66636e-05 0)
(9.04118e-05 0.000120524 0)
(2.25452e-05 0.000132308 0)
(-4.82159e-05 0.000130094 0)
(-0.000112993 0.000114433 0)
(-0.000166168 8.69906e-05 0)
(-0.000202071 5.06711e-05 0)
(-0.000216784 9.68227e-06 0)
(-0.000208144 -3.13233e-05 0)
(-0.000177342 -6.76526e-05 0)
(-0.000128669 -9.4937e-05 0)
(-6.81172e-05 -0.000109824 0)
(-2.15686e-06 -0.000110548 0)
(5.97021e-05 -9.65317e-05 0)
(0.000108217 -7.07913e-05 0)
(0.000138608 -3.6706e-05 0)
(0.000146832 5.27487e-07 0)
(0.000132265 3.55331e-05 0)
(9.82952e-05 6.33665e-05 0)
(5.05345e-05 8.00902e-05 0)
(-4.67976e-06 8.32369e-05 0)
(-5.65369e-05 7.20739e-05 0)
(-9.54659e-05 4.95668e-05 0)
(-0.000117016 1.97791e-05 0)
(-0.000117271 -1.19737e-05 0)
(-9.68707e-05 -4.04961e-05 0)
(-6.01687e-05 -6.08908e-05 0)
(-1.19071e-05 -6.99723e-05 0)
(3.73673e-05 -6.52622e-05 0)
(7.66971e-05 -4.93178e-05 0)
(0.000101551 -2.53734e-05 0)
(0.000107854 1.91933e-06 0)
(9.47911e-05 2.76538e-05 0)
(6.58378e-05 4.74689e-05 0)
(2.61091e-05 5.81918e-05 0)
(-1.83894e-05 5.81316e-05 0)
(-5.76134e-05 4.80493e-05 0)
(-8.50149e-05 3.12197e-05 0)
(-9.88852e-05 1.05116e-05 0)
(-9.71634e-05 -1.05276e-05 0)
(-8.11713e-05 -2.90279e-05 0)
(-5.37068e-05 -4.25235e-05 0)
(-1.87651e-05 -4.96925e-05 0)
(6.15498e-06 -0.000945603 0)
(1.98265e-05 -0.00100591 0)
(3.34792e-05 -0.00100597 0)
(4.68249e-05 -0.00100341 0)
(5.98097e-05 -0.000999517 0)
(7.2208e-05 -0.000994377 0)
(8.39168e-05 -0.000987519 0)
(9.48258e-05 -0.000979059 0)
(0.00010494 -0.000968574 0)
(0.000114121 -0.000956232 0)
(0.000122308 -0.000941851 0)
(0.00012939 -0.000925802 0)
(0.000135734 -0.000908227 0)
(0.00014118 -0.000889443 0)
(0.000145906 -0.000869611 0)
(0.000150348 -0.000849027 0)
(0.000154862 -0.000827907 0)
(0.00015967 -0.000806475 0)
(0.000165121 -0.000784869 0)
(0.000171404 -0.000763234 0)
(0.000178729 -0.000741549 0)
(0.000187199 -0.000719915 0)
(0.000197152 -0.000698192 0)
(0.000208798 -0.000676448 0)
(0.000221892 -0.000654349 0)
(0.000236848 -0.000632112 0)
(0.000253429 -0.000609186 0)
(0.000271166 -0.000585975 0)
(0.000290714 -0.00056191 0)
(0.000311735 -0.000537289 0)
(0.000333099 -0.000511938 0)
(0.000355317 -0.000485908 0)
(0.000377907 -0.000459103 0)
(0.000400415 -0.000431381 0)
(0.000422584 -0.000402697 0)
(0.000444465 -0.00037284 0)
(0.000465655 -0.000341785 0)
(0.000485944 -0.000309684 0)
(0.000505863 -0.00027653 0)
(0.00052451 -0.000242514 0)
(0.000541626 -0.000207681 0)
(0.000556831 -0.000172117 0)
(0.000570148 -0.000135939 0)
(0.000581705 -9.91584e-05 0)
(0.000590882 -6.18451e-05 0)
(0.000597284 -2.43235e-05 0)
(0.000600508 1.32182e-05 0)
(0.000600357 5.05795e-05 0)
(0.000596691 8.76321e-05 0)
(0.000589363 0.000124086 0)
(0.000578395 0.000159844 0)
(0.000563227 0.000194647 0)
(0.00054446 0.000228212 0)
(0.000521651 0.00026037 0)
(0.000494959 0.000290812 0)
(0.000464507 0.000319187 0)
(0.000430337 0.000345267 0)
(0.000392419 0.000368829 0)
(0.000351406 0.000389492 0)
(0.000307485 0.000407009 0)
(0.00026055 0.000421082 0)
(0.000211607 0.000431489 0)
(0.000160827 0.000437956 0)
(0.000108763 0.000440319 0)
(5.57193e-05 0.000438379 0)
(2.61157e-06 0.000432057 0)
(-5.02899e-05 0.000421187 0)
(-0.000102154 0.000405803 0)
(-0.000152408 0.000385954 0)
(-0.00020032 0.000361681 0)
(-0.000245272 0.000333274 0)
(-0.000286488 0.000300732 0)
(-0.000323528 0.000264683 0)
(-0.000355442 0.000225133 0)
(-0.000382018 0.000182841 0)
(-0.000402648 0.000137997 0)
(-0.000416537 9.15346e-05 0)
(-0.000424042 4.38646e-05 0)
(-0.000423986 -4.17667e-06 0)
(-0.000416035 -5.20866e-05 0)
(-0.000400948 -9.86889e-05 0)
(-0.000378479 -0.000143709 0)
(-0.000349117 -0.000185858 0)
(-0.000313016 -0.000224768 0)
(-0.000270618 -0.000259354 0)
(-0.000222378 -0.000288965 0)
(-0.000169461 -0.000312942 0)
(-0.000112649 -0.000330618 0)
(-5.29428e-05 -0.000341534 0)
(8.47595e-06 -0.000345269 0)
(7.04716e-05 -0.000341569 0)
(0.000131395 -0.000330337 0)
(0.000190096 -0.000311571 0)
(0.000245065 -0.000285619 0)
(0.000295076 -0.000252764 0)
(0.000338639 -0.000213737 0)
(0.000374665 -0.000169171 0)
(0.000401925 -0.000120243 0)
(0.000419464 -6.78996e-05 0)
(0.000426748 -1.35799e-05 0)
(0.000422961 4.14777e-05 0)
(0.000407665 9.57393e-05 0)
(0.00038164 0.000147696 0)
(0.000344931 0.000195913 0)
(0.000298421 0.000238645 0)
(0.000243279 0.000274749 0)
(0.000180887 0.000302681 0)
(0.000112942 0.000321648 0)
(4.12828e-05 0.000330414 0)
(-3.16447e-05 0.000328695 0)
(-0.000103679 0.000316231 0)
(-0.000171893 0.000293081 0)
(-0.000234402 0.000260033 0)
(-0.000288594 0.000217563 0)
(-0.000332498 0.000167604 0)
(-0.000363934 0.000111062 0)
(-0.000381821 5.0741e-05 0)
(-0.000384789 -1.17902e-05 0)
(-0.000371856 -7.34628e-05 0)
(-0.000344146 -0.000132562 0)
(-0.000302049 -0.000185681 0)
(-0.000247363 -0.000231154 0)
(-0.000181907 -0.000266214 0)
(-0.000108461 -0.000289665 0)
(-2.97551e-05 -0.000299449 0)
(5.0262e-05 -0.000295187 0)
(0.000127128 -0.000276593 0)
(0.000197602 -0.000244537 0)
(0.000258036 -0.000199953 0)
(0.000304961 -0.000145352 0)
(0.000335741 -8.29755e-05 0)
(0.000348341 -1.61282e-05 0)
(0.0003413 5.1288e-05 0)
(0.000314419 0.000115793 0)
(0.000269538 0.000173504 0)
(0.000208818 0.000221083 0)
(0.000135334 0.00025507 0)
(5.32197e-05 0.000273428 0)
(-3.28518e-05 0.000274253 0)
(-0.000116721 0.000257076 0)
(-0.000192115 0.000222698 0)
(-0.000254521 0.000173505 0)
(-0.000299459 0.000112291 0)
(-0.000323162 4.33673e-05 0)
(-0.00032355 -2.84157e-05 0)
(-0.000299632 -9.79562e-05 0)
(-0.000253591 -0.000159714 0)
(-0.000188376 -0.000209232 0)
(-0.000108411 -0.000241726 0)
(-1.89457e-05 -0.000254481 0)
(7.13665e-05 -0.000245492 0)
(0.000153824 -0.000215515 0)
(0.000222417 -0.00016706 0)
(0.000270796 -0.000103712 0)
(0.000294102 -3.13792e-05 0)
(0.000289441 4.37191e-05 0)
(0.000256881 0.000114318 0)
(0.000199295 0.000173824 0)
(0.000122097 0.000215964 0)
(3.07926e-05 0.000236303 0)
(-6.39929e-05 0.000231628 0)
(-0.000150379 0.000202963 0)
(-0.000220662 0.000153324 0)
(-0.000267301 8.8069e-05 0)
(-0.000285131 1.44963e-05 0)
(-0.000271812 -5.86415e-05 0)
(-0.000229053 -0.000123052 0)
(-0.000162409 -0.000170918 0)
(-8.03159e-05 -0.000196478 0)
(8.5763e-06 -0.000196524 0)
(9.08171e-05 -0.000170676 0)
(0.000154355 -0.000123572 0)
(0.000192894 -6.22754e-05 0)
(0.000201105 4.42148e-06 0)
(0.000178876 6.67293e-05 0)
(0.000130806 0.000115927 0)
(6.47266e-05 0.00014478 0)
(-1.06729e-05 0.00014932 0)
(-8.06026e-05 0.000128272 0)
(-0.000132287 8.72918e-05 0)
(-0.000159662 3.37312e-05 0)
(-0.000158516 -2.32254e-05 0)
(-0.00012986 -7.37545e-05 0)
(-7.97283e-05 -0.000109534 0)
(-1.46576e-05 -0.000124635 0)
(5.09864e-05 -0.000115509 0)
(0.000102503 -8.63993e-05 0)
(0.000134233 -4.35621e-05 0)
(0.000141209 4.73916e-06 0)
(0.000123047 4.97956e-05 0)
(8.44206e-05 8.40147e-05 0)
(3.23644e-05 0.000101956 0)
(-2.46494e-05 0.000100606 0)
(-7.35694e-05 8.23522e-05 0)
(-0.000106926 5.2718e-05 0)
(-0.000122931 1.6927e-05 0)
(-0.000119588 -1.89525e-05 0)
(-9.90344e-05 -5.00118e-05 0)
(-6.50787e-05 -7.24926e-05 0)
(-2.26823e-05 -8.43161e-05 0)
(1.48351e-05 1.87714e-05 0)
(4.9656e-05 3.41829e-05 0)
(8.49276e-05 4.02077e-05 0)
(0.000121962 4.82054e-05 0)
(0.000159947 5.98111e-05 0)
(0.000199845 7.32531e-05 0)
(0.000241085 9.08577e-05 0)
(0.000283549 0.000108901 0)
(0.000327152 0.000130501 0)
(0.000370455 0.000149878 0)
(0.000412584 0.000168436 0)
(0.00045168 0.000182961 0)
(0.000487935 0.000194449 0)
(0.000520861 0.000201336 0)
(0.000550839 0.000204361 0)
(0.0005778 0.00020266 0)
(0.000602037 0.000197047 0)
(0.000624125 0.000186991 0)
(0.000644259 0.000174056 0)
(0.000663259 0.000157508 0)
(0.00068162 0.000138461 0)
(0.000699927 0.000116719 0)
(0.00071847 9.36484e-05 0)
(0.000738267 6.91458e-05 0)
(0.000758307 4.47785e-05 0)
(0.000779667 2.02086e-05 0)
(0.000801268 -2.52373e-06 0)
(0.000822956 -2.43785e-05 0)
(0.00084513 -4.29341e-05 0)
(0.00086556 -5.93901e-05 0)
(0.000885269 -7.21751e-05 0)
(0.000903795 -8.23451e-05 0)
(0.000921887 -8.90153e-05 0)
(0.000939222 -9.29026e-05 0)
(0.000956082 -9.35857e-05 0)
(0.000972436 -9.13608e-05 0)
(0.000986895 -8.59385e-05 0)
(0.000999683 -7.72495e-05 0)
(0.0010107 -6.51689e-05 0)
(0.00101944 -4.96308e-05 0)
(0.00102609 -3.05967e-05 0)
(0.00103039 -8.18119e-06 0)
(0.00103222 1.75478e-05 0)
(0.00103123 4.6154e-05 0)
(0.00102604 7.74414e-05 0)
(0.00101616 0.000111438 0)
(0.00100213 0.000147724 0)
(0.000984172 0.000186058 0)
(0.000962129 0.000226045 0)
(0.000935874 0.000267147 0)
(0.000905656 0.000308932 0)
(0.000870954 0.000350999 0)
(0.000832001 0.000392658 0)
(0.000788775 0.000433566 0)
(0.000740783 0.000472875 0)
(0.00068856 0.000510253 0)
(0.000632882 0.000545015 0)
(0.000572995 0.00057649 0)
(0.000509219 0.000604459 0)
(0.000442279 0.000627945 0)
(0.00037224 0.000646885 0)
(0.000299934 0.000660511 0)
(0.000225663 0.000668564 0)
(0.000150166 0.000670554 0)
(7.40782e-05 0.0006663 0)
(-1.82494e-06 0.000655456 0)
(-7.6842e-05 0.000637935 0)
(-0.000149932 0.000613685 0)
(-0.000220474 0.000582639 0)
(-0.000287336 0.00054507 0)
(-0.000349899 0.000501064 0)
(-0.000406932 0.000451075 0)
(-0.000457868 0.00039542 0)
(-0.000501945 0.000334866 0)
(-0.000538253 0.000269812 0)
(-0.000566087 0.000201321 0)
(-0.000584375 0.000130067 0)
(-0.000593546 5.69664e-05 0)
(-0.000592738 -1.65536e-05 0)
(-0.000581211 -8.96432e-05 0)
(-0.000559716 -0.000161049 0)
(-0.000528264 -0.000229585 0)
(-0.000486969 -0.000294106 0)
(-0.000436422 -0.000353114 0)
(-0.000377225 -0.000405626 0)
(-0.000310259 -0.000450432 0)
(-0.000236715 -0.000486562 0)
(-0.000157906 -0.000513008 0)
(-7.51224e-05 -0.000528975 0)
(9.95477e-06 -0.000533965 0)
(9.5464e-05 -0.000527429 0)
(0.000179636 -0.000509381 0)
(0.000260509 -0.000479942 0)
(0.000336213 -0.000439202 0)
(0.000404896 -0.000388191 0)
(0.000464708 -0.000327534 0)
(0.000513821 -0.000258655 0)
(0.000550795 -0.00018286 0)
(0.000574368 -0.000102244 0)
(0.000583553 -1.8288e-05 0)
(0.000577837 6.62842e-05 0)
(0.000556355 0.000149754 0)
(0.000520076 0.000229525 0)
(0.000469045 0.000303301 0)
(0.000404655 0.000368845 0)
(0.000328539 0.000423777 0)
(0.000242427 0.000466366 0)
(0.000148785 0.000494759 0)
(4.99567e-05 0.000507922 0)
(-5.0289e-05 0.000504575 0)
(-0.000149026 0.000484806 0)
(-0.000242534 0.000448686 0)
(-0.000327962 0.000397105 0)
(-0.000401672 0.000331407 0)
(-0.000461037 0.000253939 0)
(-0.000503299 0.000166882 0)
(-0.000526525 7.36758e-05 0)
(-0.000529126 -2.22405e-05 0)
(-0.000510753 -0.000117051 0)
(-0.000471627 -0.000207331 0)
(-0.000412776 -0.000289022 0)
(-0.000336661 -0.000358262 0)
(-0.000245992 -0.000411804 0)
(-0.000144265 -0.000446661 0)
(-3.53482e-05 -0.00046134 0)
(7.46759e-05 -0.000453829 0)
(0.000180511 -0.000424652 0)
(0.000277313 -0.000374324 0)
(0.00035977 -0.00030537 0)
(0.000423541 -0.000220732 0)
(0.00046518 -0.00012441 0)
(0.000481081 -2.17817e-05 0)
(0.000470098 8.19455e-05 0)
(0.00043241 0.000180918 0)
(0.000370066 0.000269607 0)
(0.000285534 0.00034219 0)
(0.000183874 0.000393722 0)
(7.08134e-05 0.000421132 0)
(-4.8132e-05 0.00042157 0)
(-0.000163533 0.00039427 0)
(-0.000266963 0.000340771 0)
(-0.000352103 0.000264508 0)
(-0.000413013 0.000169985 0)
(-0.000444619 6.39412e-05 0)
(-0.000443903 -4.6505e-05 0)
(-0.000410148 -0.000153114 0)
(-0.000346149 -0.000247896 0)
(-0.000255724 -0.000323167 0)
(-0.000144994 -0.000372358 0)
(-2.19077e-05 -0.000391375 0)
(0.000102517 -0.000376724 0)
(0.000215588 -0.000329942 0)
(0.000309292 -0.000254798 0)
(0.000374941 -0.000157117 0)
(0.000405944 -4.59179e-05 0)
(0.000398602 6.92113e-05 0)
(0.00035307 0.000177498 0)
(0.000273525 0.000268065 0)
(0.000167003 0.000331923 0)
(4.16622e-05 0.000362015 0)
(-8.79106e-05 0.000353593 0)
(-0.000205396 0.000308668 0)
(-0.000300294 0.000231537 0)
(-0.000362352 0.00013083 0)
(-0.000384299 1.79286e-05 0)
(-0.000363475 -9.4164e-05 0)
(-0.000302774 -0.000192244 0)
(-0.000209877 -0.000264469 0)
(-9.63066e-05 -0.000302082 0)
(2.53818e-05 -0.000300502 0)
(0.000137163 -0.000258706 0)
(0.000222161 -0.000185186 0)
(0.000271721 -9.01213e-05 0)
(0.000279531 1.23684e-05 0)
(0.000245722 0.000107766 0)
(0.000176885 0.000182081 0)
(8.38963e-05 0.000224817 0)
(-2.07019e-05 0.000229881 0)
(-0.000116605 0.000195997 0)
(-0.000186115 0.000131735 0)
(-0.000221828 4.85545e-05 0)
(-0.000218114 -3.86567e-05 0)
(-0.000176998 -0.000115558 0)
(-0.000106967 -0.000169007 0)
(-1.75146e-05 -0.00019061 0)
(7.14455e-05 -0.00017511 0)
(0.000140266 -0.000129674 0)
(0.000181252 -6.40562e-05 0)
(0.000188629 9.42328e-06 0)
(0.000162663 7.71709e-05 0)
(0.000110047 0.00012751 0)
(4.01175e-05 0.00015303 0)
(-3.44642e-05 0.00014885 0)
(-9.66495e-05 0.00012037 0)
(-0.000137809 7.56243e-05 0)
(-0.000156119 2.26887e-05 0)
(-0.000150052 -2.93193e-05 0)
(-0.000123024 -7.38016e-05 0)
(-8.02409e-05 -0.000105465 0)
(-2.78397e-05 -0.000121985 0)
(2.2307e-05 -0.00130928 0)
(7.45945e-05 -0.00139503 0)
(0.000126428 -0.0014035 0)
(0.000180185 -0.00141196 0)
(0.000231368 -0.0014184 0)
(0.00028553 -0.00142827 0)
(0.00033335 -0.00142993 0)
(0.000376611 -0.00143285 0)
(0.000401318 -0.00142113 0)
(0.000400695 -0.00139867 0)
(0.00038598 -0.00135315 0)
(0.000357019 -0.00130081 0)
(0.000322963 -0.00124132 0)
(0.000283224 -0.0011818 0)
(0.000241817 -0.00112229 0)
(0.000199795 -0.0010664 0)
(0.00015999 -0.0010139 0)
(0.000126362 -0.000965966 0)
(9.53263e-05 -0.000921956 0)
(7.01392e-05 -0.000885875 0)
(5.20196e-05 -0.000854891 0)
(4.13084e-05 -0.000829328 0)
(3.85545e-05 -0.000806675 0)
(4.51443e-05 -0.00079048 0)
(5.90721e-05 -0.000774203 0)
(8.33714e-05 -0.000763851 0)
(0.000113829 -0.000748006 0)
(0.000152379 -0.000737174 0)
(0.000196943 -0.000715071 0)
(0.000244573 -0.000696414 0)
(0.000294288 -0.000670294 0)
(0.000344295 -0.00064377 0)
(0.000395816 -0.000612587 0)
(0.000446549 -0.000578781 0)
(0.000497769 -0.000541022 0)
(0.000548233 -0.000500051 0)
(0.000598175 -0.00045586 0)
(0.000646386 -0.000408575 0)
(0.000693248 -0.00035853 0)
(0.000737811 -0.000305806 0)
(0.000779384 -0.000250665 0)
(0.000817375 -0.00019322 0)
(0.000850718 -0.000133591 0)
(0.000879061 -7.19469e-05 0)
(0.000903707 -8.51799e-06 0)
(0.000923431 5.70006e-05 0)
(0.000936972 0.000123612 0)
(0.000944433 0.000190923 0)
(0.000944641 0.000258676 0)
(0.000937453 0.000326537 0)
(0.0009235 0.000393981 0)
(0.000901519 0.000460349 0)
(0.000872271 0.000525074 0)
(0.000835049 0.000587695 0)
(0.000790025 0.000647335 0)
(0.000738099 0.000703455 0)
(0.000678413 0.00075532 0)
(0.00061246 0.000802062 0)
(0.000540021 0.000843204 0)
(0.000461881 0.000877831 0)
(0.00037883 0.000905542 0)
(0.000291231 0.000925496 0)
(0.000200303 0.000937308 0)
(0.000106855 0.000940401 0)
(1.17848e-05 0.000934423 0)
(-8.37133e-05 0.000919057 0)
(-0.000178409 0.000894129 0)
(-0.000271378 0.00085956 0)
(-0.000361136 0.000815361 0)
(-0.000446476 0.000761738 0)
(-0.000526275 0.000699048 0)
(-0.000599194 0.000627885 0)
(-0.000663982 0.000548578 0)
(-0.000719518 0.000462364 0)
(-0.000764892 0.000369906 0)
(-0.000798942 0.000272612 0)
(-0.000821304 0.000171335 0)
(-0.000830549 6.7768e-05 0)
(-0.000825972 -3.64694e-05 0)
(-0.000807811 -0.000139889 0)
(-0.000776104 -0.000241171 0)
(-0.000731182 -0.0003381 0)
(-0.000672922 -0.0004292 0)
(-0.000602109 -0.000512474 0)
(-0.000520095 -0.00058654 0)
(-0.000427598 -0.000649367 0)
(-0.000326466 -0.000699847 0)
(-0.000218079 -0.000736472 0)
(-0.000104753 -0.000758233 0)
(1.15905e-05 -0.000764334 0)
(0.000128509 -0.000753961 0)
(0.000242846 -0.000727288 0)
(0.00035317 -0.000684243 0)
(0.000456016 -0.000625478 0)
(0.000549024 -0.000551782 0)
(0.000629959 -0.000464705 0)
(0.000696369 -0.000365948 0)
(0.000745824 -0.000257604 0)
(0.00077716 -0.000142303 0)
(0.000788869 -2.25093e-05 0)
(0.000779958 9.83231e-05 0)
(0.000750486 0.000216987 0)
(0.000700422 0.00033054 0)
(0.000630834 0.000435185 0)
(0.000542809 0.000528205 0)
(0.000438832 0.00060581 0)
(0.000321562 0.000665619 0)
(0.000194296 0.000705444 0)
(6.01693e-05 0.000722978 0)
(-7.60776e-05 0.000717474 0)
(-0.000209679 0.000688348 0)
(-0.000336254 0.000635947 0)
(-0.000451637 0.000562022 0)
(-0.000550742 0.000467759 0)
(-0.000630297 0.00035697 0)
(-0.000686465 0.000232669 0)
(-0.000716328 9.9919e-05 0)
(-0.000718323 -3.73224e-05 0)
(-0.000691919 -0.000172391 0)
(-0.000638135 -0.000300785 0)
(-0.000557193 -0.000416428 0)
(-0.000452678 -0.000514508 0)
(-0.000328234 -0.000589596 0)
(-0.000189758 -0.000638782 0)
(-4.18436e-05 -0.00065804 0)
(0.000108126 -0.000646614 0)
(0.000251745 -0.00060355 0)
(0.000382728 -0.000531275 0)
(0.000493841 -0.000432153 0)
(0.0005797 -0.000310743 0)
(0.000634481 -0.000173173 0)
(0.000654704 -2.69112e-05 0)
(0.000638803 0.000121059 0)
(0.000586727 0.000262213 0)
(0.000500915 0.000388041 0)
(0.000384889 0.000490437 0)
(0.000246083 0.000563467 0)
(9.19335e-05 0.000601193 0)
(-6.95668e-05 0.000600197 0)
(-0.000226081 0.000560502 0)
(-0.000365818 0.000483415 0)
(-0.00048055 0.000373951 0)
(-0.000561913 0.000238826 0)
(-0.000603282 8.73215e-05 0)
(-0.000601231 -7.00815e-05 0)
(-0.000554381 -0.000222067 0)
(-0.000466344 -0.000356295 0)
(-0.000342473 -0.000462818 0)
(-0.000192067 -0.000531706 0)
(-2.46585e-05 -0.000557737 0)
(0.000144214 -0.000535696 0)
(0.000297179 -0.000468237 0)
(0.000423492 -0.000360153 0)
(0.00051118 -0.000220765 0)
(0.000551685 -6.16793e-05 0)
(0.000540866 0.00010204 0)
(0.000478165 0.000255364 0)
(0.000369262 0.000383352 0)
(0.000224415 0.000472856 0)
(5.4304e-05 0.000514212 0)
(-0.000120465 0.00050086 0)
(-0.000278381 0.000435106 0)
(-0.000405156 0.000324225 0)
(-0.000486493 0.000180091 0)
(-0.000513451 1.87931e-05 0)
(-0.000482716 -0.000140032 0)
(-0.000398103 -0.000278348 0)
(-0.000270362 -0.000379318 0)
(-0.000115584 -0.000430383 0)
(4.96864e-05 -0.000425034 0)
(0.000199599 -0.000363479 0)
(0.000311809 -0.0002568 0)
(0.000375417 -0.00012062 0)
(0.000381952 2.56471e-05 0)
(0.000332302 0.000160841 0)
(0.000235539 0.000264946 0)
(0.000107168 0.000323396 0)
(-3.55706e-05 0.000327847 0)
(-0.000165071 0.000276931 0)
(-0.000257872 0.000183538 0)
(-0.000303277 6.4341e-05 0)
(-0.000295358 -5.96864e-05 0)
(-0.000237418 -0.000167625 0)
(-0.000141085 -0.000241709 0)
(-1.98417e-05 -0.000270061 0)
(9.92412e-05 -0.000245761 0)
(0.000189709 -0.000179762 0)
(0.000242311 -8.61485e-05 0)
(0.000249765 1.67581e-05 0)
(0.000212876 0.000110806 0)
(0.000141573 0.000179526 0)
(4.84129e-05 0.000212744 0)
(-4.84573e-05 0.000203981 0)
(-0.000126622 0.00016296 0)
(-0.000176974 0.000100473 0)
(-0.000197404 2.79882e-05 0)
(-0.000187337 -4.21343e-05 0)
(-0.000151938 -0.00010069 0)
(-9.82121e-05 -0.000141933 0)
(-3.39478e-05 -0.000162892 0)
(3.5322e-06 -0.000667634 0)
(1.96643e-05 -0.000698829 0)
(3.49838e-05 -0.00068542 0)
(7.66517e-05 -0.000663595 0)
(0.000127467 -0.000616933 0)
(0.000226123 -0.000555893 0)
(0.000337088 -0.000416719 0)
(0.000479219 -0.00025461 0)
(0.000602122 2.37069e-05 0)
(0.000703304 0.000241716 0)
(0.00080432 0.000420761 0)
(0.000870766 0.000526774 0)
(0.000917618 0.000598856 0)
(0.000936198 0.000636981 0)
(0.000939183 0.000650144 0)
(0.000928795 0.000639484 0)
(0.000912377 0.000608812 0)
(0.000887953 0.000560847 0)
(0.000859791 0.000497789 0)
(0.000831258 0.00042139 0)
(0.000801668 0.000336752 0)
(0.000777996 0.000233278 0)
(0.00075433 0.000123129 0)
(0.000749488 1.64255e-06 0)