/*--------------------------------*- C++ -*----------------------------------*\
  =========                 |
  \\      /  F ield         | OpenFOAM: The Open Source CFD Toolbox
   \\    /   O peration     | Website:  https://openfoam.org
    \\  /    A nd           | Version:  12
     \\/     M anipulation  |
\*---------------------------------------------------------------------------*/
FoamFile
{
    format      ascii;
    class       volVectorField;
    location    "19";
    object      zeta;
}
// * * * * * * * * * * * * * * * * * * * * * * * * * * * * * * * * * * * * * //

dimensions      [0 1 0 0 0 0 0];

internalField   uniform (0 0 0);

boundaryField
{
    freeSurface
    {
        type            calculated;
        value           nonuniform List<vector> 
181
(
(0 0.00599695 0)
(0 0.00599671 0)
(0 0.00599605 0)
(0 0.00599501 0)
(0 0.00599416 0)
(0 0.00599277 0)
(0 0.00599285 0)
(0 0.00599083 0)
(0 0.000789075 0)
(0 0.000796885 0)
(0 0.000813707 0)
(0 0.000837055 0)
(0 0.000864317 0)
(0 0.000899006 0)
(0 0.000936872 0)
(0 0.000979062 0)
(0 0.00102329 0)
(0 0.00106984 0)
(0 0.00111654 0)
(0 0.00116281 0)
(0 0.00120697 0)
(0 0.00124821 0)
(0 0.00128545 0)
(0 0.00131813 0)
(0 0.00134547 0)
(0 0.00136683 0)
(0 0.00138122 0)
(0 0.00138778 0)
(0 0.00138589 0)
(0 0.00137504 0)
(0 0.0013549 0)
(0 0.0013252 0)
(0 0.00128576 0)
(0 0.00123644 0)
(0 0.00117715 0)
(0 0.00110807 0)
(0 0.00102947 0)
(0 0.00094183 0)
(0 0.000845709 0)
(0 0.000741662 0)
(0 0.000630467 0)
(0 0.000513002 0)
(0 0.000390259 0)
(0 0.000263315 0)
(0 0.000133457 0)
(0 2.02441e-06 0)
(0 -0.000129655 0)
(0 -0.000259912 0)
(0 -0.000387191 0)
(0 -0.000509693 0)
(0 -0.000625806 0)
(0 -0.000733728 0)
(0 -0.000831761 0)
(0 -0.000918337 0)
(0 -0.000991877 0)
(0 -0.00105098 0)
(0 -0.00109446 0)
(0 -0.00112131 0)
(0 -0.00113067 0)
(0 -0.00112186 0)
(0 -0.00109461 0)
(0 -0.00104895 0)
(0 -0.000985132 0)
(0 -0.000903618 0)
(0 -0.000805455 0)
(0 -0.000692116 0)
(0 -0.000565228 0)
(0 -0.000426868 0)
(0 -0.000279761 0)
(0 -0.000126451 0)
(0 2.98475e-05 0)
(0 0.000186132 0)
(0 0.000338714 0)
(0 0.000484222 0)
(0 0.000619278 0)
(0 0.000740431 0)
(0 0.000844341 0)
(0 0.000928062 0)
(0 0.000988762 0)
(0 0.00102441 0)
(0 0.00103319 0)
(0 0.00101426 0)
(0 0.000967397 0)
(0 0.000893176 0)
(0 0.000792909 0)
(0 0.000668914 0)
(0 0.000524244 0)
(0 0.00036275 0)
(0 0.000189317 0)
(0 8.9059e-06 0)
(0 -0.000172766 0)
(0 -0.000349606 0)
(0 -0.000515499 0)
(0 -0.000664207 0)
(0 -0.000789858 0)
(0 -0.000887367 0)
(0 -0.000952235 0)
(0 -0.000981167 0)
(0 -0.000972033 0)
(0 -0.000924368 0)
(0 -0.000839 0)
(0 -0.000718613 0)
(0 -0.000567604 0)
(0 -0.000391934 0)
(0 -0.000198929 0)
(0 2.66443e-06 0)
(0 0.000203821 0)
(0 0.000394837 0)
(0 0.000565936 0)
(0 0.000707745 0)
(0 0.000812343 0)
(0 0.000872992 0)
(0 0.000885163 0)
(0 0.000847282 0)
(0 0.000759887 0)
(0 0.000627087 0)
(0 0.000455526 0)
(0 0.000255181 0)
(0 3.73758e-05 0)
(0 -0.000183458 0)
(0 -0.000394406 0)
(0 -0.000580511 0)
(0 -0.000728296 0)
(0 -0.000826506 0)
(0 -0.000866829 0)
(0 -0.000844946 0)
(0 -0.00076114 0)
(0 -0.00062018 0)
(0 -0.000432015 0)
(0 -0.000210712 0)
(0 2.61395e-05 0)
(0 0.000259494 0)
(0 0.000470604 0)
(0 0.000640122 0)
(0 0.000751675 0)
(0 0.000794001 0)
(0 0.000761228 0)
(0 0.000655151 0)
(0 0.000484876 0)
(0 0.000267041 0)
(0 2.41742e-05 0)
(0 -0.000217638 0)
(0 -0.000433679 0)
(0 -0.000598136 0)
(0 -0.00069074 0)
(0 -0.000699333 0)
(0 -0.000621594 0)
(0 -0.000466569 0)
(0 -0.000253627 0)
(0 -1.1065e-05 0)
(0 0.000227272 0)
(0 0.000430698 0)
(0 0.000568481 0)
(0 0.000619002 0)
(0 0.000572954 0)
(0 0.000436425 0)
(0 0.000229912 0)
(0 -1.44017e-05 0)
(0 -0.00025598 0)
(0 -0.000457633 0)
(0 -0.000583539 0)
(0 -0.00060883 0)
(0 -0.000526133 0)
(0 -0.000349523 0)
(0 -0.00011029 0)
(0 0.000147142 0)
(0 0.000374332 0)
(0 0.000527978 0)
(0 0.000574493 0)
(0 0.000500428 0)
(0 0.000320111 0)
(0 7.10285e-05 0)
(0 -0.000192775 0)
(0 -0.000411278 0)
(0 -0.000534795 0)
(0 -0.000530616 0)
(0 -0.00039613 0)
(0 -0.000163859 0)
(0 0.000108571 0)
(0 0.000349621 0)
(0 0.000492122 0)
)
;
    }
    walls
    {
        type            calculated;
        value           uniform (0 0 0);
    }
    floatingObject
    {
        type            calculated;
        value           uniform (0 0 0);
    }
    frontAndBack
    {
        type            empty;
    }
}


// ************************************************************************* //
