#           v             n
     0.523599   0.000540578
     0.648652   0.000143928
     0.790112   0.000184358
     0.953116    0.00024686
      1.13449    0.00032744
      1.34047    0.00045112
      1.56672   0.000611691
      1.82069   0.000854273
      2.09677    0.00116382
      2.40376      0.001616
      2.73462    0.00216377
      3.09966    0.00291505
      3.49026    0.00373143
      3.91837    0.00472965
      4.37366    0.00558855
      4.86986    0.00640836
       5.3948    0.00668035
      5.96412    0.00658251
      6.56366    0.00569251
      7.21112    0.00447562
      7.89023    0.00290525
      8.62085    0.00157513
      9.38447   0.000590065
      10.2033   0.000126407
      11.0564             0
      11.9684             0
      12.9159             0
      13.9262             0
      14.9731             0
