/*--------------------------------*- C++ -*----------------------------------*\
  =========                 |
  \\      /  F ield         | OpenFOAM: The Open Source CFD Toolbox
   \\    /   O peration     | Website:  https://openfoam.org
    \\  /    A nd           | Version:  12
     \\/     M anipulation  |
\*---------------------------------------------------------------------------*/
FoamFile
{
    format      ascii;
    class       volScalarField;
    location    "9.18";
    object      p;
}
// * * * * * * * * * * * * * * * * * * * * * * * * * * * * * * * * * * * * * //

dimensions      [1 -1 -2 0 0 0 0];

internalField   nonuniform List<scalar> 
3829
(
-618.166
-618.164
-618.162
-618.158
-618.152
-618.145
-618.136
-618.125
-618.113
-618.099
-618.083
-618.065
-618.045
-618.023
-617.999
-617.972
-617.943
-617.911
-617.876
-617.839
-617.8
-617.757
-617.711
-617.663
-617.611
-617.557
-617.499
-617.439
-617.375
-617.309
-617.24
-617.168
-617.093
-617.016
-616.936
-616.854
-616.77
-616.684
-616.596
-616.507
-616.416
-616.325
-616.233
-616.141
-616.049
-615.957
-615.866
-615.776
-615.687
-615.6
-615.515
-615.433
-615.353
-615.276
-615.203
-615.133
-615.068
-615.006
-614.95
-614.897
-614.85
-614.808
-614.771
-614.739
-614.713
-614.692
-614.676
-614.665
-614.659
-614.657
-614.659
-614.664
-614.673
-614.685
-614.698
-614.714
-614.73
-614.746
-614.762
-614.777
-614.79
-614.801
-614.809
-614.813
-614.814
-614.81
-614.801
-614.787
-614.768
-614.743
-614.713
-614.679
-614.64
-614.597
-614.551
-614.502
-614.452
-614.4
-614.349
-614.3
-614.252
-614.208
-614.169
-614.135
-614.107
-614.086
-614.072
-614.066
-614.069
-614.079
-614.097
-614.121
-614.152
-614.187
-614.226
-614.266
-614.308
-614.348
-614.386
-614.42
-614.449
-614.47
-614.485
-614.491
-614.489
-614.478
-614.46
-614.436
-614.405
-614.372
-614.336
-614.298
-614.263
-614.233
-614.207
-614.188
-614.176
-614.172
-614.178
-614.191
-614.211
-614.237
-614.266
-614.296
-614.327
-614.355
-614.378
-614.396
-614.408
-614.412
-614.41
-614.402
-614.389
-614.372
-614.355
-614.338
-614.323
-614.311
-614.304
-614.303
-614.306
-614.313
-614.322
-614.333
-614.343
-614.35
-614.354
-614.354
-614.349
-614.34
-614.327
-614.311
-614.294
-614.278
-614.265
-614.257
-614.253
-614.255
-614.264
-614.279
-614.298
-614.32
-614.344
-614.368
-614.39
-614.409
-614.423
-614.431
-614.433
-614.429
-614.419
-614.405
-614.387
-614.367
-614.346
-614.326
-614.308
-614.293
-614.283
-614.277
-1776.65
-1776.65
-1776.64
-1776.64
-1776.64
-1776.63
-1776.62
-1776.61
-1776.6
-1776.59
-1776.57
-1776.56
-1776.54
-1776.52
-1776.49
-1776.47
-1776.44
-1776.41
-1776.37
-1776.33
-1776.29
-1776.25
-1776.2
-1776.15
-1776.1
-1776.04
-1775.98
-1775.91
-1775.84
-1775.77
-1775.69
-1775.61
-1775.53
-1775.44
-1775.35
-1775.26
-1775.17
-1775.08
-1774.98
-1774.88
-1774.78
-1774.68
-1774.58
-1774.48
-1774.38
-1774.27
-1774.17
-1774.08
-1773.98
-1773.88
-1773.79
-1773.7
-1773.62
-1773.54
-1773.46
-1773.38
-1773.32
-1773.25
-1773.19
-1773.14
-1773.1
-1773.05
-1773.02
-1772.99
-1772.97
-1772.96
-1772.95
-1772.94
-1772.95
-1772.95
-1772.96
-1772.98
-1773
-1773.02
-1773.04
-1773.07
-1773.1
-1773.12
-1773.15
-1773.17
-1773.19
-1773.21
-1773.22
-1773.23
-1773.24
-1773.24
-1773.23
-1773.21
-1773.19
-1773.17
-1773.13
-1773.09
-1773.05
-1773
-1772.94
-1772.88
-1772.82
-1772.76
-1772.7
-1772.64
-1772.59
-1772.54
-1772.49
-1772.45
-1772.42
-1772.4
-1772.38
-1772.38
-1772.38
-1772.4
-1772.42
-1772.45
-1772.49
-1772.53
-1772.58
-1772.63
-1772.69
-1772.73
-1772.78
-1772.82
-1772.86
-1772.88
-1772.9
-1772.9
-1772.9
-1772.88
-1772.86
-1772.83
-1772.79
-1772.75
-1772.7
-1772.66
-1772.62
-1772.58
-1772.55
-1772.53
-1772.52
-1772.51
-1772.52
-1772.54
-1772.56
-1772.59
-1772.63
-1772.67
-1772.7
-1772.74
-1772.77
-1772.79
-1772.8
-1772.8
-1772.8
-1772.78
-1772.77
-1772.75
-1772.72
-1772.7
-1772.68
-1772.67
-1772.66
-1772.66
-1772.67
-1772.68
-1772.69
-1772.7
-1772.72
-1772.73
-1772.73
-1772.73
-1772.73
-1772.72
-1772.7
-1772.68
-1772.66
-1772.64
-1772.63
-1772.62
-1772.61
-1772.62
-1772.63
-1772.64
-1772.66
-1772.69
-1772.71
-1772.74
-1772.76
-1772.78
-1772.8
-1772.81
-1772.81
-1772.8
-1772.79
-1772.78
-1772.76
-1772.74
-1772.72
-1772.69
-1772.67
-1772.66
-1772.65
-1772.64
-2803.03
-2803.03
-2803.03
-2803.02
-2803.02
-2803.01
-2803
-2803
-2802.99
-2802.98
-2802.97
-2802.95
-2802.94
-2802.92
-2802.9
-2802.88
-2802.85
-2802.82
-2802.78
-2802.75
-2802.7
-2802.66
-2802.6
-2802.55
-2802.49
-2802.42
-2802.35
-2802.27
-2802.19
-2802.11
-2802.02
-2801.93
-2801.83
-2801.73
-2801.63
-2801.52
-2801.4
-2801.29
-2801.17
-2801.06
-2800.94
-2800.82
-2800.7
-2800.58
-2800.46
-2800.34
-2800.22
-2800.11
-2800
-2799.89
-2799.78
-2799.68
-2799.59
-2799.49
-2799.41
-2799.33
-2799.25
-2799.19
-2799.13
-2799.08
-2799.03
-2798.99
-2798.96
-2798.95
-2798.93
-2798.93
-2798.93
-2798.94
-2798.96
-2798.98
-2799.01
-2799.04
-2799.08
-2799.12
-2799.16
-2799.21
-2799.25
-2799.3
-2799.34
-2799.38
-2799.42
-2799.45
-2799.47
-2799.49
-2799.5
-2799.51
-2799.5
-2799.49
-2799.46
-2799.43
-2799.39
-2799.34
-2799.28
-2799.21
-2799.14
-2799.07
-2798.99
-2798.91
-2798.83
-2798.76
-2798.69
-2798.62
-2798.56
-2798.51
-2798.47
-2798.45
-2798.43
-2798.43
-2798.44
-2798.46
-2798.5
-2798.54
-2798.6
-2798.66
-2798.72
-2798.79
-2798.86
-2798.93
-2798.99
-2799.04
-2799.09
-2799.12
-2799.14
-2799.14
-2799.13
-2799.11
-2799.08
-2799.03
-2798.98
-2798.92
-2798.86
-2798.8
-2798.75
-2798.7
-2798.66
-2798.63
-2798.62
-2798.62
-2798.63
-2798.65
-2798.69
-2798.73
-2798.78
-2798.83
-2798.88
-2798.92
-2798.96
-2798.98
-2799
-2799
-2798.99
-2798.97
-2798.94
-2798.91
-2798.88
-2798.85
-2798.83
-2798.81
-2798.8
-2798.8
-2798.81
-2798.83
-2798.85
-2798.87
-2798.88
-2798.9
-2798.91
-2798.91
-2798.9
-2798.89
-2798.87
-2798.84
-2798.82
-2798.8
-2798.78
-2798.76
-2798.76
-2798.76
-2798.77
-2798.79
-2798.82
-2798.84
-2798.88
-2798.91
-2798.93
-2798.96
-2798.97
-2798.98
-2798.98
-2798.98
-2798.96
-2798.94
-2798.92
-2798.9
-2798.87
-2798.85
-2798.83
-2798.81
-2798.8
-2798.79
-3712.2
-3712.2
-3712.21
-3712.21
-3712.22
-3712.22
-3712.23
-3712.23
-3712.24
-3712.25
-3712.25
-3712.25
-3712.25
-3712.24
-3712.23
-3712.22
-3712.2
-3712.17
-3712.14
-3712.11
-3712.07
-3712.02
-3711.96
-3711.9
-3711.83
-3711.76
-3711.68
-3711.59
-3711.49
-3711.39
-3711.28
-3711.16
-3711.04
-3710.92
-3710.79
-3710.65
-3710.52
-3710.38
-3710.24
-3710.1
-3709.95
-3709.81
-3709.66
-3709.52
-3709.38
-3709.24
-3709.1
-3708.96
-3708.83
-3708.7
-3708.58
-3708.46
-3708.35
-3708.24
-3708.15
-3708.06
-3707.98
-3707.91
-3707.85
-3707.8
-3707.76
-3707.73
-3707.71
-3707.7
-3707.7
-3707.71
-3707.73
-3707.76
-3707.8
-3707.84
-3707.89
-3707.95
-3708.02
-3708.09
-3708.16
-3708.23
-3708.3
-3708.37
-3708.44
-3708.5
-3708.56
-3708.61
-3708.65
-3708.68
-3708.7
-3708.71
-3708.71
-3708.69
-3708.66
-3708.62
-3708.56
-3708.5
-3708.42
-3708.33
-3708.24
-3708.14
-3708.04
-3707.93
-3707.83
-3707.73
-3707.63
-3707.55
-3707.47
-3707.41
-3707.36
-3707.32
-3707.31
-3707.31
-3707.33
-3707.36
-3707.42
-3707.48
-3707.56
-3707.64
-3707.74
-3707.83
-3707.93
-3708.02
-3708.1
-3708.17
-3708.23
-3708.27
-3708.29
-3708.3
-3708.28
-3708.25
-3708.2
-3708.14
-3708.06
-3707.98
-3707.9
-3707.82
-3707.74
-3707.68
-3707.62
-3707.59
-3707.57
-3707.57
-3707.59
-3707.63
-3707.68
-3707.74
-3707.81
-3707.88
-3707.94
-3708
-3708.05
-3708.08
-3708.09
-3708.09
-3708.07
-3708.04
-3708
-3707.96
-3707.91
-3707.87
-3707.84
-3707.82
-3707.81
-3707.81
-3707.83
-3707.85
-3707.88
-3707.91
-3707.94
-3707.96
-3707.97
-3707.97
-3707.96
-3707.94
-3707.92
-3707.89
-3707.85
-3707.82
-3707.8
-3707.78
-3707.77
-3707.78
-3707.79
-3707.81
-3707.84
-3707.88
-3707.92
-3707.95
-3707.98
-3708.01
-3708.03
-3708.04
-3708.04
-3708.03
-3708.01
-3707.99
-3707.97
-3707.94
-3707.91
-3707.88
-3707.86
-3707.84
-3707.83
-3707.82
-4517.76
-4517.77
-4517.77
-4517.78
-4517.8
-4517.81
-4517.83
-4517.85
-4517.87
-4517.88
-4517.9
-4517.91
-4517.93
-4517.94
-4517.95
-4517.95
-4517.94
-4517.93
-4517.91
-4517.88
-4517.84
-4517.79
-4517.73
-4517.66
-4517.58
-4517.48
-4517.38
-4517.27
-4517.15
-4517.02
-4516.88
-4516.74
-4516.59
-4516.43
-4516.27
-4516.1
-4515.92
-4515.75
-4515.57
-4515.4
-4515.22
-4515.04
-4514.86
-4514.68
-4514.51
-4514.34
-4514.17
-4514.01
-4513.85
-4513.7
-4513.55
-4513.42
-4513.29
-4513.17
-4513.06
-4512.96
-4512.87
-4512.8
-4512.73
-4512.68
-4512.65
-4512.63
-4512.62
-4512.62
-4512.64
-4512.67
-4512.71
-4512.77
-4512.84
-4512.91
-4513
-4513.09
-4513.19
-4513.3
-4513.4
-4513.51
-4513.62
-4513.72
-4513.82
-4513.91
-4514
-4514.07
-4514.13
-4514.18
-4514.21
-4514.22
-4514.22
-4514.2
-4514.16
-4514.11
-4514.03
-4513.95
-4513.84
-4513.73
-4513.6
-4513.47
-4513.33
-4513.19
-4513.06
-4512.92
-4512.8
-4512.69
-4512.59
-4512.51
-4512.44
-4512.4
-4512.39
-4512.39
-4512.43
-4512.48
-4512.55
-4512.64
-4512.75
-4512.87
-4513
-4513.13
-4513.26
-4513.38
-4513.49
-4513.58
-4513.65
-4513.71
-4513.73
-4513.73
-4513.71
-4513.66
-4513.59
-4513.5
-4513.4
-4513.29
-4513.18
-4513.07
-4512.96
-4512.88
-4512.81
-4512.77
-4512.75
-4512.76
-4512.79
-4512.84
-4512.91
-4513
-4513.09
-4513.18
-4513.27
-4513.34
-4513.4
-4513.44
-4513.45
-4513.44
-4513.41
-4513.37
-4513.31
-4513.25
-4513.19
-4513.14
-4513.09
-4513.07
-4513.06
-4513.06
-4513.09
-4513.12
-4513.16
-4513.2
-4513.24
-4513.27
-4513.29
-4513.29
-4513.28
-4513.25
-4513.22
-4513.18
-4513.14
-4513.1
-4513.06
-4513.04
-4513.03
-4513.04
-4513.06
-4513.08
-4513.12
-4513.16
-4513.21
-4513.25
-4513.29
-4513.32
-4513.34
-4513.34
-4513.34
-4513.33
-4513.31
-4513.29
-4513.26
-4513.23
-4513.2
-4513.17
-4513.14
-4513.12
-4513.1
-4513.1
-5231.12
-5231.13
-5231.15
-5231.18
-5231.21
-5231.25
-5231.3
-5231.36
-5231.42
-5231.49
-5231.56
-5231.62
-5231.68
-5231.73
-5231.77
-5231.81
-5231.83
-5231.84
-5231.84
-5231.82
-5231.79
-5231.74
-5231.68
-5231.6
-5231.5
-5231.38
-5231.25
-5231.11
-5230.95
-5230.78
-5230.6
-5230.41
-5230.21
-5230.02
-5229.81
-5229.61
-5229.4
-5229.19
-5228.97
-5228.76
-5228.54
-5228.32
-5228.11
-5227.9
-5227.69
-5227.48
-5227.28
-5227.09
-5226.9
-5226.72
-5226.55
-5226.39
-5226.24
-5226.1
-5225.98
-5225.87
-5225.77
-5225.69
-5225.63
-5225.58
-5225.55
-5225.54
-5225.55
-5225.57
-5225.61
-5225.67
-5225.74
-5225.83
-5225.93
-5226.04
-5226.17
-5226.3
-5226.45
-5226.59
-5226.75
-5226.9
-5227.05
-5227.19
-5227.33
-5227.45
-5227.57
-5227.67
-5227.75
-5227.82
-5227.86
-5227.88
-5227.88
-5227.85
-5227.8
-5227.73
-5227.64
-5227.52
-5227.39
-5227.24
-5227.07
-5226.9
-5226.72
-5226.54
-5226.36
-5226.19
-5226.03
-5225.88
-5225.76
-5225.65
-5225.58
-5225.53
-5225.51
-5225.53
-5225.57
-5225.65
-5225.75
-5225.87
-5226.02
-5226.18
-5226.35
-5226.52
-5226.69
-5226.85
-5226.99
-5227.11
-5227.2
-5227.27
-5227.3
-5227.3
-5227.26
-5227.19
-5227.1
-5226.98
-5226.84
-5226.69
-5226.54
-5226.39
-5226.26
-5226.15
-5226.07
-5226.01
-5225.99
-5226
-5226.05
-5226.13
-5226.22
-5226.34
-5226.46
-5226.58
-5226.69
-5226.79
-5226.86
-5226.9
-5226.91
-5226.9
-5226.86
-5226.79
-5226.72
-5226.63
-5226.55
-5226.48
-5226.42
-5226.39
-5226.38
-5226.4
-5226.43
-5226.48
-5226.53
-5226.59
-5226.64
-5226.68
-5226.7
-5226.71
-5226.69
-5226.66
-5226.61
-5226.56
-5226.51
-5226.46
-5226.42
-5226.39
-5226.38
-5226.39
-5226.41
-5226.44
-5226.49
-5226.54
-5226.59
-5226.64
-5226.68
-5226.71
-5226.74
-5226.75
-5226.74
-5226.73
-5226.71
-5226.68
-5226.64
-5226.61
-5226.57
-5226.54
-5226.51
-5226.48
-5226.47
-5226.46
-5863
-5863.02
-5863.06
-5863.11
-5863.18
-5863.27
-5863.37
-5863.49
-5863.61
-5863.75
-5863.88
-5864.02
-5864.15
-5864.27
-5864.38
-5864.46
-5864.53
-5864.58
-5864.61
-5864.61
-5864.58
-5864.53
-5864.45
-5864.34
-5864.21
-5864.05
-5863.88
-5863.68
-5863.46
-5863.23
-5863
-5862.76
-5862.51
-5862.25
-5862
-5861.74
-5861.47
-5861.21
-5860.95
-5860.69
-5860.43
-5860.17
-5859.91
-5859.66
-5859.41
-5859.17
-5858.93
-5858.7
-5858.48
-5858.27
-5858.08
-5857.89
-5857.72
-5857.56
-5857.42
-5857.3
-5857.19
-5857.11
-5857.04
-5857
-5856.98
-5856.98
-5857
-5857.04
-5857.11
-5857.2
-5857.3
-5857.43
-5857.57
-5857.73
-5857.9
-5858.09
-5858.28
-5858.48
-5858.68
-5858.88
-5859.08
-5859.27
-5859.45
-5859.62
-5859.77
-5859.9
-5860.01
-5860.09
-5860.15
-5860.18
-5860.17
-5860.14
-5860.08
-5859.99
-5859.86
-5859.71
-5859.54
-5859.35
-5859.14
-5858.91
-5858.68
-5858.45
-5858.23
-5858.01
-5857.8
-5857.62
-5857.47
-5857.34
-5857.25
-5857.19
-5857.18
-5857.2
-5857.26
-5857.36
-5857.5
-5857.66
-5857.85
-5858.06
-5858.28
-5858.5
-5858.72
-5858.92
-5859.1
-5859.25
-5859.37
-5859.45
-5859.48
-5859.47
-5859.42
-5859.33
-5859.2
-5859.04
-5858.86
-5858.67
-5858.47
-5858.29
-5858.12
-5857.98
-5857.88
-5857.81
-5857.79
-5857.81
-5857.88
-5857.98
-5858.11
-5858.26
-5858.41
-5858.57
-5858.71
-5858.83
-5858.92
-5858.97
-5858.98
-5858.95
-5858.89
-5858.81
-5858.7
-5858.59
-5858.49
-5858.4
-5858.33
-5858.29
-5858.28
-5858.3
-5858.35
-5858.41
-5858.49
-5858.56
-5858.63
-5858.68
-5858.71
-5858.71
-5858.69
-5858.65
-5858.59
-5858.53
-5858.46
-5858.4
-5858.35
-5858.32
-5858.3
-5858.31
-5858.34
-5858.38
-5858.43
-5858.49
-5858.55
-5858.61
-5858.66
-5858.7
-5858.72
-5858.73
-5858.73
-5858.71
-5858.68
-5858.65
-5858.61
-5858.57
-5858.53
-5858.49
-5858.46
-5858.43
-5858.41
-5858.4
-6422.31
-6422.34
-6422.41
-6422.52
-6422.67
-6422.85
-6423.07
-6423.32
-6423.6
-6423.89
-6424.16
-6424.42
-6424.65
-6424.86
-6425.05
-6425.2
-6425.32
-6425.41
-6425.46
-6425.47
-6425.45
-6425.39
-6425.29
-6425.15
-6424.96
-6424.74
-6424.47
-6424.18
-6423.87
-6423.55
-6423.24
-6422.92
-6422.61
-6422.3
-6421.99
-6421.68
-6421.37
-6421.07
-6420.76
-6420.45
-6420.15
-6419.85
-6419.55
-6419.25
-6418.97
-6418.68
-6418.41
-6418.15
-6417.89
-6417.65
-6417.42
-6417.21
-6417.01
-6416.83
-6416.67
-6416.54
-6416.42
-6416.33
-6416.27
-6416.23
-6416.22
-6416.23
-6416.27
-6416.34
-6416.44
-6416.56
-6416.7
-6416.87
-6417.06
-6417.27
-6417.5
-6417.73
-6417.98
-6418.24
-6418.5
-6418.76
-6419.01
-6419.25
-6419.48
-6419.69
-6419.89
-6420.05
-6420.19
-6420.29
-6420.36
-6420.4
-6420.39
-6420.35
-6420.27
-6420.15
-6420
-6419.81
-6419.59
-6419.35
-6419.09
-6418.81
-6418.52
-6418.23
-6417.95
-6417.68
-6417.43
-6417.2
-6417.01
-6416.86
-6416.75
-6416.69
-6416.68
-6416.71
-6416.79
-6416.93
-6417.1
-6417.31
-6417.55
-6417.81
-6418.09
-6418.36
-6418.63
-6418.89
-6419.11
-6419.3
-6419.44
-6419.53
-6419.57
-6419.55
-6419.48
-6419.36
-6419.19
-6418.99
-6418.76
-6418.52
-6418.27
-6418.04
-6417.84
-6417.66
-6417.54
-6417.46
-6417.44
-6417.48
-6417.56
-6417.69
-6417.86
-6418.05
-6418.25
-6418.44
-6418.62
-6418.76
-6418.87
-6418.92
-6418.93
-6418.89
-6418.81
-6418.7
-6418.56
-6418.42
-6418.29
-6418.18
-6418.09
-6418.05
-6418.04
-6418.07
-6418.14
-6418.22
-6418.31
-6418.41
-6418.49
-6418.55
-6418.59
-6418.59
-6418.56
-6418.51
-6418.44
-6418.36
-6418.28
-6418.21
-6418.15
-6418.11
-6418.1
-6418.11
-6418.14
-6418.19
-6418.25
-6418.32
-6418.39
-6418.46
-6418.51
-6418.55
-6418.58
-6418.59
-6418.58
-6418.56
-6418.53
-6418.49
-6418.45
-6418.4
-6418.35
-6418.31
-6418.28
-6418.25
-6418.23
-6418.22
-6917.31
-6917.36
-6917.47
-6917.64
-6917.86
-6918.13
-6918.46
-6918.83
-6919.29
-6919.76
-6920.22
-6920.66
-6921.06
-6921.44
-6921.77
-6922.05
-6922.28
-6922.46
-6922.58
-6922.63
-6922.62
-6922.55
-6922.41
-6922.21
-6921.95
-6921.64
-6921.27
-6920.84
-6920.43
-6920.02
-6919.61
-6919.22
-6918.83
-6918.45
-6918.08
-6917.71
-6917.35
-6916.99
-6916.64
-6916.29
-6915.94
-6915.6
-6915.26
-6914.93
-6914.6
-6914.28
-6913.96
-6913.66
-6913.37
-6913.09
-6912.83
-6912.59
-6912.37
-6912.16
-6911.99
-6911.84
-6911.71
-6911.62
-6911.55
-6911.52
-6911.51
-6911.55
-6911.61
-6911.7
-6911.83
-6911.99
-6912.18
-6912.4
-6912.64
-6912.9
-6913.18
-6913.48
-6913.79
-6914.11
-6914.43
-6914.75
-6915.06
-6915.36
-6915.65
-6915.91
-6916.14
-6916.35
-6916.51
-6916.64
-6916.73
-6916.77
-6916.76
-6916.7
-6916.6
-6916.46
-6916.26
-6916.03
-6915.77
-6915.47
-6915.15
-6914.81
-6914.46
-6914.1
-6913.76
-6913.43
-6913.13
-6912.86
-6912.63
-6912.45
-6912.32
-6912.25
-6912.24
-6912.29
-6912.4
-6912.57
-6912.78
-6913.04
-6913.34
-6913.66
-6914
-6914.34
-6914.67
-6914.97
-6915.24
-6915.47
-6915.63
-6915.74
-6915.78
-6915.75
-6915.66
-6915.51
-6915.3
-6915.05
-6914.76
-6914.47
-6914.17
-6913.89
-6913.64
-6913.43
-6913.28
-6913.19
-6913.18
-6913.22
-6913.33
-6913.5
-6913.71
-6913.94
-6914.18
-6914.42
-6914.63
-6914.81
-6914.93
-6914.99
-6915
-6914.94
-6914.84
-6914.69
-6914.53
-6914.35
-6914.19
-6914.05
-6913.95
-6913.9
-6913.9
-6913.94
-6914.02
-6914.13
-6914.25
-6914.37
-6914.46
-6914.54
-6914.58
-6914.58
-6914.54
-6914.48
-6914.4
-6914.3
-6914.2
-6914.12
-6914.05
-6914.01
-6913.99
-6914
-6914.04
-6914.1
-6914.17
-6914.25
-6914.33
-6914.4
-6914.47
-6914.51
-6914.54
-6914.55
-6914.54
-6914.52
-6914.48
-6914.44
-6914.39
-6914.33
-6914.28
-6914.24
-6914.2
-6914.17
-6914.15
-6914.14
-7355.16
-7355.24
-7355.42
-7355.71
-7356.11
-7356.65
-7357.36
-7358.18
-7359.63
-7360.49
-7361.25
-7361.92
-7362.47
-7362.94
-7363.31
-7363.61
-7363.84
-7364
-7364.09
-7364.12
-7364.09
-7363.98
-7363.79
-7363.51
-7363.12
-7362.62
-7362.02
-7360.91
-7360.28
-7359.69
-7359.17
-7358.71
-7358.28
-7357.86
-7357.46
-7357.06
-7356.67
-7356.28
-7355.89
-7355.5
-7355.12
-7354.74
-7354.36
-7353.98
-7353.61
-7353.25
-7352.9
-7352.56
-7352.23
-7351.91
-7351.62
-7351.34
-7351.09
-7350.87
-7350.67
-7350.5
-7350.37
-7350.27
-7350.2
-7350.17
-7350.18
-7350.23
-7350.32
-7350.44
-7350.6
-7350.8
-7351.04
-7351.3
-7351.6
-7351.92
-7352.27
-7352.63
-7353.01
-7353.39
-7353.78
-7354.17
-7354.54
-7354.9
-7355.24
-7355.56
-7355.84
-7356.08
-7356.28
-7356.43
-7356.53
-7356.57
-7356.56
-7356.49
-7356.37
-7356.19
-7355.96
-7355.68
-7355.36
-7355
-7354.61
-7354.21
-7353.79
-7353.37
-7352.96
-7352.57
-7352.21
-7351.9
-7351.63
-7351.42
-7351.27
-7351.19
-7351.18
-7351.25
-7351.39
-7351.59
-7351.85
-7352.17
-7352.53
-7352.92
-7353.32
-7353.72
-7354.11
-7354.48
-7354.8
-7355.06
-7355.25
-7355.37
-7355.42
-7355.38
-7355.26
-7355.07
-7354.81
-7354.51
-7354.17
-7353.81
-7353.46
-7353.12
-7352.83
-7352.58
-7352.41
-7352.31
-7352.3
-7352.36
-7352.5
-7352.7
-7352.95
-7353.23
-7353.53
-7353.81
-7354.06
-7354.26
-7354.41
-7354.48
-7354.47
-7354.4
-7354.27
-7354.09
-7353.89
-7353.67
-7353.48
-7353.32
-7353.2
-7353.15
-7353.15
-7353.21
-7353.31
-7353.44
-7353.58
-7353.72
-7353.84
-7353.93
-7353.97
-7353.97
-7353.93
-7353.85
-7353.75
-7353.64
-7353.53
-7353.43
-7353.35
-7353.3
-7353.28
-7353.3
-7353.34
-7353.41
-7353.49
-7353.58
-7353.67
-7353.76
-7353.82
-7353.87
-7353.9
-7353.91
-7353.9
-7353.87
-7353.83
-7353.78
-7353.73
-7353.67
-7353.62
-7353.57
-7353.53
-7353.5
-7353.47
-7353.46
-7742.13
-7742.24
-7742.48
-7742.86
-7743.4
-7744.16
-7745.19
-7746.66
-7748.87
-7749.6
-7750.42
-7751.21
-7751.91
-7752.53
-7753.07
-7753.51
-7753.87
-7754.13
-7754.3
-7754.38
-7754.36
-7754.25
-7754.03
-7753.71
-7753.29
-7752.77
-7752.3
-7750.85
-7749.98
-7749.24
-7748.61
-7748.05
-7747.55
-7747.08
-7746.64
-7746.21
-7745.8
-7745.38
-7744.97
-7744.55
-7744.14
-7743.72
-7743.3
-7742.89
-7742.48
-7742.07
-7741.68
-7741.29
-7740.92
-7740.57
-7740.24
-7739.93
-7739.65
-7739.4
-7739.18
-7739
-7738.85
-7738.74
-7738.68
-7738.66
-7738.68
-7738.74
-7738.86
-7739.01
-7739.21
-7739.45
-7739.74
-7740.06
-7740.41
-7740.79
-7741.21
-7741.64
-7742.08
-7742.54
-7743
-7743.45
-7743.89
-7744.32
-7744.71
-7745.08
-7745.41
-7745.69
-7745.92
-7746.09
-7746.2
-7746.25
-7746.24
-7746.15
-7746.01
-7745.79
-7745.52
-7745.19
-7744.81
-7744.39
-7743.93
-7743.46
-7742.97
-7742.48
-7742
-7741.55
-7741.13
-7740.76
-7740.46
-7740.21
-7740.05
-7739.96
-7739.96
-7740.04
-7740.21
-7740.45
-7740.77
-7741.14
-7741.56
-7742.02
-7742.49
-7742.97
-7743.42
-7743.85
-7744.21
-7744.52
-7744.74
-7744.88
-7744.92
-7744.87
-7744.72
-7744.49
-7744.19
-7743.83
-7743.43
-7743.01
-7742.59
-7742.2
-7741.86
-7741.58
-7741.38
-7741.27
-7741.26
-7741.34
-7741.51
-7741.75
-7742.05
-7742.38
-7742.73
-7743.06
-7743.35
-7743.58
-7743.74
-7743.82
-7743.81
-7743.72
-7743.56
-7743.34
-7743.1
-7742.84
-7742.62
-7742.43
-7742.3
-7742.24
-7742.25
-7742.32
-7742.44
-7742.6
-7742.77
-7742.93
-7743.07
-7743.17
-7743.22
-7743.22
-7743.17
-7743.08
-7742.96
-7742.83
-7742.7
-7742.59
-7742.5
-7742.44
-7742.43
-7742.44
-7742.5
-7742.57
-7742.67
-7742.77
-7742.87
-7742.96
-7743.03
-7743.09
-7743.12
-7743.12
-7743.11
-7743.08
-7743.03
-7742.98
-7742.92
-7742.86
-7742.8
-7742.75
-7742.7
-7742.67
-7742.65
-7742.64
-8083.85
-8083.88
-8083.93
-8084.01
-8084.1
-8084.21
-8084.16
-8084.38
-8093.08
-8092.82
-8092.78
-8092.55
-8092.3
-8091.99
-8091.65
-8091.28
-8090.89
-8090.48
-8090.06
-8089.63
-8089.19
-8088.74
-8088.29
-8087.83
-8087.38
-8086.92
-8086.48
-8086.04
-8085.61
-8085.2
-8084.81
-8084.44
-8084.1
-8083.79
-8083.51
-8083.27
-8083.07
-8082.91
-8082.79
-8082.73
-8082.71
-8082.74
-8082.83
-8082.97
-8083.15
-8083.39
-8083.68
-8084.01
-8084.39
-8084.8
-8085.25
-8085.73
-8086.23
-8086.74
-8087.27
-8087.8
-8088.32
-8088.83
-8089.32
-8089.78
-8090.2
-8090.58
-8090.9
-8091.16
-8091.36
-8091.48
-8091.54
-8091.51
-8091.41
-8091.24
-8090.99
-8090.67
-8090.29
-8089.85
-8089.36
-8088.84
-8088.29
-8087.72
-8087.16
-8086.61
-8086.1
-8085.62
-8085.2
-8084.85
-8084.58
-8084.39
-8084.3
-8084.3
-8084.4
-8084.6
-8084.89
-8085.25
-8085.69
-8086.18
-8086.71
-8087.25
-8087.8
-8088.32
-8088.8
-8089.22
-8089.57
-8089.82
-8089.97
-8090.01
-8089.94
-8089.77
-8089.5
-8089.14
-8088.72
-8088.26
-8087.78
-8087.3
-8086.85
-8086.46
-8086.14
-8085.92
-8085.8
-8085.79
-8085.89
-8086.09
-8086.38
-8086.73
-8087.11
-8087.51
-8087.89
-8088.22
-8088.49
-8088.67
-8088.75
-8088.73
-8088.61
-8088.42
-8088.17
-8087.89
-8087.59
-8087.33
-8087.12
-8086.97
-8086.91
-8086.92
-8087.01
-8087.15
-8087.34
-8087.54
-8087.73
-8087.88
-8088
-8088.05
-8088.05
-8087.99
-8087.88
-8087.75
-8087.6
-8087.45
-8087.32
-8087.23
-8087.17
-8087.15
-8087.17
-8087.23
-8087.32
-8087.42
-8087.53
-8087.64
-8087.74
-8087.82
-8087.88
-8087.91
-8087.92
-8087.9
-8087.86
-8087.81
-8087.75
-8087.69
-8087.62
-8087.56
-8087.51
-8087.46
-8087.43
-8087.4
-8087.39
-8386.56
-8386.58
-8386.62
-8386.68
-8386.75
-8386.86
-8386.9
-8387.11
-8398.67
-8398.37
-8398.24
-8397.98
-8397.69
-8397.38
-8397.04
-8396.67
-8396.28
-8395.86
-8395.43
-8394.97
-8394.5
-8394.02
-8393.53
-8393.04
-8392.54
-8392.04
-8391.55
-8391.07
-8390.6
-8390.14
-8389.71
-8389.3
-8388.92
-8388.58
-8388.27
-8388.01
-8387.79
-8387.62
-8387.5
-8387.43
-8387.42
-8387.47
-8387.57
-8387.74
-8387.96
-8388.23
-8388.56
-8388.95
-8389.38
-8389.85
-8390.37
-8390.91
-8391.48
-8392.07
-8392.67
-8393.27
-8393.87
-8394.44
-8395
-8395.52
-8395.99
-8396.41
-8396.77
-8397.07
-8397.29
-8397.43
-8397.48
-8397.45
-8397.34
-8397.13
-8396.85
-8396.48
-8396.04
-8395.54
-8394.99
-8394.39
-8393.77
-8393.13
-8392.5
-8391.88
-8391.3
-8390.76
-8390.29
-8389.9
-8389.59
-8389.39
-8389.29
-8389.3
-8389.42
-8389.65
-8389.98
-8390.4
-8390.9
-8391.46
-8392.06
-8392.68
-8393.29
-8393.88
-8394.43
-8394.9
-8395.28
-8395.56
-8395.72
-8395.76
-8395.68
-8395.48
-8395.16
-8394.76
-8394.28
-8393.75
-8393.2
-8392.66
-8392.15
-8391.71
-8391.36
-8391.11
-8390.99
-8390.98
-8391.1
-8391.34
-8391.67
-8392.06
-8392.5
-8392.95
-8393.38
-8393.76
-8394.05
-8394.25
-8394.33
-8394.31
-8394.17
-8393.95
-8393.66
-8393.33
-8393
-8392.7
-8392.46
-8392.3
-8392.23
-8392.25
-8392.36
-8392.53
-8392.74
-8392.96
-8393.18
-8393.36
-8393.48
-8393.54
-8393.53
-8393.46
-8393.34
-8393.19
-8393.03
-8392.86
-8392.72
-8392.61
-8392.55
-8392.53
-8392.56
-8392.62
-8392.72
-8392.83
-8392.96
-8393.08
-8393.18
-8393.27
-8393.33
-8393.36
-8393.36
-8393.35
-8393.31
-8393.25
-8393.18
-8393.12
-8393.05
-8392.98
-8392.92
-8392.88
-8392.84
-8392.81
-8392.8
-8654.64
-8654.65
-8654.67
-8654.7
-8654.74
-8654.79
-8654.79
-8654.89
-8668.99
-8668.8
-8668.71
-8668.51
-8668.26
-8667.96
-8667.63
-8667.26
-8666.86
-8666.42
-8665.97
-8665.49
-8664.98
-8664.47
-8663.94
-8663.4
-8662.86
-8662.31
-8661.78
-8661.25
-8660.73
-8660.24
-8659.76
-8659.32
-8658.9
-8658.53
-8658.19
-8657.9
-8657.67
-8657.48
-8657.36
-8657.29
-8657.28
-8657.34
-8657.47
-8657.66
-8657.91
-8658.22
-8658.6
-8659.03
-8659.52
-8660.05
-8660.63
-8661.24
-8661.88
-8662.55
-8663.22
-8663.89
-8664.56
-8665.2
-8665.82
-8666.4
-8666.92
-8667.39
-8667.8
-8668.12
-8668.36
-8668.51
-8668.57
-8668.53
-8668.4
-8668.17
-8667.84
-8667.43
-8666.94
-8666.38
-8665.76
-8665.09
-8664.39
-8663.68
-8662.97
-8662.28
-8661.63
-8661.04
-8660.52
-8660.08
-8659.75
-8659.52
-8659.42
-8659.44
-8659.58
-8659.84
-8660.22
-8660.69
-8661.25
-8661.88
-8662.55
-8663.24
-8663.93
-8664.59
-8665.19
-8665.71
-8666.14
-8666.44
-8666.62
-8666.66
-8666.55
-8666.32
-8665.97
-8665.51
-8664.97
-8664.37
-8663.76
-8663.15
-8662.59
-8662.1
-8661.71
-8661.44
-8661.31
-8661.31
-8661.46
-8661.72
-8662.09
-8662.54
-8663.04
-8663.54
-8664.02
-8664.43
-8664.76
-8664.97
-8665.06
-8665.02
-8664.87
-8664.61
-8664.28
-8663.91
-8663.54
-8663.21
-8662.94
-8662.77
-8662.69
-8662.72
-8662.85
-8663.04
-8663.28
-8663.53
-8663.77
-8663.97
-8664.1
-8664.17
-8664.16
-8664.08
-8663.94
-8663.78
-8663.59
-8663.41
-8663.26
-8663.14
-8663.07
-8663.05
-8663.08
-8663.16
-8663.26
-8663.39
-8663.52
-8663.65
-8663.76
-8663.85
-8663.92
-8663.95
-8663.95
-8663.93
-8663.89
-8663.83
-8663.76
-8663.68
-8663.61
-8663.54
-8663.48
-8663.43
-8663.39
-8663.37
-8663.35
-8892.07
-8892.08
-8892.09
-8892.11
-8892.13
-8892.16
-8892.16
-8892.2
-8908.69
-8908.54
-8908.45
-8908.26
-8908.02
-8907.73
-8907.39
-8907.01
-8906.6
-8906.14
-8905.66
-8905.15
-8904.61
-8904.05
-8903.48
-8902.9
-8902.31
-8901.73
-8901.14
-8900.57
-8900.01
-8899.46
-8898.95
-8898.46
-8898.01
-8897.61
-8897.24
-8896.93
-8896.68
-8896.48
-8896.35
-8896.28
-8896.28
-8896.35
-8896.5
-8896.71
-8897
-8897.35
-8897.77
-8898.25
-8898.79
-8899.39
-8900.03
-8900.71
-8901.42
-8902.15
-8902.89
-8903.63
-8904.37
-8905.08
-8905.76
-8906.39
-8906.98
-8907.49
-8907.93
-8908.28
-8908.55
-8908.71
-8908.77
-8908.72
-8908.57
-8908.31
-8907.95
-8907.49
-8906.94
-8906.32
-8905.63
-8904.9
-8904.13
-8903.34
-8902.56
-8901.8
-8901.09
-8900.44
-8899.86
-8899.39
-8899.03
-8898.79
-8898.68
-8898.7
-8898.87
-8899.16
-8899.58
-8900.11
-8900.73
-8901.42
-8902.16
-8902.93
-8903.69
-8904.41
-8905.07
-8905.65
-8906.11
-8906.44
-8906.62
-8906.66
-8906.54
-8906.28
-8905.88
-8905.37
-8904.77
-8904.11
-8903.43
-8902.77
-8902.15
-8901.61
-8901.19
-8900.9
-8900.76
-8900.77
-8900.93
-8901.23
-8901.65
-8902.14
-8902.69
-8903.25
-8903.77
-8904.23
-8904.58
-8904.81
-8904.91
-8904.86
-8904.68
-8904.39
-8904.02
-8903.61
-8903.2
-8902.83
-8902.54
-8902.35
-8902.28
-8902.31
-8902.45
-8902.67
-8902.94
-8903.22
-8903.48
-8903.7
-8903.85
-8903.91
-8903.9
-8903.81
-8903.66
-8903.48
-8903.28
-8903.08
-8902.91
-8902.79
-8902.71
-8902.7
-8902.73
-8902.81
-8902.92
-8903.06
-8903.2
-8903.34
-8903.46
-8903.55
-8903.62
-8903.65
-8903.66
-8903.63
-8903.58
-8903.52
-8903.45
-8903.37
-8903.29
-8903.22
-8903.16
-8903.1
-8903.06
-8903.04
-8903.02
-9102.4
-9102.4
-9102.41
-9102.42
-9102.43
-9102.45
-9102.45
-9102.47
-9121.16
-9121.02
-9120.92
-9120.73
-9120.49
-9120.19
-9119.85
-9119.45
-9119.01
-9118.53
-9118.02
-9117.48
-9116.9
-9116.31
-9115.69
-9115.07
-9114.43
-9113.8
-9113.17
-9112.55
-9111.94
-9111.36
-9110.8
-9110.28
-9109.79
-9109.35
-9108.97
-9108.63
-9108.36
-9108.15
-9108.01
-9107.94
-9107.95
-9108.03
-9108.19
-9108.43
-9108.75
-9109.14
-9109.6
-9110.13
-9110.73
-9111.38
-9112.08
-9112.82
-9113.6
-9114.4
-9115.21
-9116.02
-9116.82
-9117.6
-9118.34
-9119.03
-9119.66
-9120.22
-9120.7
-9121.08
-9121.37
-9121.54
-9121.6
-9121.55
-9121.37
-9121.09
-9120.69
-9120.18
-9119.58
-9118.9
-9118.15
-9117.35
-9116.5
-9115.65
-9114.8
-9113.97
-9113.19
-9112.49
-9111.87
-9111.35
-9110.96
-9110.7
-9110.59
-9110.63
-9110.81
-9111.13
-9111.6
-9112.18
-9112.86
-9113.62
-9114.43
-9115.26
-9116.09
-9116.88
-9117.6
-9118.22
-9118.72
-9119.07
-9119.27
-9119.3
-9119.17
-9118.87
-9118.43
-9117.87
-9117.21
-9116.49
-9115.75
-9115.03
-9114.35
-9113.77
-9113.31
-9113
-9112.85
-9112.87
-9113.06
-9113.39
-9113.85
-9114.39
-9114.99
-9115.6
-9116.17
-9116.67
-9117.05
-9117.3
-9117.39
-9117.33
-9117.13
-9116.81
-9116.4
-9115.95
-9115.5
-9115.1
-9114.79
-9114.59
-9114.51
-9114.55
-9114.71
-9114.95
-9115.25
-9115.55
-9115.84
-9116.07
-9116.23
-9116.3
-9116.28
-9116.18
-9116.02
-9115.82
-9115.6
-9115.39
-9115.21
-9115.08
-9115
-9114.98
-9115.02
-9115.11
-9115.23
-9115.38
-9115.53
-9115.67
-9115.8
-9115.9
-9115.97
-9116
-9116.01
-9115.98
-9115.93
-9115.86
-9115.78
-9115.7
-9115.62
-9115.54
-9115.48
-9115.42
-9115.38
-9115.36
-9115.34
-9288.71
-9288.71
-9288.72
-9288.72
-9288.73
-9288.74
-9288.74
-9288.75
-9309.44
-9309.32
-9309.21
-9309.02
-9308.77
-9308.46
-9308.1
-9307.68
-9307.22
-9306.72
-9306.17
-9305.59
-9304.98
-9304.34
-9303.69
-9303.02
-9302.34
-9301.66
-9300.98
-9300.32
-9299.67
-9299.04
-9298.44
-9297.88
-9297.36
-9296.89
-9296.48
-9296.12
-9295.83
-9295.61
-9295.47
-9295.4
-9295.41
-9295.5
-9295.69
-9295.95
-9296.29
-9296.72
-9297.22
-9297.8
-9298.45
-9299.15
-9299.91
-9300.72
-9301.56
-9302.43
-9303.3
-9304.18
-9305.05
-9305.88
-9306.68
-9307.43
-9308.11
-9308.71
-9309.22
-9309.63
-9309.93
-9310.12
-9310.18
-9310.11
-9309.92
-9309.61
-9309.17
-9308.63
-9307.98
-9307.24
-9306.42
-9305.55
-9304.64
-9303.72
-9302.8
-9301.91
-9301.07
-9300.31
-9299.64
-9299.09
-9298.68
-9298.4
-9298.29
-9298.33
-9298.53
-9298.89
-9299.39
-9300.02
-9300.76
-9301.58
-9302.46
-9303.36
-9304.26
-9305.1
-9305.88
-9306.54
-9307.08
-9307.46
-9307.66
-9307.69
-9307.54
-9307.22
-9306.74
-9306.13
-9305.41
-9304.63
-9303.83
-9303.05
-9302.33
-9301.7
-9301.21
-9300.88
-9300.72
-9300.75
-9300.95
-9301.32
-9301.82
-9302.41
-9303.06
-9303.72
-9304.33
-9304.87
-9305.28
-9305.54
-9305.64
-9305.56
-9305.34
-9304.98
-9304.54
-9304.05
-9303.57
-9303.14
-9302.8
-9302.58
-9302.5
-9302.56
-9302.73
-9303
-9303.32
-9303.65
-9303.96
-9304.21
-9304.38
-9304.45
-9304.43
-9304.32
-9304.14
-9303.93
-9303.69
-9303.47
-9303.28
-9303.14
-9303.06
-9303.04
-9303.08
-9303.18
-9303.31
-9303.46
-9303.62
-9303.77
-9303.91
-9304.01
-9304.08
-9304.12
-9304.12
-9304.09
-9304.03
-9303.96
-9303.88
-9303.79
-9303.71
-9303.63
-9303.56
-9303.51
-9303.47
-9303.44
-9303.42
-9453.75
-9453.75
-9453.75
-9453.76
-9453.76
-9453.77
-9453.77
-9453.78
-9476.31
-9476.18
-9476.06
-9475.87
-9475.61
-9475.29
-9474.91
-9474.47
-9473.98
-9473.45
-9472.87
-9472.25