/*--------------------------------*- C++ -*----------------------------------*\
  =========                 |
  \\      /  F ield         | OpenFOAM: The Open Source CFD Toolbox
   \\    /   O peration     | Website:  https://openfoam.org
    \\  /    A nd           | Version:  12
     \\/     M anipulation  |
\*---------------------------------------------------------------------------*/
FoamFile
{
    format      ascii;
    class       volVectorField;
    location    "9.18";
    object      zeta;
}
// * * * * * * * * * * * * * * * * * * * * * * * * * * * * * * * * * * * * * //

dimensions      [0 1 0 0 0 0 0];

internalField   uniform (0 0 0);

boundaryField
{
    freeSurface
    {
        type            calculated;
        value           nonuniform List<vector> 
181
(
(0 0.00200929 0)
(0 0.00200848 0)
(0 0.00200826 0)
(0 0.00200803 0)
(0 0.00200796 0)
(0 0.00200759 0)
(0 0.00200787 0)
(0 0.00200719 0)
(0 -0.000694716 0)
(0 -0.000678998 0)
(0 -0.000666079 0)
(0 -0.000643746 0)
(0 -0.000614666 0)
(0 -0.000576311 0)
(0 -0.000532921 0)
(0 -0.000481226 0)
(0 -0.000424695 0)
(0 -0.000362131 0)
(0 -0.000294924 0)
(0 -0.000223187 0)
(0 -0.00014756 0)
(0 -6.86932e-05 0)
(0 1.29122e-05 0)
(0 9.62818e-05 0)
(0 0.000180642 0)
(0 0.000265267 0)
(0 0.000349336 0)
(0 0.000432121 0)
(0 0.000512823 0)
(0 0.000590651 0)
(0 0.000664712 0)
(0 0.000734199 0)
(0 0.000798259 0)
(0 0.00085607 0)
(0 0.000907002 0)
(0 0.000950265 0)
(0 0.000985321 0)
(0 0.00101148 0)
(0 0.00102826 0)
(0 0.00103522 0)
(0 0.00103208 0)
(0 0.00101858 0)
(0 0.000994607 0)
(0 0.000960181 0)
(0 0.000915424 0)
(0 0.000860543 0)
(0 0.000795993 0)
(0 0.000722272 0)
(0 0.000640091 0)
(0 0.00055028 0)
(0 0.000453784 0)
(0 0.000351777 0)
(0 0.000245505 0)
(0 0.000136406 0)
(0 2.59686e-05 0)
(0 -8.43429e-05 0)
(0 -0.000192844 0)
(0 -0.000297819 0)
(0 -0.00039759 0)
(0 -0.000490539 0)
(0 -0.000575022 0)
(0 -0.000649568 0)
(0 -0.000712634 0)
(0 -0.000762871 0)
(0 -0.000799397 0)
(0 -0.000821032 0)
(0 -0.000827385 0)
(0 -0.000817796 0)
(0 -0.000792379 0)
(0 -0.000751357 0)
(0 -0.000695391 0)
(0 -0.00062534 0)
(0 -0.000542563 0)
(0 -0.000448703 0)
(0 -0.000345649 0)
(0 -0.000235647 0)
(0 -0.000121196 0)
(0 -4.9437e-06 0)
(0 0.000110262 0)
(0 0.000221473 0)
(0 0.000325857 0)
(0 0.000420526 0)
(0 0.000502916 0)
(0 0.000570538 0)
(0 0.000621457 0)
(0 0.000653885 0)
(0 0.00066679 0)
(0 0.000659561 0)
(0 0.000632278 0)
(0 0.000585617 0)
(0 0.00052095 0)
(0 0.000440348 0)
(0 0.000346303 0)
(0 0.00024208 0)
(0 0.000131368 0)
(0 1.80104e-05 0)
(0 -9.37414e-05 0)
(0 -0.000199749 0)
(0 -0.000295868 0)
(0 -0.000378294 0)
(0 -0.000443706 0)
(0 -0.000489368 0)
(0 -0.000513489 0)
(0 -0.000514907 0)
(0 -0.000493806 0)
(0 -0.000451125 0)
(0 -0.000389078 0)
(0 -0.000310687 0)
(0 -0.000219989 0)
(0 -0.000121585 0)
(0 -2.06445e-05 0)
(0 7.74747e-05 0)
(0 0.000167656 0)
(0 0.000244986 0)
(0 0.000305238 0)
(0 0.000345177 0)
(0 0.000362723 0)
(0 0.000357221 0)
(0 0.000329454 0)
(0 0.000281642 0)
(0 0.000217379 0)
(0 0.000141384 0)
(0 5.92045e-05 0)
(0 -2.32803e-05 0)
(0 -0.000100238 0)
(0 -0.000166175 0)
(0 -0.000216434 0)
(0 -0.000247606 0)
(0 -0.000257718 0)
(0 -0.000246717 0)
(0 -0.000216308 0)
(0 -0.000169967 0)
(0 -0.000112652 0)
(0 -5.03452e-05 0)
(0 1.0599e-05 0)
(0 6.44701e-05 0)
(0 0.00010614 0)
(0 0.000132053 0)
(0 0.000140537 0)
(0 0.00013188 0)
(0 0.000108335 0)
(0 7.36369e-05 0)
(0 3.25402e-05 0)
(0 -9.71062e-06 0)
(0 -4.82577e-05 0)
(0 -7.90823e-05 0)
(0 -9.92485e-05 0)
(0 -0.000107348 0)
(0 -0.000103476 0)
(0 -8.90686e-05 0)
(0 -6.66233e-05 0)
(0 -3.92864e-05 0)
(0 -1.04244e-05 0)
(0 1.67426e-05 0)
(0 3.95907e-05 0)
(0 5.61232e-05 0)
(0 6.52262e-05 0)
(0 6.66435e-05 0)
(0 6.09038e-05 0)
(0 4.91999e-05 0)
(0 3.31994e-05 0)
(0 1.47856e-05 0)
(0 -4.16262e-06 0)
(0 -2.19968e-05 0)
(0 -3.73196e-05 0)
(0 -4.91321e-05 0)
(0 -5.68827e-05 0)
(0 -6.04259e-05 0)
(0 -5.99991e-05 0)
(0 -5.6125e-05 0)
(0 -4.94815e-05 0)
(0 -4.09622e-05 0)
(0 -3.13944e-05 0)
(0 -2.15286e-05 0)
(0 -1.20404e-05 0)
(0 -3.42855e-06 0)
(0 3.96982e-06 0)
(0 9.95859e-06 0)
(0 1.44575e-05 0)
(0 1.74535e-05 0)
(0 1.89555e-05 0)
)
;
    }
    walls
    {
        type            calculated;
        value           uniform (0 0 0);
    }
    floatingObject
    {
        type            calculated;
        value           uniform (0 0 0);
    }
    frontAndBack
    {
        type            empty;
    }
}


// ************************************************************************* //
