/*--------------------------------*- C++ -*----------------------------------*\
  =========                 |
  \\      /  F ield         | OpenFOAM: The Open Source CFD Toolbox
   \\    /   O peration     | Website:  https://openfoam.org
    \\  /    A nd           | Version:  12
     \\/     M anipulation  |
\*---------------------------------------------------------------------------*/
FoamFile
{
    format      ascii;
    class       volScalarField;
    location    "8.78";
    object      p_rgh;
}
// * * * * * * * * * * * * * * * * * * * * * * * * * * * * * * * * * * * * * //

dimensions      [1 -1 -2 0 0 0 0];

internalField   nonuniform List<scalar> 
3829
(
2.0593
2.05852
2.05695
2.05454
2.05128
2.04713
2.04208
2.03608
2.02911
2.02114
2.01214
2.00209
1.99095
1.97868
1.96527
1.95068
1.93488
1.91783
1.89952
1.87989
1.85893
1.8366
1.81287
1.7877
1.76106
1.73293
1.70327
1.67206
1.63926
1.60486
1.56884
1.53116
1.49183
1.45083
1.40816
1.36381
1.3178
1.27021
1.22107
1.1704
1.11829
1.0648
1.01004
0.954106
0.897139
0.839283
0.780704
0.721585
0.662129
0.602558
0.54311
0.484043
0.42563
0.368156
0.31192
0.257228
0.204404
0.153763
0.105626
0.0603026
0.0180976
-0.0206873
-0.0557729
-0.0868992
-0.113838
-0.136391
-0.154414
-0.167793
-0.176476
-0.180461
-0.179687
-0.174022
-0.163972
-0.149743
-0.131624
-0.109964
-0.0851744
-0.057709
-0.0281076
0.00304817
0.0351471
0.0675323
0.099518
0.130409
0.159509
0.186142
0.209652
0.229432
0.244949
0.255748
0.261471
0.261119
0.254885
0.242889
0.225328
0.202477
0.174698
0.142482
0.106466
0.0674254
0.026261
-0.0160432
-0.0584258
-0.0997579
-0.138965
-0.174921
-0.206587
-0.233014
-0.253387
-0.26706
-0.273602
-0.272821
-0.26432
-0.248664
-0.226413
-0.198292
-0.165281
-0.128577
-0.0895445
-0.0496015
-0.0104236
0.0265298
0.059789
0.0880419
0.110182
0.125398
0.133218
0.132126
0.123471
0.107857
0.0860979
0.0593594
0.0290964
-0.00305061
-0.035505
-0.0661941
-0.0936914
-0.116594
-0.133826
-0.144724
-0.149055
-0.146915
-0.139099
-0.126648
-0.11097
-0.0937052
-0.0765506
-0.0612856
-0.0493054
-0.0418042
-0.0395188
-0.0426744
-0.0512168
-0.0641854
-0.0804509
-0.0985331
-0.116801
-0.133559
-0.147326
-0.156937
-0.161643
-0.160923
-0.155314
-0.145305
-0.131681
-0.116842
-0.102064
-0.0886484
-0.0778587
-0.0706238
-0.0682397
-0.0700572
-0.075694
-0.0843684
-0.095038
-0.106614
-0.117173
-0.125785
-0.13139
-0.133259
-0.131071
-0.124946
-0.115436
-0.103416
-0.0900686
-0.0767335
-0.064792
-0.0555134
-0.0499953
-0.0489475
-0.0527527
-0.0613446
-0.0742137
-0.0904404
-0.108767
-0.127705
-0.145624
-0.160922
-0.172138
-0.178116
2.1305
2.12968
2.12801
2.12546
2.122
2.11761
2.11227
2.10595
2.09862
2.09026
2.08085
2.07036
2.05875
2.04601
2.03211
2.01701
2.00069
1.98312
1.96426
1.94408
1.92255
1.89963
1.87528
1.84946
1.82214
1.79326
1.76279
1.73067
1.69687
1.66134
1.62405
1.58494
1.544
1.5012
1.45652
1.40996
1.36158
1.311
1.25836
1.2038
1.14744
1.08943
1.02986
0.968834
0.906484
0.842968
0.778472
0.713207
0.647413
0.581355
0.515322
0.449625
0.3846
0.320593
0.257971
0.197109
0.13841
0.0822621
0.0290532
-0.0208306
-0.0670159
-0.109132
-0.146842
-0.179826
-0.207766
-0.230222
-0.247421
-0.259117
-0.26516
-0.265506
-0.260161
-0.249494
-0.23355
-0.212606
-0.186971
-0.156951
-0.1234
-0.0868375
-0.0478795
-0.00723675
0.0343256
0.0760006
0.116948
0.156315
0.193249
0.226926
0.25655
0.281383
0.300766
0.314146
0.321122
0.320726
0.313188
0.298604
0.277151
0.249138
0.215029
0.175489
0.13134
0.0835624
0.0332896
-0.0182513
-0.0697461
-0.119831
-0.167145
-0.210347
-0.248164
-0.279463
-0.303259
-0.318761
-0.325405
-0.322894
-0.311259
-0.290958
-0.262667
-0.227352
-0.186276
-0.140949
-0.0930734
-0.0443009
0.00313447
0.047542
0.0871221
0.120287
0.145697
0.162316
0.169552
0.167125
0.155414
0.135129
0.107445
0.0739246
0.0364163
-0.00302442
-0.0422057
-0.0790177
-0.111498
-0.137985
-0.157209
-0.168391
-0.171312
-0.166406
-0.154546
-0.137169
-0.116102
-0.0934041
-0.0711862
-0.0516689
-0.0365622
-0.0272723
-0.024649
-0.0289414
-0.039651
-0.0558491
-0.0760063
-0.0982251
-0.120455
-0.140595
-0.156898
-0.167956
-0.172939
-0.171567
-0.164348
-0.151998
-0.134607
-0.116871
-0.0993998
-0.0837213
-0.0713495
-0.0633718
-0.0609516
-0.0635213
-0.0706054
-0.0811836
-0.093984
-0.107715
-0.120151
-0.130233
-0.136759
-0.138937
-0.136449
-0.129463
-0.118645
-0.105027
-0.0899524
-0.0749335
-0.0615074
-0.0510749
-0.044827
-0.0435333
-0.0475843
-0.0568799
-0.0708459
-0.0884637
-0.108357
-0.128889
-0.148305
-0.164871
-0.17701
-0.183476
2.25102
2.25008
2.24812
2.24512
2.24108
2.23598
2.22979
2.2225
2.21411
2.2046
2.19396
2.18221
2.16933
2.15532
2.14016
2.12384
2.10634
2.08764
2.0677
2.04651
2.02403
2.00021
1.97501
1.94837
1.92023
1.89051
1.85915
1.82607
1.79118
1.75438
1.71557
1.67464
1.63149
1.586
1.53809
1.48762
1.43446
1.37911
1.32142
1.2613
1.19869
1.13359
1.06612
0.996409
0.924654
0.851073
0.775914
0.699467
0.622053
0.544032
0.465793
0.387762
0.310395
0.234174
0.159613
0.0872275
0.0175641
-0.0488229
-0.111361
-0.16969
-0.223206
-0.271292
-0.313744
-0.350034
-0.379793
-0.402698
-0.418485
-0.426988
-0.428132
-0.421947
-0.408148
-0.387369
-0.359801
-0.325836
-0.285949
-0.240736
-0.190894
-0.137186
-0.0807332
-0.0224243
0.036736
0.0956574
0.153201
0.208215
0.259567
0.306155
0.346919
0.380886
0.407217
0.425203
0.434256
0.43342
0.423011
0.403099
0.373886
0.335803
0.289537
0.236051
0.176512
0.11228
0.0449144
-0.0239066
-0.0924006
-0.158725
-0.221042
-0.277572
-0.326651
-0.366813
-0.39681
-0.415639
-0.422479
-0.416325
-0.398193
-0.36869
-0.328765
-0.279791
-0.223506
-0.161986
-0.0975502
-0.0325593
0.0302248
0.0884059
0.139613
0.18176
0.213112
0.232383
0.238841
0.232895
0.214614
0.185036
0.145925
0.0994861
0.0483334
-0.00468505
-0.0565946
-0.104609
-0.146105
-0.17895
-0.201595
-0.21309
-0.212956
-0.20236
-0.182604
-0.155791
-0.124543
-0.091701
-0.0598798
-0.0326136
-0.0118488
0.000566286
0.00361673
-0.00293267
-0.0181287
-0.0406202
-0.0681815
-0.0981613
-0.127825
-0.154212
-0.175087
-0.188677
-0.193981
-0.191071
-0.180682
-0.164642
-0.13881
-0.1165
-0.0941378
-0.074335
-0.0591439
-0.0499111
-0.0475701
-0.0516783
-0.0614968
-0.0756144
-0.0923229
-0.109917
-0.125718
-0.138392
-0.146506
-0.149163
-0.146059
-0.137488
-0.124301
-0.10782
-0.089675
-0.0716822
-0.0556526
-0.0432101
-0.0357067
-0.0340108
-0.0385199
-0.049075
-0.0649742
-0.0850296
-0.107654
-0.130969
-0.152991
-0.171753
-0.185489
-0.192803
2.41139
2.41012
2.40755
2.40364
2.3984
2.39184
2.38395
2.37477
2.36432
2.35263
2.33974
2.32568
2.31049
2.29409
2.27662
2.25816
2.23874
2.21841
2.19716
2.17499
2.15189
2.12781
2.10268
2.07641
2.04888
2.01994
1.98943
1.95716
1.92292
1.88651
1.84771
1.80634
1.76217
1.71503
1.66474
1.61126
1.55382
1.49259
1.42771
1.35919
1.28704
1.21129
1.13204
1.04947
0.963801
0.875308
0.784338
0.691289
0.596606
0.500795
0.404412
0.308055
0.212351
0.117973
0.0256085
-0.0640205
-0.150182
-0.232174
-0.306188
-0.377362
-0.442011
-0.499469
-0.549133
-0.590434
-0.622892
-0.646055
-0.659605
-0.663315
-0.657032
-0.640819
-0.615234
-0.580084
-0.535838
-0.483092
-0.422556
-0.355115
-0.281769
-0.203611
-0.121912
-0.0381715
0.0462698
0.129915
0.211195
0.288548
0.360413
0.425286
0.481726
0.528429
0.564274
0.588294
0.599733
0.597837
0.582779
0.554578
0.513542
0.460345
0.396038
0.321995
0.239877
0.151605
0.0593705
-0.0344853
-0.12749
-0.217121
-0.30086
-0.376282
-0.441155
-0.493566
-0.532027
-0.555718
-0.564893
-0.550551
-0.521939
-0.478628
-0.421616
-0.352708
-0.274312
-0.189314
-0.100931
-0.0126181
0.0721493
0.149949
0.217588
0.272285
0.31179
0.334482
0.339524
0.327578
0.298929
0.255264
0.199143
0.133725
0.0626857
-0.0100245
-0.0802213
-0.14411
-0.198199
-0.239666
-0.266626
-0.278416
-0.272907
-0.253459
-0.221844
-0.181033
-0.134743
-0.0869593
-0.0418988
-0.00341527
0.025283
0.0418573
0.0450657
0.0349161
0.0127331
-0.0192155
-0.0576998
-0.098928
-0.139458
-0.174606
-0.201808
-0.218731
-0.224163
-0.218426
-0.202457
-0.178312
-0.147611
-0.116171
-0.0862151
-0.0605007
-0.0414707
-0.0307421
-0.0286688
-0.0351659
-0.0489933
-0.0681781
-0.090391
-0.113308
-0.133729
-0.149899
-0.160091
-0.163288
-0.159226
-0.148396
-0.131923
-0.111506
-0.0891917
-0.0671891
-0.0476761
-0.0325762
-0.0234393
-0.0212488
-0.02641
-0.0386839
-0.0571872
-0.0804992
-0.10675
-0.133756
-0.159214
-0.180875
-0.196718
-0.205145
2.60891
2.60702
2.60322
2.5975
2.58987
2.58038
2.56922
2.55606
2.54106
2.52443
2.50628
2.48675
2.4661
2.44456
2.42233
2.39962
2.37659
2.35379
2.33033
2.30681
2.28323
2.25954
2.23562
2.21132
2.18639
2.16056
2.13352
2.10489
2.07429
2.04132
2.00556
1.96656
1.92383
1.87689
1.82527
1.76878
1.70784
1.6417
1.57002
1.49268
1.40973
1.32126
1.22746
1.1286
1.02499
0.917086
0.805367
0.690416
0.572892
0.453517
0.333066
0.212391
0.0924106
-0.0259444
-0.141673
-0.253797
-0.360744
-0.462392
-0.557257
-0.644526
-0.723188
-0.792314
-0.851048
-0.898623
-0.934334
-0.957666
-0.968205
-0.965656
-0.949901
-0.920829
-0.878887
-0.824409
-0.758016
-0.680497
-0.59283
-0.496242
-0.392114
-0.281976
-0.167473
-0.0506787
0.0665594
0.182196
0.294106
0.400172
0.49831
0.586508
0.662835
0.725528
0.773081
0.80424
0.818024
0.814098
0.792209
0.752384
0.695138
0.62153
0.53307
0.431698
0.31972
0.199792
0.0749234
-0.0516863
-0.176634
-0.296481
-0.407833
-0.507368
-0.592049
-0.65917
-0.706373
-0.731621
-0.732844
-0.717544
-0.678637
-0.618313
-0.539125
-0.444042
-0.336598
-0.220846
-0.10123
0.0174412
0.130554
0.233476
0.321962
0.392357
0.441753
0.468127
0.470556
0.44985
0.406825
0.344054
0.265166
0.174611
0.0774619
-0.0210868
-0.114885
-0.199051
-0.26891
-0.320726
-0.35189
-0.360822
-0.349813
-0.318751
-0.271233
-0.211732
-0.145513
-0.0781722
-0.0156354
0.0370862
0.0756484
0.0970771
0.0999345
0.0843829
0.0524917
0.0077152
-0.0453865
-0.101651
-0.155612
-0.202157
-0.237241
-0.258038
-0.263257
-0.253401
-0.230131
-0.196547
-0.156125
-0.114258
-0.07497
-0.0419758
-0.0183091
-0.00589353
-0.00459795
-0.0144665
-0.0336023
-0.0593168
-0.0885025
-0.118018
-0.14413
-0.164516
-0.177126
-0.180829
-0.175444
-0.161701
-0.141119
-0.115851
-0.0884517
-0.0616033
-0.0379227
-0.0196574
-0.00862604
-0.00591029
-0.0119175
-0.0262905
-0.0479382
-0.0751517
-0.10572
-0.137102
-0.166624
-0.19171
-0.210032
-0.219775
2.85418
2.85093
2.84443
2.8347
2.82183
2.806
2.78745
2.76701
2.74161
2.71343
2.68291
2.65074
2.61747
2.58381
2.55043
2.518
2.48704
2.4579
2.4309
2.40603
2.38342
2.36298
2.34445
2.32746
2.31145
2.29583
2.27983
2.26278
2.24382
2.22208
2.19657
2.16641
2.13077
2.08888
2.0404
1.98451
1.92085
1.84911
1.7691
1.68075
1.58411
1.47936
1.36682
1.24689
1.12012
0.987135
0.848683
0.705585
0.558781
0.409288
0.258194
0.106685
-0.0440409
-0.192681
-0.337835
-0.478151
-0.61238
-0.739129
-0.857048
-0.964835
-1.06121
-1.14494
-1.21495
-1.27022
-1.30992
-1.33331
-1.33987
-1.32925
-1.30125
-1.25621
-1.19422
-1.11591
-1.02214
-0.914021
-0.792876
-0.660354
-0.518319
-0.368834
-0.214191
-0.0569444
0.100354
0.254974
0.404098
0.544925
0.674729
0.790904
0.890961
0.972588
1.03376
1.07289
1.08877
1.08143
1.05016
0.99509
0.917068
0.817617
0.6988
0.563257
0.414115
0.254961
0.0898238
-0.0770877
-0.241187
-0.397937
-0.542873
-0.671659
-0.780362
-0.865495
-0.924173
-0.954268
-0.954616
-0.927409
-0.871203
-0.787759
-0.680096
-0.552108
-0.408524
-0.254775
-0.0967661
0.0590445
0.206585
0.339791
0.453162
0.541993
0.602579
0.632517
0.630745
0.598162
0.536554
0.449524
0.342041
0.220222
0.0909465
-0.0395585
-0.161979
-0.270573
-0.359197
-0.42305
-0.458934
-0.465586
-0.444627
-0.397833
-0.329837
-0.246743
-0.155706
-0.0641143
0.0198222
0.0896451
0.139739
0.166354
0.167994
0.145004
0.100553
0.0395293
-0.0318415
-0.10661
-0.177173
-0.237246
-0.281501
-0.306478
-0.310835
-0.295419
-0.262924
-0.217701
-0.164681
-0.110387
-0.0601111
-0.018673
0.0102256
0.0243778
0.0241797
0.00989789
-0.0158314
-0.049439
-0.0869215
-0.124151
-0.156837
-0.181988
-0.197222
-0.201315
-0.194208
-0.176961
-0.151541
-0.120649
-0.087404
-0.055046
-0.0266588
-0.00490397
0.00820736
0.0114361
0.00440143
-0.0123946
-0.0376117
-0.0692179
-0.104625
-0.140883
-0.174936
-0.203818
-0.224892
-0.23609
3.16718
3.15947
3.14403
3.12087
3.09006
3.05193
3.00672
2.9556
2.90392
2.85206
2.79881
2.74604
2.69524
2.64767
2.60409
2.5648
2.52966
2.49851
2.47151
2.44918
2.43204
2.4203
2.41381
2.4121
2.41419
2.41889
2.42447
2.42927
2.43182
2.43057
2.42362
2.40939
2.38638
2.35397
2.31113
2.25715
2.19155
2.11403
2.02445
1.92286
1.80949
1.6847
1.54903
1.40315
1.24786
1.0841
0.91294
0.735562
0.553201
0.367237
0.179154
-0.00952014
-0.197153
-0.381927
-0.562342
-0.736567
-0.902829
-1.05937
-1.20443
-1.33634
-1.45348
-1.55431
-1.63743
-1.70155
-1.74563
-1.76877
-1.77032
-1.74988
-1.70734
-1.64283
-1.55683
-1.45012
-1.32385
-1.17946
-1.01872
-0.843795
-0.657118
-0.461364
-0.259534
-0.0548864
0.149227
0.349296
0.541735
0.722984
0.889471
1.03783
1.16493
1.26794
1.34434
1.39201
1.40952
1.39711
1.3537
1.27968
1.17631
1.04565
0.890437
0.714135
0.520843
0.315242
0.102593
-0.111893
-0.321812
-0.521669
-0.705654
-0.868304
-1.00464
-1.11028
-1.18169
-1.21637
-1.21303
-1.17257
-1.09532
-0.983776
-0.841812
-0.674522
-0.488025
-0.289378
-0.0862202
0.113056
0.300646
0.468788
0.610558
0.720079
0.792735
0.825745
0.817864
0.770283
0.685879
0.569494
0.427755
0.268654
0.100963
-0.0659095
-0.221988
-0.358834
-0.468775
-0.545914
-0.586493
-0.589182
-0.555575
-0.489245
-0.396311
-0.284879
-0.164312
-0.0439462
0.0649341
0.154395
0.217382
0.249281
0.248189
0.215929
0.156073
0.0754004
-0.0177322
-0.114462
-0.204428
-0.279922
-0.334298
-0.363499
-0.366158
-0.343669
-0.299959
-0.240855
-0.172931
-0.104301
-0.0415799
0.00922696
0.0437269
0.059581
0.0570437
0.0373111
0.00378907
-0.0389462
-0.0858641
-0.131745
-0.17169
-0.20199
-0.21994
-0.224243
-0.215024
-0.193734
-0.162856
-0.125702
-0.0860224
-0.047657
-0.0141924
0.011303
0.026577
0.0302734
0.0220485
0.00257101
-0.026548
-0.0628992
-0.103514
-0.144998
-0.183891
-0.216824
-0.240822
-0.253568
3.62828
3.61789
3.59769
3.56826
3.53063
3.48729
3.43952
3.3843
3.318
3.23267
3.14019
3.04284
2.94247
2.84221
2.7451
2.6546
2.57429
2.50719
2.45532
2.41994
2.40129
2.39869
2.41069
2.43555
2.47028
2.51206
2.55576
2.59512
2.6352
2.66996
2.69442
2.70571
2.70423
2.68784
2.6552
2.60536
2.53792
2.45286
2.35048
2.23131
2.09604
1.9455
1.78064
1.60255
1.41238
1.21143
1.00111
0.782952
0.558622
0.329874
0.0985786
-0.133305
-0.363618
-0.590394
-0.811473
-1.02462
-1.22758
-1.41816
-1.59417
-1.75353
-1.89422
-2.01432
-2.1121
-2.18602
-2.23475
-2.25723
-2.25268
-2.22064
-2.16109
-2.07417
-1.96052
-1.82117
-1.65764
-1.47179
-1.26587
-1.04262
-0.805149
-0.556853
-0.301522
-0.0432532
0.213755
0.465115
0.706269
0.932712
1.14015
1.32439
1.48141
1.6078
1.70054
1.75711
1.77565
1.75631
1.69804
1.60153
1.46849
1.30157
1.10429
0.88111
0.63723
0.378581
0.111771
-0.156291
-0.418204
-0.666677
-0.894567
-1.09507
-1.26194
-1.38989
-1.4747
-1.51342
-1.50456
-1.4485
-1.3467
-1.20252
-1.02096
-0.808518
-0.572959
-0.323163
-0.0687071
0.179672
0.412185
0.619297
0.792417
0.924352
1.00961
1.0448
1.02886
0.963255
0.852024
0.701493
0.520214
0.3184
0.107108
-0.101287
-0.295063
-0.463322
-0.596639
-0.687871
-0.732592
-0.729523
-0.680652
-0.591165
-0.469087
-0.324929
-0.17078
-0.0169828
0.119655
0.23093
0.307909
0.344986
0.340353
0.296183
0.217978
0.114412
-0.00377371
-0.125618
-0.237381
-0.329824
-0.395016
-0.428224
-0.428214
-0.397149
-0.340302
-0.265277
-0.180444
-0.0958494
-0.0195071
0.0413247
0.0815757
0.0987867
0.0932323
0.0670891
0.0247107
-0.0281977
-0.0854796
-0.140754
-0.188447
-0.224126
-0.244781
-0.249083
-0.237388
-0.211586
-0.174744
-0.130841
-0.0843003
-0.0395815
-0.000802887
0.0285673
0.046027
0.0501237
0.0405651
0.0182116
-0.0150345
-0.0563733
-0.102424
-0.149351
-0.193263
-0.230385
-0.257412
-0.271753
4.15992
4.13432
4.08333
4.00556
3.89902
3.7607
3.58697
3.39235
3.20617
3.02305
2.83509
2.65385
2.48719
2.34062
2.2162
2.1148
2.03644
1.98102
1.94855
1.93938
1.95452
1.99508
2.06061
2.15239
2.26904
2.40926
2.56699
2.71688
2.85431
2.96313
3.04236
3.09355
3.11703
3.11505
3.08819
3.03658
2.96089
2.86197
2.7407
2.59807
2.43518
2.25324
2.0536
1.83767
1.60698
1.3632
1.10812
0.84364
0.571827
0.294866
0.0150586
-0.265099
-0.543237
-0.816797
-1.08305
-1.33932
-1.58285
-1.81098
-2.02105
-2.21052
-2.37695
-2.51802
-2.63166
-2.71598
-2.76942
-2.79071
-2.77896
-2.73375
-2.6549
-2.54277
-2.39817
-2.22242
-2.01744
-1.78553
-1.52951
-1.25281
-0.959248
-0.653012
-0.33877
-0.0215619
0.293493
0.600952
0.895308
1.17111
1.42298
1.64595
1.83522
1.9865
2.0963
2.16171
2.18061
2.15251
2.07685
1.95465
1.78806
1.58041
1.33612
1.06072
0.760663
0.443258
0.116661
-0.210534
-0.529472
-0.831158
-1.1069
-1.34835
-1.54809
-1.69977
-1.79834
-1.84035
-1.82422
-1.75019
-1.62056
-1.43965
-1.21383
-0.951158
-0.661318
-0.355164
-0.0435812
0.258446
0.539832
0.789112
0.995918
1.15157
1.24959
1.28599
1.25998
1.17349
1.03174
0.842777
0.617301
0.368036
0.108611
-0.145544
-0.380428
-0.582668
-0.740896
-0.846628
-0.894779
-0.884135
-0.817463
-0.701533
-0.546518
-0.365498
-0.173191
0.0153667
0.183233
0.318227
0.409925
0.451867
0.442289
0.384163
0.284921
0.155579
0.00953674
-0.14031
-0.275746
-0.386285
-0.462686
-0.499549
-0.495853
-0.454718
-0.383003
-0.290259
-0.186904
-0.0850322
0.00580429
0.077065
0.123028
0.141139
0.131927
0.0985435
0.0464101
-0.0175095
-0.0858545
-0.151057
-0.206796
-0.24795
-0.271217
-0.275287
-0.260791
-0.230099
-0.186919
-0.135929
-0.0822485
-0.0309785
0.0132305
0.0465158
0.0661333
0.0705501
0.0595412
0.0341796
-0.00333406
-0.0497873
-0.101385
-0.153851
-0.202849
-0.244208
-0.274295
-0.290249
4.92314
4.89418
4.83995
4.76062
4.6578
4.53104
4.37909
4.22841
4.07602
3.78645
3.53572
3.29019
3.05278
2.83181
2.63093
2.45525
2.30873
2.19493
2.11673
2.07681
2.07747
2.11918
2.19981
2.32039
2.47436
2.65762
2.9238
3.04326
3.21736
3.35774
3.47108
3.55871
3.61125
3.62769
3.60723
3.55059
3.46071
3.34085
3.19338
3.0202
2.82304
2.60359
2.36341
2.10422
1.82781
1.53614
1.23135
0.915709
0.591694
0.261948
-0.0706078
-0.403427
-0.73354
-1.05774
-1.37282
-1.67561
-1.96282
-2.23127
-2.47784
-2.6995
-2.89335
-3.05667
-3.18699
-3.2821
-3.34017
-3.35967
-3.33943
-3.27978
-3.17977
-3.04006
-2.86173
-2.64644
-2.39652
-2.11481
-1.80472
-1.47039
-1.11644
-0.747924
-0.370461
0.00992574
0.387064
0.754467
1.10554
1.43377
1.73283
1.99669
2.21975
2.397
2.52423
2.59813
2.61642
2.57804
2.48284
2.33217
2.12874
1.87662
1.5812
1.24919
0.888407
0.50768
0.11677
-0.273938
-0.653897
-1.01236
-1.33893
-1.62376
-1.85807
-2.03436
-2.14675
-2.19126
-2.1662
-2.07201
-1.91166
-1.69056
-1.41653
-1.09946
-0.751207
-0.384845
-0.0106305
0.348208
0.681412
0.975275
1.21742
1.3976
1.50825
1.54496
1.50697
1.39699
1.22154
0.990518
0.71698
0.416375
0.105168
-0.198053
-0.476688
-0.714789
-0.898946
-1.01928
-1.07007
-1.05019
-0.963387
-0.81811
-0.626979
-0.405822
-0.172514
0.0539048
0.254845
0.414825
0.521637
0.567966
0.552079
0.478097
0.355445
0.197937
0.0221433
-0.158888
-0.318969
-0.448339
-0.536084
-0.576126
-0.567745
-0.515205
-0.427133
-0.315223
-0.192057
-0.0719827
0.033906
0.115763
0.167254
0.185779
0.172313
0.130991
0.0684109
-0.00713505
-0.0870156
-0.162464
-0.22638
-0.272985
-0.298721
-0.302322
-0.284752
-0.248894
-0.199128
-0.140853
-0.0798993
-0.0220097
0.02764
0.0648039
0.0865122
0.0911636
0.0786186
0.0501755
0.00835164
-0.0432616
-0.100416
-0.158414
-0.212473
-0.258043
-0.291166
-0.308718
5.79532
5.76089
5.69042
5.56973
5.37582
5.06824
4.54785
3.72547
3.23194
2.63032
2.17005
1.77687
1.44856
1.17948
0.963271
0.795781
0.673208
0.593043
0.554369
0.557773
0.608638
0.711232
0.868877
1.09298
1.39651
1.79474
2.38723
2.97911
3.64554
4.00215
4.19867
4.29739
4.32676
4.30443
4.24247
4.14851
4.02504
3.87215
3.69059
3.48125
3.24525
2.98402
2.69923
2.39278
2.06675
1.72341
1.36523
0.99484
0.615049
0.228769
-0.158459
-0.547553
-0.932657
-1.31029
-1.67679
-2.02846
-2.3615
-2.67222
-2.95694
-3.21217
-3.43454
-3.62089
-3.76837
-3.87445
-3.93703
-3.95449
-3.92583
-3.84949
-3.72643
-3.55715
-3.34289
-3.08561
-2.7881
-2.45374
-2.08657
-1.69151
-1.27401
-0.84004
-0.39621
0.0504089
0.49255
0.9226
1.33284
1.71564
2.06363
2.36982
2.62766
2.83138
2.97612
3.05809
3.07473
3.02473
2.90821
2.72688
2.484
2.1845
1.8348
1.44287
1.01797
0.570499
0.111969
-0.345377
-0.789206
-1.20692
-1.5864
-1.91618
-2.18605
-2.38738
-2.51339
-2.55963
-2.52422
-2.40797
-2.21454
-1.95049
-1.62519
-1.2505
-0.840659
-0.412695
0.0304825
0.447009
0.834121
1.17424
1.45274
1.6578
1.78076
1.81673
1.76517
1.62954
1.41782
1.14193
0.817407
0.46247
0.0968548
-0.257802
-0.582001
-0.857147
-1.06776
-1.20254
-1.2551
-1.22452
-1.11563
-0.938703
-0.708927
-0.445173
-0.168593
0.0978358
0.333188
0.518914
0.640943
0.691045
0.667638
0.576128
0.428084
0.240476
0.0343353
-0.181707
-0.366162
-0.514801
-0.613824
-0.65649
-0.642502
-0.57742
-0.471803
-0.339668
-0.195799
-0.0569521
0.0642474
0.156661
0.213392
0.23186
0.213614
0.163804
0.0902891
0.00274003
-0.0889385
-0.174751
-0.246823
-0.298758
-0.326774
-0.329694
-0.308835
-0.267634
-0.211158
-0.145534
-0.0772999
-0.0128325
0.0421777
0.0831221
0.106825
0.111627
0.0974909
0.0659403
0.0198478
-0.0368981
-0.0995358
-0.162965
-0.221984
-0.271679
-0.307763
-0.326877
6.29398
6.22411
6.08269
5.84097
5.49486
5.01441
4.42465
3.55144
3.89329
4.32626
4.56514
4.73183
4.84685
4.90761
4.9058
4.85236
4.75184
4.61007
4.43013
4.21522
3.96778
3.69008
3.38405
3.05172
2.69525
2.31698
1.91949
1.50557
1.07825
0.640778
0.196662
-0.250244
-0.696609
-1.1382
-1.57085
-1.9903
-2.39227
-2.77243
-3.12651
-3.45033
-3.73988
-3.99132
-4.20105
-4.3658
-4.48272
-4.54941
-4.564
-4.52519
-4.43217
-4.28519
-4.08509
-3.83341
-3.53249
-3.18561
-2.79672
-2.37051
-1.91271
-1.42963
-0.92819
-0.416029
0.0986875
0.607578
1.10187
1.57266
2.01123
2.40909
2.75827
3.05127
3.28153
3.44356
3.53305
3.54715
3.48442
3.3452
3.13157
2.84741
2.49851
2.09238
1.63832
1.14708
0.630703
0.10248
-0.423425
-0.932817
-1.41122
-1.84472
-2.2202
-2.52604
-2.75238
-2.89163
-2.93881
-2.89191
-2.7521
-2.52386
-2.21489
-1.8362
-1.40154
-0.927245
-0.431178
0.0716363
0.551893
0.994885
1.38223
1.6975
1.92738
2.06213
2.09647
2.02997
1.86703
1.61715
1.29439
0.916927
0.505895
0.0838752
-0.323511
-0.694243
-1.00698
-1.24412
-1.39294
-1.44643
-1.40395
-1.27143
-1.06118
-0.790953
-0.482946
-0.161562
0.146181
0.416718
0.628506
0.765577
0.818804
0.786837
0.676422
0.501502
0.282055
0.0414427
-0.203888
-0.41609
-0.584411
-0.694467
-0.739161
-0.718767
-0.640255
-0.516229
-0.363128
-0.198196
-0.040275
0.0962266
0.198985
0.260594
0.278569
0.255111
0.196429
0.111692
0.0119735
-0.0915446
-0.187672
-0.267749
-0.324821
-0.354908
-0.356955
-0.332663
-0.286036
-0.222837
-0.149916
-0.0745041
-0.00359897
0.0566234
0.101203
0.126782
0.131659
0.115904
0.081269
0.0309523
-0.0307769
-0.0987469
-0.167441
-0.23126
-0.284939
-0.323882
-0.3445
7.32693
7.29611
7.24588
7.16562
7.07042
6.98737
6.89772
6.84202
5.83538
5.80741
5.86263
5.84059
5.81069
5.75652
5.67402
5.56255
5.41539
5.23207
5.01238
4.75728
4.46798
4.14603
3.79325
3.41172
3.00374
2.57186
2.11893
1.64807
1.16265
0.666301
0.162912
-0.343377
-0.848284
-1.34727
-1.83566
-2.30868
-2.7615
-3.1892
-3.587
-3.95018
-4.27421
-4.55478
-4.78783
-4.96971
-5.09721
-5.16765
-5.17893
-5.12962
-5.01901
-4.84732
-4.61558
-4.32563
-3.98018
-3.58299
-3.1386
-2.65241
-2.13092
-1.58134
-1.01156
-0.430251
0.153303
0.729583
1.28864
1.82042
2.31503
2.76291
3.15506
3.48307
3.73956
3.91841
4.01482
4.02561
3.94933
3.78646
3.53949
3.21295
2.81352
2.34981
1.8325
1.27383
0.687554
0.0887455
-0.506479
-1.08203
-1.62154
-2.1093
-2.53053
-2.87214
-3.12314
-3.27506
-3.32244
-3.26316
-3.09879
-2.8346
-2.47959
-2.04637
-1.55065
-1.01092
-0.447499
0.11892
0.661827
1.1609
1.59552
1.9474
2.20165
2.34757
2.3794
2.29695
2.10559
1.8164
1.44562
1.01407
0.546106
0.0669295
-0.393715
-0.811198
-1.16148
-1.42483
-1.58711
-1.64073
-1.58541
-1.42823
-1.18355
-0.871829
-0.518656
-0.151799
0.197862
0.503798
0.741568
0.893293
0.949011
0.907607
0.777325
0.574558
0.322297
0.0468512
-0.228289
-0.468086
-0.655949
-0.77662
-0.822735
-0.795287
-0.702721
-0.559771
-0.385381
-0.199228
-0.022321
0.129237
0.241987
0.308067
0.325157
0.296169
0.228397
0.132347
0.0204681
-0.0947239
-0.200978
-0.28881
-0.350767
-0.382707
-0.383726
-0.355919
-0.303872
-0.234034
-0.153966
-0.0715704
0.00555967
0.0707861
0.118823
0.146151
0.151034
0.133657
0.0960014
0.0415817
-0.0249538
-0.0980487
-0.171791
-0.240203
-0.297688
-0.33936
-0.361413
8.4016
8.38391
8.36399
8.31854
8.27123
8.21767
8.15717
8.1044
6.63576
6.63071
6.67092
6.65617
6.61109
6.53306
6.41741
6.268
6.08189
5.85919
5.59919
5.30256
4.97001
4.60281
4.20259
3.77138
3.31156
2.82585
2.31733
1.78941
1.2458
0.690517
0.127871
-0.437526
-1.00086
-1.55709
-2.10105
-2.6274
-3.1308
-3.60576
-4.04696
-4.44914
-4.8073
-5.11662
-5.3726
-5.57122
-5.70893
-5.78278
-5.79042
-5.73021
-5.60156
-5.40479
-5.14113
-4.81266
-4.42247
-3.97484
-3.47489
-2.92868
-2.34354
-1.72758
-1.08962
-0.439394
0.212702
0.856009
1.47942
2.07169
2.62182
3.11915
3.55367
3.91606
4.19814
4.39315
4.49585
4.50275
4.41234
4.22531
3.94454
3.57522
3.12495
2.60346
2.02277
1.39666
0.74058
0.07137
-0.592875
-1.23419
-1.83433
-2.37579
-2.84216
-3.2189
-3.49388
-3.6578
-3.70471
-3.63244
-3.44291
-3.14232
-2.7409
-2.25286
-1.69598
-1.09098
-0.460798
0.170125
0.774822
1.32932
1.81058
2.19838
2.4763
2.63261
2.66121
2.56215
2.34177
2.01279
1.59365
1.10786
0.582804
0.046699
-0.466922
-0.930702
-1.31797
-1.60686
-1.78191
-1.83496
-1.76612
-1.58371
-1.30407
-0.950541
-0.551988
-0.13975
0.251785
0.59283
0.85614
1.02197
1.07956
1.02808
0.877339
0.646215
0.360851
0.0509337
-0.254647
-0.521339
-0.728241
-0.858976
-0.905951
-0.870947
-0.763949
-0.601881
-0.406246
-0.199018
-0.00347949
0.162697
0.284976
0.355102
0.370975
0.33625
0.259324
0.152048
0.028193
-0.0983716
-0.214436
-0.309692
-0.376245
-0.409824
-0.409692
-0.378349
-0.320964
-0.244655
-0.15767
-0.0685567
0.0145281
0.0845091
0.135801
0.164745
0.169577
0.150598
0.110021
0.0516622
-0.0194625
-0.0974377
-0.175974
-0.248742
-0.309825
-0.354079
-0.37749
9.40167
9.39004
9.37622
9.3503
9.32291
9.2893
9.25956
9.23815
7.57247
7.51881
7.51675
7.4677
7.38931
7.28022
7.13417
6.95217
6.73169
6.47274
6.17461
5.83786
5.46307
5.05142
4.60449
4.12431
3.61337
3.07456
2.51122
1.92705
1.32611
0.712709
0.0917454
-0.531773
-1.15256
-1.76507
-2.36362
-2.94233
-3.49535
-4.01663
-4.50034
-4.94069
-5.33216
-5.66949
-5.94775
-6.16254
-6.30997
-6.38689
-6.39072
-6.31931
-6.17248
-5.95065
-5.65523
-5.28856
-4.85409
-4.35659
-3.80176
-3.19635
-2.54848
-1.86714
-1.16208
-0.444085
0.27535
0.984443
1.67094
2.32247
2.92689
3.47249
3.94827
4.34402
4.65079
4.8612
4.96954
4.97209
4.86727
4.65595
4.34145
3.92961
3.42893
2.85028
2.20698
1.51437
0.789515
0.0510533
-0.680999
-1.38682
-2.04633
-2.64027
-3.15061
-3.56143
-3.85948
-4.03466
-4.08059
-3.99489
-3.78006
-3.44318
-2.99563
-2.45335
-1.83605
-1.16675
-0.471032
0.223728
0.888882
1.4975
2.02421
2.44683
2.74743
2.91337
2.93818
2.82212
2.57262
2.20398
1.7368
1.19733
0.616181
0.023765
-0.541704
-1.05075
-1.474
-1.78751
-1.97455
-2.02647
-1.94369
-1.73585
-1.42137
-1.02633
-0.582873
-0.125749
0.306914
0.682321
0.970436
1.14969
1.20862
1.14661
0.975169
0.715683
0.397453
0.0536288
-0.282277
-0.574996
-0.800209
-0.940373
-0.987759
-0.944797
-0.823253
-0.64216
-0.425499
-0.197809
0.0158654
0.196075
0.327348
0.401097
0.415481
0.37492
0.28892
0.170644
0.0351696
-0.102387
-0.227832
-0.330126
-0.400964
-0.435975
-0.434605
-0.399762
-0.337183
-0.254637
-0.16103
-0.0655164
0.0232141
0.0976655
0.152002
0.182427
0.187162
0.16662
0.123246
0.0611419
-0.0143298
-0.0969082
-0.179958
-0.25682
-0.321284
-0.367959
-0.392642
10.3094
10.303
10.2948
10.2779
10.2639
10.2437
10.2301
10.2211
8.39247
8.32874
8.30342
8.2323
8.12888
7.99345
7.81973
7.60821
7.35627
7.06372
6.72984
6.35504
5.93986
5.48542
4.99333
4.46571
3.90512
3.31468
2.69803
2.05917
1.40246
0.73251
0.0548705
-0.625105
-1.30169
-1.96884
-2.62035
-3.24986
-3.85097
-4.41713
-4.94198
-5.41923
-5.84287
-6.20718
-6.50684
-6.73706
-6.89366
-6.97333
-6.9735
-6.89053
-6.72559
-6.4791
-6.15253
-5.74847
-5.27072
-4.72453
-4.11618
-3.45308
-2.74414
-1.99916
-1.22886
-0.445007
0.339812
1.11272
1.86037
2.56927
3.22618
3.81838
4.33392
4.76169
5.09205
5.31698
5.43036
5.42825
5.30896
5.07359
4.72588
4.27234
3.72234
3.08783
2.38348
1.62604
0.834292
0.028504
-0.769373
-1.53772
-2.2547
-2.89935
-3.45209
-3.89561
-4.21561
-4.40126
-4.44589
-4.34651
-4.10662
-3.73399
-3.24126
-2.64595
-1.96975
-1.2379
-0.478363
0.278516
1.00221
1.66313
2.23363
2.68964
3.0118
3.18656
3.20716
3.07403
2.79571
2.3881
1.87386
1.28199
0.646058
-0.000990825
-0.616745
-1.16955
-1.62743
-1.96444
-2.16263
-2.21319
-2.11608
-1.88305
-1.53426
-1.09851
-0.611152
-0.110431
0.362284
0.770944
1.08289
1.27481
1.33461
1.26183
1.06977
0.78229
0.431822
0.0550641
-0.310551
-0.628261
-0.870905
-1.01982
-1.06728
-1.01607
-0.88007
-0.680319
-0.443205
-0.195677
0.0353651
0.228908
0.368596
0.445557
0.458243
0.411849
0.316977
0.188042
0.0413964
-0.106633
-0.240984
-0.349889
-0.424693
-0.460945
-0.458283
-0.420019
-0.352445
-0.263946
-0.164053
-0.062499
0.0315373
0.11017
0.167328
0.199103
0.203704
0.181657
0.135626
0.0699912
-0.0095612
-0.0964531
-0.183723
-0.264404
-0.33202
-0.380951
-0.406819
11.1264
11.1222
11.1178
11.1061
11.0992
11.0856
11.0794
11.0728
9.1419
9.07121
9.03161
8.94474
8.8223
8.66527
8.46792
8.23028
7.94991
7.62645
7.25927
6.84878
6.39541
5.90036
5.36519
4.79213
4.18391
3.54385
2.87593
2.18451
1.47429
0.749695
0.0176735
-0.716533
-1.44672
-2.16635
-2.86872
-3.54696
-4.1942
-4.80339
-5.36766
-5.88022
-6.33461
-6.72467
-7.04467
-7.28947
-7.45459
-7.5366
-7.53407
-7.43861
-7.256
-6.98554
-6.62879
-6.18855
-5.66897
-5.07576
-4.41578
-3.69709
-2.92932
-2.1231
-1.29001
-0.442821
0.404819
1.23898
2.04528
2.80918
3.51634
4.15307
4.70655
5.16478
5.51747
5.75601
5.87381
5.86689
5.73326
5.47439
5.09441
4.60043
4.00271
3.31427
2.551
1.73109
0.87497
0.00441221
-0.856694
-1.68503
-2.45708
-3.15024
-3.74345
-4.21806
-4.55878
-4.75408
-4.7971
-4.68409
-4.41966
-4.01232
-3.47582
-2.82924
-2.0962
-1.30411
-0.483227
0.333443
1.11327
1.82425
2.43652
2.9243
3.26675
3.44956
3.46565
3.31562
3.00916
2.5637
2.00392
1.36131
0.672658
-0.0268722
-0.690894
-1.28561
-1.77649
-2.13572