/*--------------------------------*- C++ -*----------------------------------*\
  =========                 |
  \\      /  F ield         | OpenFOAM: The Open Source CFD Toolbox
   \\    /   O peration     | Website:  https://openfoam.org
    \\  /    A nd           | Version:  12
     \\/     M anipulation  |
\*---------------------------------------------------------------------------*/
FoamFile
{
    format      ascii;
    class       volVectorField;
    location    "8.78";
    object      U;
}
// * * * * * * * * * * * * * * * * * * * * * * * * * * * * * * * * * * * * * //

dimensions      [0 1 -1 0 0 0 0];

internalField   nonuniform List<vector> 
3829
(
(8.23463e-06 -0.000184822 0)
(2.46102e-05 -0.000187343 0)
(4.1427e-05 -0.000187566 0)
(5.84991e-05 -0.000187847 0)
(7.5982e-05 -0.000188211 0)
(9.39467e-05 -0.000188636 0)
(0.000112428 -0.000189099 0)
(0.000131491 -0.000189582 0)
(0.00015118 -0.000190045 0)
(0.000171483 -0.000190454 0)
(0.000192523 -0.00019076 0)
(0.000214223 -0.000190925 0)
(0.000236573 -0.000190877 0)
(0.000259614 -0.000190586 0)
(0.000283256 -0.000189973 0)
(0.000307467 -0.000188994 0)
(0.00033215 -0.000187586 0)
(0.000357218 -0.000185698 0)
(0.000382566 -0.00018327 0)
(0.000408071 -0.000180258 0)
(0.000433589 -0.000176622 0)
(0.000458957 -0.000172328 0)
(0.00048401 -0.000167357 0)
(0.000508572 -0.000161693 0)
(0.000532412 -0.000155342 0)
(0.000555358 -0.00014831 0)
(0.000577234 -0.000140619 0)
(0.000597808 -0.000132312 0)
(0.000616878 -0.00012343 0)
(0.000634261 -0.000114033 0)
(0.000649704 -0.000104187 0)
(0.000663184 -9.39531e-05 0)
(0.00067433 -8.3429e-05 0)
(0.000682943 -7.26568e-05 0)
(0.000689174 -6.173e-05 0)
(0.000692736 -5.07107e-05 0)
(0.00069359 -3.96795e-05 0)
(0.000691748 -2.87418e-05 0)
(0.000687297 -1.80242e-05 0)
(0.00068022 -7.64332e-06 0)
(0.000670376 2.33034e-06 0)
(0.0006579 1.18404e-05 0)
(0.000642866 2.08285e-05 0)
(0.00062538 2.92519e-05 0)
(0.000605593 3.70473e-05 0)
(0.000583624 4.41785e-05 0)
(0.000559662 5.06032e-05 0)
(0.000533879 5.62877e-05 0)
(0.000506493 6.11932e-05 0)
(0.00047774 6.53357e-05 0)
(0.000447821 6.86458e-05 0)
(0.000417072 7.1161e-05 0)
(0.000385626 7.28359e-05 0)
(0.000353717 7.37373e-05 0)
(0.000321853 7.37897e-05 0)
(0.000290265 7.30919e-05 0)
(0.000258974 7.16336e-05 0)
(0.000228491 6.9476e-05 0)
(0.000199142 6.65937e-05 0)
(0.000170838 6.30906e-05 0)
(0.000144251 5.8968e-05 0)
(0.000119417 5.43433e-05 0)
(9.66969e-05 4.92478e-05 0)
(7.61909e-05 4.37405e-05 0)
(5.80746e-05 3.79082e-05 0)
(4.2698e-05 3.18321e-05 0)
(2.9854e-05 2.56125e-05 0)
(1.99431e-05 1.92816e-05 0)
(1.27262e-05 1.29548e-05 0)
(8.67014e-06 6.75529e-06 0)
(7.88502e-06 6.43131e-07 0)
(9.68821e-06 -5.22572e-06 0)
(1.44118e-05 -1.07575e-05 0)
(2.1707e-05 -1.59251e-05 0)
(3.144e-05 -2.0577e-05 0)
(4.33366e-05 -2.46237e-05 0)
(5.7216e-05 -2.79772e-05 0)
(7.28302e-05 -3.07046e-05 0)
(8.95396e-05 -3.26665e-05 0)
(0.00010733 -3.38171e-05 0)
(0.000125642 -3.41947e-05 0)
(0.000144049 -3.3748e-05 0)
(0.000162143 -3.25103e-05 0)
(0.000179527 -3.04727e-05 0)
(0.00019569 -2.76967e-05 0)
(0.000210213 -2.41974e-05 0)
(0.000222756 -2.00747e-05 0)
(0.000232819 -1.53718e-05 0)
(0.00024016 -1.02244e-05 0)
(0.000244491 -4.73578e-06 0)
(0.00024539 9.97834e-07 0)
(0.000242593 6.82619e-06 0)
(0.000236018 1.26286e-05 0)
(0.000225805 1.82789e-05 0)
(0.000212098 2.3636e-05 0)
(0.00019508 2.85659e-05 0)
(0.000175035 3.29292e-05 0)
(0.000152242 3.66003e-05 0)
(0.000127203 3.94692e-05 0)
(0.000100387 4.14405e-05 0)
(7.23542e-05 4.24565e-05 0)
(4.37457e-05 4.24627e-05 0)
(1.52749e-05 4.1461e-05 0)
(-1.2404e-05 3.9424e-05 0)
(-3.85534e-05 3.64466e-05 0)
(-6.24691e-05 3.25371e-05 0)
(-8.35599e-05 2.78551e-05 0)
(-0.000101198 2.24911e-05 0)
(-0.000114933 1.66277e-05 0)
(-0.00012435 1.04107e-05 0)
(-0.000129248 4.06999e-06 0)
(-0.000129276 -2.20695e-06 0)
(-0.000124451 -8.21452e-06 0)
(-0.000115118 -1.37434e-05 0)
(-0.00010167 -1.86652e-05 0)
(-8.46892e-05 -2.27237e-05 0)
(-6.47602e-05 -2.58239e-05 0)
(-4.26799e-05 -2.7828e-05 0)
(-1.9318e-05 -2.86719e-05 0)
(4.46144e-06 -2.83278e-05 0)
(2.75481e-05 -2.68295e-05 0)
(4.90254e-05 -2.42283e-05 0)
(6.80061e-05 -2.06781e-05 0)
(8.36915e-05 -1.63096e-05 0)
(9.54045e-05 -1.13455e-05 0)
(0.00010263 -6.02464e-06 0)
(0.000105125 -5.77461e-07 0)
(0.000102563 4.64621e-06 0)
(9.52388e-05 9.52922e-06 0)
(8.37869e-05 1.37356e-05 0)
(6.86956e-05 1.71046e-05 0)
(5.08398e-05 1.94748e-05 0)
(3.12394e-05 2.0706e-05 0)
(1.08758e-05 2.07644e-05 0)
(-9.04349e-06 1.96794e-05 0)
(-2.74137e-05 1.75173e-05 0)
(-4.32426e-05 1.44699e-05 0)
(-5.56753e-05 1.071e-05 0)
(-6.41102e-05 6.53211e-06 0)
(-6.8171e-05 2.18201e-06 0)
(-6.76404e-05 -2.01612e-06 0)
(-6.27495e-05 -5.83258e-06 0)
(-5.41341e-05 -8.98969e-06 0)
(-4.25593e-05 -1.13067e-05 0)
(-2.89816e-05 -1.26463e-05 0)
(-1.44817e-05 -1.29432e-05 0)
(-1.55225e-07 -1.22553e-05 0)
(1.28787e-05 -1.06391e-05 0)
(2.36027e-05 -8.3177e-06 0)
(3.13384e-05 -5.5139e-06 0)
(3.56531e-05 -2.49203e-06 0)
(3.6371e-05 4.47001e-07 0)
(3.36669e-05 3.0486e-06 0)
(2.81318e-05 5.10143e-06 0)
(2.05643e-05 6.4075e-06 0)
(1.18804e-05 6.89577e-06 0)
(3.08949e-06 6.5636e-06 0)
(-4.72565e-06 5.46976e-06 0)
(-1.06913e-05 3.77562e-06 0)
(-1.41828e-05 1.70569e-06 0)
(-1.47766e-05 -5.11942e-07 0)
(-1.24006e-05 -2.61306e-06 0)
(-7.39837e-06 -4.38233e-06 0)
(2.4492e-08 -5.6423e-06 0)
(8.83559e-06 -6.27504e-06 0)
(1.77201e-05 -6.1627e-06 0)
(2.59367e-05 -5.36405e-06 0)
(3.25864e-05 -3.97323e-06 0)
(3.69424e-05 -2.13257e-06 0)
(3.84344e-05 -5.21325e-08 0)
(3.67339e-05 2.06686e-06 0)
(3.19045e-05 4.04651e-06 0)
(2.43514e-05 5.67743e-06 0)
(1.46693e-05 6.84741e-06 0)
(3.45467e-06 7.44344e-06 0)
(-8.33616e-06 7.42888e-06 0)
(-1.9565e-05 6.8455e-06 0)
(-2.95002e-05 5.7543e-06 0)
(-3.74509e-05 4.28849e-06 0)
(-4.285e-05 2.57293e-06 0)
(-4.53949e-05 7.62776e-07 0)
(-4.50156e-05 -9.83066e-07 0)
(-4.1827e-05 -2.54634e-06 0)
(-3.62233e-05 -3.82442e-06 0)
(-2.87291e-05 -4.73826e-06 0)
(-1.99533e-05 -5.2593e-06 0)
(-1.0578e-05 -5.38402e-06 0)
(-1.22512e-06 -5.1473e-06 0)
(7.47833e-06 -4.60491e-06 0)
(1.50128e-05 -3.81932e-06 0)
(2.10152e-05 -2.87933e-06 0)
(2.52596e-05 -1.85748e-06 0)
(2.76425e-05 -8.36427e-07 0)
(2.81893e-05 1.32655e-07 0)
(2.70034e-05 9.89484e-07 0)
(2.42912e-05 1.73515e-06 0)
(2.02917e-05 2.32187e-06 0)
(1.52626e-05 2.75944e-06 0)
(9.48478e-06 3.04552e-06 0)
(3.21602e-06 3.19564e-06 0)
(7.18807e-06 -0.000133741 0)
(2.19136e-05 -0.000132722 0)
(3.70609e-05 -0.000134666 0)
(5.26949e-05 -0.000137605 0)
(6.89594e-05 -0.000141476 0)
(8.61204e-05 -0.000146231 0)
(0.000104181 -0.000151762 0)
(0.000123323 -0.000157974 0)
(0.000143727 -0.000164717 0)
(0.000165414 -0.000171857 0)
(0.000188515 -0.000179186 0)
(0.000213134 -0.000186548 0)
(0.000239167 -0.00019372 0)
(0.000266661 -0.000200493 0)
(0.000295631 -0.000206701 0)
(0.000325878 -0.000212065 0)
(0.000357331 -0.000216397 0)
(0.000389865 -0.000219501 0)
(0.000423277 -0.000221184 0)
(0.000457283 -0.000221252 0)
(0.000491654 -0.000219573 0)
(0.000526047 -0.000216017 0)
(0.000560153 -0.000210498 0)
(0.000593632 -0.000202941 0)
(0.000626093 -0.000193358 0)
(0.000657251 -0.000181734 0)
(0.000686692 -0.000168148 0)
(0.000714086 -0.000152682 0)
(0.000739121 -0.000135453 0)
(0.000761483 -0.000116636 0)
(0.000780945 -9.6383e-05 0)
(0.000797303 -7.49508e-05 0)
(0.000810355 -5.25176e-05 0)
(0.000819951 -2.93673e-05 0)
(0.000826144 -5.77752e-06 0)
(0.000828766 1.80081e-05 0)
(0.000827548 4.16583e-05 0)
(0.000822266 6.50287e-05 0)
(0.000812989 8.7985e-05 0)
(0.000800077 0.000110286 0)
(0.000783781 0.000131725 0)
(0.000764329 0.000152107 0)
(0.000741888 0.000171227 0)
(0.000716557 0.000188913 0)
(0.00068854 0.000205002 0)
(0.000658088 0.000219368 0)
(0.000625413 0.000231874 0)
(0.00059072 0.000242453 0)
(0.000554496 0.000250998 0)
(0.000516824 0.000257465 0)
(0.000478017 0.000261806 0)
(0.000438541 0.000263998 0)
(0.000398669 0.000264025 0)
(0.000358486 0.0002619 0)
(0.000318647 0.00025765 0)
(0.000279703 0.000251376 0)
(0.000241468 0.000243062 0)
(0.000204378 0.000232874 0)
(0.000168943 0.000220855 0)
(0.000135194 0.000207181 0)
(0.000103835 0.000191956 0)
(7.50239e-05 0.000175408 0)
(4.88273e-05 0.00015766 0)
(2.55804e-05 0.00013892 0)
(5.53607e-06 0.000119373 0)
(-1.09246e-05 9.92122e-05 0)
(-2.42444e-05 7.87101e-05 0)
(-3.3989e-05 5.8108e-05 0)
(-4.00399e-05 3.76443e-05 0)
(-4.25969e-05 1.76061e-05 0)
(-4.1427e-05 -1.78372e-06 0)
(-3.67003e-05 -2.02945e-05 0)
(-2.86267e-05 -3.76347e-05 0)
(-1.73366e-05 -5.36369e-05 0)
(-2.74917e-06 -6.80169e-05 0)
(1.45797e-05 -8.05087e-05 0)
(3.38572e-05 -9.09809e-05 0)
(5.50205e-05 -9.92193e-05 0)
(7.78477e-05 -0.000105058 0)
(0.000101648 -0.000108497 0)
(0.000125879 -0.00010936 0)
(0.000150136 -0.000107733 0)
(0.000173859 -0.000103552 0)
(0.000196555 -9.69274e-05 0)
(0.000217637 -8.79613e-05 0)
(0.000236566 -7.681e-05 0)
(0.000252924 -6.36824e-05 0)
(0.000266108 -4.88672e-05 0)
(0.000275692 -3.26154e-05 0)
(0.00028155 -1.53107e-05 0)
(0.000283133 2.6981e-06 0)
(0.000280126 2.09783e-05 0)
(0.000272554 3.91389e-05 0)
(0.000260517 5.67638e-05 0)
(0.000244168 7.34348e-05 0)
(0.000223721 8.87169e-05 0)
(0.000199515 0.000102198 0)
(0.000171944 0.000113491 0)
(0.000141619 0.000122286 0)
(0.000109187 0.000128268 0)
(7.53392e-05 0.000131249 0)
(4.0896e-05 0.000131089 0)
(6.65248e-06 0.000127737 0)
(-2.64779e-05 0.000121241 0)
(-5.76644e-05 0.000111752 0)
(-8.60424e-05 9.94773e-05 0)
(-0.00011081 8.47592e-05 0)
(-0.000131305 6.80015e-05 0)
(-0.000146956 4.96793e-05 0)
(-0.000157257 3.03734e-05 0)
(-0.000161935 1.06702e-05 0)
(-0.000160736 -8.77571e-06 0)
(-0.000153658 -2.73418e-05 0)
(-0.000141275 -4.44175e-05 0)
(-0.000123893 -5.94456e-05 0)
(-0.000102203 -7.18408e-05 0)
(-7.71086e-05 -8.11717e-05 0)
(-4.94979e-05 -8.70983e-05 0)
(-2.0513e-05 -8.94388e-05 0)
(8.74768e-06 -8.80605e-05 0)
(3.69933e-05 -8.30926e-05 0)
(6.30447e-05 -7.47682e-05 0)
(8.585e-05 -6.34596e-05 0)
(0.000104483 -4.97026e-05 0)
(0.000118058 -3.41366e-05 0)
(0.000126078 -1.75033e-05 0)
(0.000128097 -5.8037e-07 0)
(0.000124071 1.57197e-05 0)
(0.000114364 3.07659e-05 0)
(9.95448e-05 4.37179e-05 0)
(8.05008e-05 5.40166e-05 0)
(5.81677e-05 6.10746e-05 0)
(3.38405e-05 6.46174e-05 0)
(8.84854e-06 6.45431e-05 0)
(-1.54053e-05 6.08595e-05 0)
(-3.7511e-05 5.38993e-05 0)
(-5.62897e-05 4.41753e-05 0)
(-7.07177e-05 3.23424e-05 0)
(-8.00871e-05 1.91873e-05 0)
(-8.40051e-05 5.63163e-06 0)
(-8.23179e-05 -7.42558e-06 0)
(-7.53765e-05 -1.91712e-05 0)
(-6.39349e-05 -2.88517e-05 0)
(-4.90351e-05 -3.58227e-05 0)
(-3.18528e-05 -3.9759e-05 0)
(-1.38163e-05 -4.04305e-05 0)
(3.77055e-06 -3.79404e-05 0)
(1.95192e-05 -3.26946e-05 0)
(3.21506e-05 -2.52447e-05 0)
(4.09458e-05 -1.63572e-05 0)
(4.53732e-05 -6.86795e-06 0)
(4.53037e-05 2.30322e-06 0)
(4.10865e-05 1.03553e-05 0)
(3.34272e-05 1.66204e-05 0)
(2.33635e-05 2.05511e-05 0)
(1.21262e-05 2.19029e-05 0)
(9.25194e-07 2.06656e-05 0)
(-8.91439e-06 1.70903e-05 0)
(-1.62845e-05 1.16938e-05 0)
(-2.04826e-05 5.15858e-06 0)
(-2.10512e-05 -1.77407e-06 0)
(-1.79607e-05 -8.30983e-06 0)
(-1.17019e-05 -1.37756e-05 0)
(-2.63602e-06 -1.75756e-05 0)
(8.10794e-06 -1.95444e-05 0)
(1.89635e-05 -1.90768e-05 0)
(2.88989e-05 -1.65563e-05 0)
(3.69115e-05 -1.22253e-05 0)
(4.21323e-05 -6.5651e-06 0)
(4.39301e-05 -1.6929e-07 0)
(4.20371e-05 6.29925e-06 0)
(3.65239e-05 1.22809e-05 0)
(2.78948e-05 1.72111e-05 0)
(1.68794e-05 2.06689e-05 0)
(4.17636e-06 2.2399e-05 0)
(-9.06319e-06 2.22888e-05 0)
(-2.15835e-05 2.04534e-05 0)
(-3.2549e-05 1.71268e-05 0)
(-4.12017e-05 1.26721e-05 0)
(-4.69601e-05 7.50335e-06 0)
(-4.94934e-05 2.09275e-06 0)
(-4.87863e-05 -3.11762e-06 0)
(-4.50283e-05 -7.74574e-06 0)
(-3.86652e-05 -1.15129e-05 0)
(-3.03101e-05 -1.41724e-05 0)
(-2.06579e-05 -1.56574e-05 0)
(-1.04597e-05 -1.59624e-05 0)
(-3.99079e-07 -1.51913e-05 0)
(8.87161e-06 -1.35208e-05 0)
(1.68033e-05 -1.11646e-05 0)
(2.30278e-05 -8.36185e-06 0)
(2.73315e-05 -5.34563e-06 0)
(2.96379e-05 -2.33238e-06 0)
(2.99991e-05 5.01894e-07 0)
(2.85733e-05 3.00609e-06 0)
(2.55817e-05 5.14882e-06 0)
(2.12724e-05 6.8363e-06 0)
(1.59476e-05 8.09749e-06 0)
(9.89302e-06 8.92754e-06 0)
(3.35544e-06 9.33617e-06 0)
(1.76268e-07 -0.000417923 0)
(6.95403e-07 -0.000424276 0)
(1.83742e-06 -0.000429748 0)
(4.10958e-06 -0.000437859 0)
(7.89551e-06 -0.000448529 0)
(1.37352e-05 -0.000461568 0)
(2.19774e-05 -0.0004767 0)
(3.29427e-05 -0.000493584 0)
(4.69223e-05 -0.000511785 0)
(6.42588e-05 -0.000530862 0)
(8.51505e-05 -0.00055028 0)
(0.000109543 -0.000569521 0)
(0.000137714 -0.000588015 0)
(0.000169187 -0.000605282 0)
(0.000204274 -0.000620698 0)
(0.000243005 -0.000633738 0)
(0.000284588 -0.000643815 0)
(0.000328882 -0.000650444 0)
(0.000375681 -0.000653171 0)
(0.000424366 -0.00065159 0)
(0.000474298 -0.000645411 0)
(0.00052495 -0.000634377 0)
(0.000575746 -0.000618343 0)
(0.000625852 -0.000597226 0)
(0.000674647 -0.000571088 0)
(0.000721552 -0.000540087 0)
(0.000765798 -0.000504399 0)
(0.000806948 -0.000464544 0)
(0.00084429 -0.000420868 0)
(0.000877483 -0.000373937 0)
(0.000905897 -0.000324254 0)
(0.000929417 -0.000272548 0)
(0.000947631 -0.000219309 0)
(0.000959893 -0.000165184 0)
(0.000966664 -0.000110754 0)
(0.000967499 -5.65097e-05 0)
(0.000962959 -3.0614e-06 0)
(0.000954148 4.89888e-05 0)
(0.000940695 9.92421e-05 0)
(0.000922309 0.000147255 0)
(0.000899218 0.000192714 0)
(0.000871642 0.000235257 0)
(0.00083986 0.000274641 0)
(0.000804245 0.000310591 0)
(0.000765219 0.000342914 0)
(0.000723108 0.000371431 0)
(0.000678415 0.000396009 0)
(0.000631483 0.000416561 0)
(0.000582695 0.000433012 0)
(0.000532558 0.000445282 0)
(0.000481395 0.000453463 0)
(0.000429703 0.000457446 0)
(0.000377782 0.000457373 0)
(0.000326044 0.000453223 0)
(0.000275384 0.000445343 0)
(0.000225858 0.000433565 0)
(0.000177707 0.000418226 0)
(0.000131678 0.00039945 0)
(8.81034e-05 0.000377471 0)
(4.71458e-05 0.000352544 0)
(9.61978e-06 0.000325029 0)
(-2.43812e-05 0.000294995 0)
(-5.46772e-05 0.000262973 0)
(-8.09449e-05 0.000229144 0)
(-0.000103099 0.000194061 0)
(-0.000120505 0.000157966 0)
(-0.000133274 0.000121372 0)
(-0.000141213 8.46914e-05 0)
(-0.000144428 4.83872e-05 0)
(-0.000142627 1.28842e-05 0)
(-0.00013594 -2.13496e-05 0)
(-0.000124836 -5.38537e-05 0)
(-0.000109322 -8.41831e-05 0)
(-8.97737e-05 -0.000111943 0)
(-6.60356e-05 -0.000136662 0)
(-3.90065e-05 -0.00015813 0)
(-9.13639e-06 -0.000175879 0)
(2.34208e-05 -0.000189634 0)
(5.73202e-05 -0.000199133 0)
(9.2493e-05 -0.000204239 0)
(0.000128096 -0.000204851 0)
(0.000163328 -0.000200881 0)
(0.000197712 -0.000192445 0)
(0.000230321 -0.000179627 0)
(0.000260515 -0.000162665 0)
(0.000287576 -0.000141858 0)
(0.000310808 -0.000117602 0)
(0.000329618 -9.03915e-05 0)
(0.000343517 -6.071e-05 0)
(0.000352022 -2.92035e-05 0)
(0.000354635 3.4325e-06 0)
(0.00035105 3.64883e-05 0)
(0.000341319 6.92201e-05 0)
(0.000325575 0.0001009 0)
(0.000304003 0.000130731 0)
(0.000276879 0.000157968 0)
(0.000244698 0.00018186 0)
(0.000208101 0.000201745 0)
(0.000167839 0.000217065 0)
(0.00012478 0.000227327 0)
(7.99975e-05 0.000232192 0)
(3.45111e-05 0.000231428 0)
(-1.0467e-05 0.000224971 0)
(-5.37525e-05 0.000212894 0)
(-9.42353e-05 0.000195487 0)
(-0.000130767 0.000173154 0)
(-0.000162304 0.000146518 0)
(-0.000187965 0.000116314 0)
(-0.000206951 8.34415e-05 0)
(-0.000218662 4.89066e-05 0)
(-0.000222822 1.37721e-05 0)
(-0.000219106 -2.07568e-05 0)
(-0.000207723 -5.36277e-05 0)
(-0.000189291 -8.37101e-05 0)
(-0.000164329 -0.000109964 0)
(-0.000133782 -0.000131445 0)
(-9.8875e-05 -0.000147386 0)
(-6.09981e-05 -0.000157192 0)
(-2.15143e-05 -0.000160516 0)
(1.8028e-05 -0.000157267 0)
(5.57533e-05 -0.0001476 0)
(9.02581e-05 -0.000132002 0)
(0.000120075 -0.000111191 0)
(0.000143931 -8.61031e-05 0)
(0.000160814 -5.79583e-05 0)
(0.000170035 -2.80348e-05 0)
(0.000171104 2.18109e-06 0)
(0.000164116 3.12651e-05 0)
(0.000149609 5.78204e-05 0)
(0.000128433 8.05567e-05 0)
(0.000101675 9.83548e-05 0)
(7.07882e-05 0.000110299 0)
(3.77403e-05 0.000115885 0)
(4.06902e-06 0.00011497 0)
(-2.82416e-05 0.000107602 0)
(-5.72097e-05 9.45161e-05 0)
(-8.13303e-05 7.65233e-05 0)
(-9.93376e-05 5.49658e-05 0)
(-0.000110263 3.12094e-05 0)
(-0.000113646 6.84255e-06 0)
(-0.000109554 -1.63575e-05 0)
(-9.85587e-05 -3.70713e-05 0)
(-8.16638e-05 -5.38813e-05 0)
(-6.04118e-05 -6.57608e-05 0)
(-3.64744e-05 -7.20713e-05 0)
(-1.16514e-05 -7.25698e-05 0)
(1.19718e-05 -6.73441e-05 0)
(3.26038e-05 -5.73004e-05 0)
(4.87172e-05 -4.34084e-05 0)
(5.92837e-05 -2.71122e-05 0)
(6.37199e-05 -9.93326e-06 0)
(6.19913e-05 6.54972e-06 0)
(5.47349e-05 2.08339e-05 0)
(4.29788e-05 3.1763e-05 0)
(2.81881e-05 3.83795e-05 0)
(1.20832e-05 4.03672e-05 0)
(-3.62647e-06 3.75889e-05 0)
(-1.71427e-05 3.07608e-05 0)
(-2.70342e-05 2.07485e-05 0)
(-3.24305e-05 8.80164e-06 0)
(-3.28262e-05 -3.66642e-06 0)
(-2.83081e-05 -1.5359e-05 0)
(-1.95513e-05 -2.50033e-05 0)
(-7.46203e-06 -3.16164e-05 0)
(6.89076e-06 -3.47821e-05 0)
(2.14759e-05 -3.38161e-05 0)
(3.44863e-05 -2.91824e-05 0)
(4.49263e-05 -2.14604e-05 0)
(5.16706e-05 -1.1489e-05 0)
(5.39762e-05 -3.36889e-07 0)
(5.1611e-05 1.08797e-05 0)
(4.48001e-05 2.11292e-05 0)
(3.41581e-05 2.94881e-05 0)
(2.06748e-05 3.52336e-05 0)
(5.32027e-06 3.79951e-05 0)
(-1.05138e-05 3.75992e-05 0)
(-2.53063e-05 3.43021e-05 0)
(-3.80659e-05 2.85076e-05 0)
(-4.79293e-05 2.08605e-05 0)
(-5.42439e-05 1.20902e-05 0)
(-5.67065e-05 3.00001e-06 0)
(-5.53776e-05 -5.71808e-06 0)
(-5.05719e-05 -1.33594e-05 0)
(-4.28453e-05 -1.9488e-05 0)
(-3.29557e-05 -2.37516e-05 0)
(-2.17648e-05 -2.60297e-05 0)
(-1.01265e-05 -2.63541e-05 0)
(1.1627e-06 -2.49255e-05 0)
(1.13806e-05 -2.20251e-05 0)
(1.99601e-05 -1.80365e-05 0)
(2.65344e-05 -1.33534e-05 0)
(3.09148e-05 -8.39333e-06 0)
(3.30659e-05 -3.46926e-06 0)
(3.30854e-05 1.11e-06 0)
(3.12178e-05 5.14056e-06 0)
(2.77269e-05 8.52126e-06 0)
(2.29063e-05 1.11854e-05 0)
(1.70958e-05 1.31495e-05 0)
(1.05592e-05 1.44297e-05 0)
(3.56811e-06 1.50678e-05 0)
(-1.31676e-05 -0.000175584 0)
(-3.87951e-05 -0.000180376 0)
(-6.30014e-05 -0.000193627 0)
(-8.46104e-05 -0.000213547 0)
(-0.000102512 -0.000239903 0)
(-0.000115435 -0.000272452 0)
(-0.000122443 -0.000310594 0)
(-0.000122426 -0.000353826 0)
(-0.000114704 -0.000401061 0)
(-9.87705e-05 -0.000451429 0)
(-7.42024e-05 -0.00050369 0)
(-4.09162e-05 -0.000556779 0)
(5.59261e-07 -0.000609306 0)
(5.03017e-05 -0.000659941 0)
(0.000108421 -0.000707159 0)
(0.000174256 -0.000749739 0)
(0.000247184 -0.000786322 0)
(0.000326086 -0.00081592 0)
(0.000410108 -0.000837429 0)
(0.000497825 -0.000849992 0)
(0.000587976 -0.000852923 0)
(0.000679268 -0.000845867 0)
(0.000770333 -0.000828603 0)
(0.000859599 -0.000801173 0)
(0.000945343 -0.000763768 0)
(0.00102667 -0.000717117 0)
(0.00110129 -0.000661716 0)
(0.00116809 -0.000598861 0)
(0.00122665 -0.000529428 0)
(0.00127599 -0.000454905 0)
(0.00131527 -0.000376349 0)
(0.00134453 -0.000295112 0)
(0.0013642 -0.000212405 0)
(0.00137382 -0.000129363 0)
(0.0013744 -4.7269e-05 0)
(0.00136589 3.31119e-05 0)
(0.00134774 0.00011123 0)
(0.00132108 0.000186383 0)
(0.00128687 0.000257964 0)
(0.00124588 0.000325362 0)
(0.00119885 0.000388178 0)
(0.00114642 0.000446028 0)
(0.00108924 0.00049863 0)
(0.00102771 0.000545751 0)
(0.00096256 0.000587217 0)
(0.000894338 0.000622893 0)
(0.000823718 0.000652617 0)
(0.000751184 0.000676408 0)
(0.000677243 0.000694186 0)
(0.00060273 0.00070599 0)
(0.000527825 0.000711755 0)
(0.000453182 0.000711737 0)
(0.000379419 0.000705752 0)
(0.00030742 0.000694195 0)
(0.000237261 0.000677143 0)
(0.000169332 0.00065476 0)
(0.000104592 0.000627329 0)
(4.30447e-05 0.000595223 0)
(-1.43772e-05 0.000558564 0)
(-6.72381e-05 0.000517836 0)
(-0.000115592 0.000473418 0)
(-0.000158756 0.00042564 0)
(-0.000196313 0.000375079 0)
(-0.000227958 0.00032213 0)
(-0.000253316 0.000267562 0)
(-0.000272219 0.000211799 0)
(-0.000284575 0.000155499 0)
(-0.000290289 9.93002e-05 0)
(-0.000289344 4.3877e-05 0)
(-0.000281925 -9.97143e-06 0)
(-0.000267806 -6.17393e-05 0)
(-0.000247423 -0.000110715 0)
(-0.000221244 -0.000156191 0)
(-0.000189391 -0.000197541 0)
(-0.000152465 -0.000234126 0)
(-0.000111165 -0.000265554 0)
(-6.6067e-05 -0.000291151 0)
(-1.79355e-05 -0.000310625 0)
(3.24038e-05 -0.000323588 0)
(8.38563e-05 -0.000329661 0)
(0.000135685 -0.00032891 0)
(0.000186811 -0.000321145 0)
(0.000236221 -0.00030654 0)
(0.000283058 -0.000285277 0)
(0.000326168 -0.000257732 0)
(0.000364635 -0.000224378 0)
(0.000397572 -0.000185845 0)
(0.000424216 -0.000142884 0)
(0.000443828 -9.63247e-05 0)
(0.000455805 -4.71397e-05 0)
(0.000459567 3.64546e-06 0)
(0.000454816 5.48734e-05 0)
(0.00044165 0.000105493 0)
(0.000420163 0.000154295 0)
(0.000390611 0.000200065 0)
(0.000353448 0.000241645 0)
(0.000309349 0.000277982 0)
(0.000259299 0.000308024 0)
(0.000204408 0.000330936 0)
(0.000145941 0.000345969 0)
(8.52848e-05 0.000352626 0)
(2.39323e-05 0.000350611 0)
(-3.65768e-05 0.000339845 0)
(-9.45299e-05 0.000320514 0)
(-0.000148382 0.00029303 0)
(-0.000196585 0.000258126 0)
(-0.000237681 0.000216721 0)
(-0.000270509 0.000169979 0)
(-0.000294035 0.000119301 0)
(-0.000307543 6.62189e-05 0)
(-0.000310512 1.23819e-05 0)
(-0.000302863 -4.01431e-05 0)
(-0.000284913 -9.00195e-05 0)
(-0.000257427 -0.0001354 0)
(-0.000221226 -0.000174727 0)
(-0.000177674 -0.00020657 0)
(-0.000128496 -0.000229811 0)
(-7.55032e-05 -0.000243519 0)
(-2.08461e-05 -0.000247229 0)
(3.33885e-05 -0.000240888 0)
(8.48088e-05 -0.000224779 0)
(0.000131257 -0.00019968 0)
(0.000170914 -0.000166719 0)
(0.000202044 -0.000127438 0)
(0.000223302 -8.3622e-05 0)
(0.000233861 -3.74436e-05 0)
(0.000233184 8.97273e-06 0)
(0.00022157 5.34104e-05 0)
(0.000199778 9.36846e-05 0)
(0.000169018 0.000127789 0)
(0.000130938 0.000154053 0)
(8.76126e-05 0.000171257 0)
(4.17024e-05 0.000178544 0)
(-4.54653e-06 0.000175794 0)
(-4.83176e-05 0.000163266 0)
(-8.70247e-05 0.000142042 0)
(-0.000118631 0.000113508 0)
(-0.000141367 7.96772e-05 0)
(-0.00015428 4.27163e-05 0)
(-0.000156531 5.26548e-06 0)
(-0.000148539 -3.02357e-05 0)
(-0.000131344 -6.15327e-05 0)
(-0.000106272 -8.6564e-05 0)
(-7.56204e-05 -0.000103843 0)
(-4.17684e-05 -0.000112259 0)
(-7.20673e-06 -0.000111795 0)
(2.51325e-05 -0.000102592 0)
(5.26931e-05 -8.60046e-05 0)
(7.35564e-05 -6.37831e-05 0)
(8.63666e-05 -3.79706e-05 0)
(9.05475e-05 -1.12156e-05 0)
(8.61414e-05 1.41773e-05 0)
(7.41933e-05 3.58893e-05 0)
(5.62334e-05 5.20991e-05 0)
(3.44582e-05 6.15843e-05 0)
(1.11989e-05 6.37528e-05 0)
(-1.10352e-05 5.8644e-05 0)
(-2.97053e-05 4.74012e-05 0)
(-4.31146e-05 3.14858e-05 0)
(-4.99959e-05 1.2767e-05 0)
(-4.99397e-05 -6.55015e-06 0)
(-4.31958e-05 -2.4447e-05 0)
(-3.07241e-05 -3.89923e-05 0)
(-1.39752e-05 -4.88072e-05 0)
(5.54859e-06 -5.30564e-05 0)
(2.52507e-05 -5.12705e-05 0)
(4.26557e-05 -4.40231e-05 0)
(5.64109e-05 -3.21959e-05 0)
(6.51626e-05 -1.71585e-05 0)
(6.80509e-05 -4.88877e-07 0)
(6.49294e-05 1.60949e-05 0)
(5.61547e-05 3.10697e-05 0)
(4.26167e-05 4.31167e-05 0)
(2.56716e-05 5.12203e-05 0)
(6.61747e-06 5.491e-05 0)
(-1.27517e-05 5.39806e-05 0)
(-3.06065e-05 4.88897e-05 0)
(-4.57538e-05 4.02545e-05 0)
(-5.7158e-05 2.90587e-05 0)
(-6.41299e-05 1.63826e-05 0)
(-6.64234e-05 3.36228e-06 0)
(-6.41685e-05 -8.9546e-06 0)
(-5.78371e-05 -1.96595e-05 0)
(-4.82297e-05 -2.80832e-05 0)
(-3.62705e-05 -3.38438e-05 0)
(-2.30152e-05 -3.67462e-05 0)
(-9.4987e-06 -3.68981e-05 0)
(3.38227e-06 -3.46083e-05 0)
(1.48318e-05 -3.03218e-05 0)
(2.42269e-05 -2.45734e-05 0)
(3.11946e-05 -1.79443e-05 0)
(3.56109e-05 -1.10108e-05 0)
(3.75107e-05 -4.22758e-06 0)
(3.70528e-05 2.0156e-06 0)
(3.4578e-05 7.4622e-06 0)
(3.04253e-05 1.19621e-05 0)
(2.494e-05 1.54838e-05 0)
(1.84916e-05 1.80326e-05 0)
(1.13797e-05 1.96813e-05 0)
(3.84484e-06 2.04945e-05 0)
(-4.35272e-05 -5.48421e-05 0)
(-0.000129797 -7.69579e-05 0)
(-0.000213772 -0.000110788 0)
(-0.00029303 -0.000161474 0)
(-0.000365703 -0.00022803 0)
(-0.000429077 -0.000310009 0)
(-0.0004814 -0.000404437 0)
(-0.000519726 -0.000510946 0)
(-0.000541826 -0.000623851 0)
(-0.000546898 -0.00074275 0)
(-0.000534108 -0.000862884 0)
(-0.000503143 -0.000982589 0)
(-0.000452808 -0.00109832 0)
(-0.000383306 -0.00120783 0)
(-0.000295474 -0.00130841 0)
(-0.000190697 -0.00139769 0)
(-7.14603e-05 -0.00147353 0)
(6.02264e-05 -0.00153388 0)
(0.000203121 -0.00157728 0)
(0.000353953 -0.00160221 0)
(0.00050926 -0.00160722 0)
(0.000665959 -0.0015919 0)
(0.000821326 -0.0015556 0)
(0.000972409 -0.00149937 0)
(0.00111524 -0.00142285 0)
(0.00124788 -0.00132905 0)
(0.00136695 -0.00121749 0)
(0.00147047 -0.00109373 0)
(0.00155724 -0.000956844 0)
(0.00162646 -0.000813612 0)
(0.0016785 -0.000664879 0)
(0.00171301 -0.000514836 0)
(0.001731 -0.000365771 0)
(0.00173201 -0.000220002 0)
(0.00171843 -7.88648e-05 0)
(0.00169324 5.60293e-05 0)
(0.00165733 0.000183629 0)
(0.00161169 0.000303172 0)
(0.00155669 0.000414021 0)
(0.00149319 0.000515816 0)
(0.00142254 0.000608257 0)
(0.00134559 0.000691172 0)
(0.00126334 0.00076466 0)
(0.00117664 0.000828574 0)
(0.00108635 0.000883039 0)
(0.00099293 0.000928385 0)
(0.000897465 0.000964625 0)
(0.000800647 0.000991744 0)
(0.000702929 0.00101044 0)
(0.0006049 0.00102023 0)
(0.000507617 0.00102181 0)
(0.000411172 0.00101527 0)
(0.000316306 0.0010007 0)
(0.0002244 0.000978573 0)
(0.000135372 0.000949055 0)
(4.99619e-05 0.000912464 0)
(-3.0871e-05 0.000869228 0)
(-0.000107066 0.000819675 0)
(-0.000177948 0.00076424 0)
(-0.000242554 0.000703384 0)
(-0.000300769 0.000637586 0)
(-0.00035193 0.000567727 0)
(-0.000395711 0.000494184 0)
(-0.000431325 0.000417941 0)
(-0.000458651 0.00033947 0)
(-0.000477588 0.000259864 0)
(-0.000487688 0.00017974 0)
(-0.000488894 0.000100189 0)
(-0.00048099 2.19954e-05 0)
(-0.00046431 -5.37796e-05 0)
(-0.000439304 -0.000126267 0)
(-0.000406054 -0.000194545 0)
(-0.000364964 -0.000257638 0)
(-0.000316634 -0.000314665 0)
(-0.000261807 -0.000364887 0)
(-0.000201365 -0.000407423 0)
(-0.000136076 -0.00044166 0)
(-6.7027e-05 -0.000467028 0)
(4.67285e-06 -0.000483066 0)
(7.7626e-05 -0.000489451 0)
(0.000150499 -0.000485936 0)
(0.000222201 -0.000472614 0)
(0.000291266 -0.000449574 0)
(0.000356332 -0.000417257 0)
(0.000416036 -0.000376074 0)
(0.000469119 -0.000326777 0)
(0.000514332 -0.000270161 0)
(0.000550692 -0.000207427 0)
(0.000577291 -0.000139855 0)
(0.000593344 -6.87616e-05 0)
(0.000598092 4.36144e-06 0)
(0.00059136 7.79045e-05 0)
(0.000573249 0.000150314 0)
(0.000543687 0.000219862 0)
(0.000503188 0.00028488 0)
(0.000452552 0.000343638 0)
(0.000392678 0.000394676 0)
(0.000324843 0.000436595 0)
(0.00025058 0.0004682 0)
(0.000171619 0.000488518 0)
(9.00528e-05 0.000496903 0)
(7.83003e-06 0.000492816 0)
(-7.28346e-05 0.000476223 0)
(-0.000149759 0.000447533 0)
(-0.000220782 0.000407323 0)
(-0.000283841 0.000356684 0)
(-0.000337136 0.000296984 0)
(-0.000379005 0.000229925 0)
(-0.00040812 0.000157533 0)
(-0.000423599 8.20417e-05 0)
(-0.000424399 5.87887e-06 0)
(-0.000410995 -6.84769e-05 0)
(-0.000384209 -0.000138695 0)
(-0.000344491 -0.000202157 0)
(-0.000293293 -0.000256725 0)
(-0.000232513 -0.000300419 0)
(-0.000164437 -0.000331666 0)
(-9.16925e-05 -0.000349287 0)
(-1.72323e-05 -0.000352654 0)
(5.61002e-05 -0.000341685 0)
(0.000125067 -0.000317025 0)
(0.000186912 -0.000279614 0)
(0.000239038 -0.000231316 0)
(0.00027925 -0.00017427 0)
(0.000305738 -0.000111205 0)
(0.000317486 -4.50614e-05 0)
(0.000314155 2.09566e-05 0)
(0.00029601 8.37334e-05 0)
(0.000264135 0.000140238 0)
(0.000220375 0.000187593 0)
(0.000167189 0.000223423 0)
(0.000107374 0.00024622 0)
(4.46006e-05 0.000254876 0)
(-1.79272e-05 0.000248914 0)
(-7.65101e-05 0.000229285 0)
(-0.000127655 0.000197426 0)
(-0.000168683 0.000155515 0)
(-0.000197393 0.000106361 0)
(-0.000212203 5.33943e-05 0)
(-0.000212482 3.48417e-09 0)
(-0.000199052 -5.03073e-05 0)
(-0.000173212 -9.41188e-05 0)
(-0.000137145 -0.000128599 0)
(-9.37982e-05 -0.000151662 0)
(-4.68074e-05 -0.000161983 0)
(4.01655e-07 -0.000159401 0)
(4.40413e-05 -0.00014457 0)
(8.04045e-05 -0.000119346 0)
(0.000107252 -8.63189e-05 0)
(0.000122651 -4.87733e-05 0)
(0.000125905 -1.00724e-05 0)
(0.000117553 2.60595e-05 0)
(9.89938e-05 5.65434e-05 0)
(7.26667e-05 7.87984e-05 0)
(4.1561e-05 9.11957e-05 0)
(8.88013e-06 9.30181e-05 0)
(-2.17284e-05 8.45644e-05 0)
(-4.69402e-05 6.74781e-05 0)
(-6.46439e-05 4.39218e-05 0)
(-7.32858e-05 1.68172e-05 0)
(-7.23648e-05 -1.0851e-05 0)
(-6.24081e-05 -3.61119e-05 0)
(-4.48883e-05 -5.63765e-05 0)
(-2.19542e-05 -6.96926e-05 0)
(4.32835e-06 -7.50432e-05 0)
(3.04842e-05 -7.19745e-05 0)
(5.33611e-05 -6.13596e-05 0)
(7.12353e-05 -4.45507e-05 0)
(8.23872e-05 -2.34921e-05 0)
(8.5839e-05 -4.78867e-07 0)
(8.15231e-05 2.22398e-05 0)
(7.01347e-05 4.24535e-05 0)
(5.28521e-05 5.84459e-05 0)
(3.15119e-05 6.89716e-05 0)
(7.86128e-06 7.34215e-05 0)
(-1.58595e-05 7.16705e-05 0)
(-3.74118e-05 6.43574e-05 0)
(-5.53793e-05 5.24534e-05 0)
(-6.85476e-05 3.72808e-05 0)
(-7.61967e-05 2.03337e-05 0)
(-7.81173e-05 3.13074e-06 0)
(-7.46196e-05 -1.29543e-05 0)
(-6.63859e-05 -2.67612e-05 0)
(-5.44481e-05 -3.74616e-05 0)
(-3.99731e-05 -4.45592e-05 0)
(-2.4229e-05 -4.79043e-05 0)
(-8.46765e-06 -4.76877e-05 0)
(6.26591e-06 -4.43104e-05 0)
(1.90966e-05 -3.84474e-05 0)
(2.93787e-05 -3.08053e-05 0)
(3.67433e-05 -2.2172e-05 0)
(4.11268e-05 -1.32145e-05 0)
(4.26582e-05 -4.58749e-06 0)
(4.15987e-05 3.25016e-06 0)
(3.83818e-05 1.0002e-05 0)
(3.3441e-05 1.55197e-05 0)
(2.71834e-05 1.97489e-05 0)
(2.00207e-05 2.27894e-05 0)
(1.22566e-05 2.47279e-05 0)
(4.12477e-06 2.5665e-05 0)
(-0.000111147 0.000849754 0)
(-0.00033137 0.000816031 0)
(-0.000546685 0.000748358 0)
(-0.000749162 0.000646727 0)
(-0.000935393 0.000513771 0)
(-0.00109456 0.000349728 0)
(-0.00122686 0.000162656 0)
(-0.00131785 -5.06585e-05 0)
(-0.00136793 -0.000274416 0)
(-0.00138036 -0.000518079 0)
(-0.00134907 -0.000770423 0)
(-0.00128111 -0.00102722 0)
(-0.00117508 -0.00127837 0)
(-0.00103612 -0.00151757 0)
(-0.000864659 -0.00173781 0)
(-0.000664981 -0.00193304 0)
(-0.00044028 -0.00209857 0)
(-0.000195079 -0.00223037 0)
(6.69301e-05 -0.00232562 0)
(0.000341633 -0.00238159 0)
(0.000622657 -0.00239745 0)
(0.00090578 -0.00237292 0)
(0.00118264 -0.00230782 0)
(0.00145021 -0.00220358 0)
(0.00169829 -0.00206177 0)
(0.00192677 -0.00188821 0)