/*--------------------------------*- C++ -*----------------------------------*\
  =========                 |
  \\      /  F ield         | OpenFOAM: The Open Source CFD Toolbox
   \\    /   O peration     | Website:  https://openfoam.org
    \\  /    A nd           | Version:  12
     \\/     M anipulation  |
\*---------------------------------------------------------------------------*/
FoamFile
{
    format      ascii;
    class       volScalarField;
    location    "0.21";
    object      epsilon;
}
// * * * * * * * * * * * * * * * * * * * * * * * * * * * * * * * * * * * * * //

dimensions      [0 2 -3 0 0 0 0];

internalField   nonuniform List<scalar> 
12225
(
278.515
263.66
249.434
236.839
226.738
219.483
215.069
213.263
213.706
215.99
219.712
224.503
230.042
236.064
242.37
248.79
255.358
264.869
61.116
86.6953
97.9913
107.208
118.465
132.557
149.41
168.611
189.576
211.681
234.334
257.024
279.348
301.006
321.907
341.885
362.458
381.003
25.2776
36.183
43.3817
48.6213
53.3863
58.3361
63.7704
69.8253
76.5257
83.8234
91.6282
99.8308
108.32
116.995
125.789
134.682
143.821
153.201
17.5217
21.2986
24.7145
27.61
30.1619
32.54
34.8666
37.2278
39.6769
42.2404
44.9256
47.7283
50.6372
53.64
56.728
59.9087
63.2006
66.6297
15.4878
16.7519
18.1858
19.5889
20.9095
22.149
23.3263
24.4652
25.5863
26.705
27.8311
28.9702
30.1251
31.2975
32.4887
33.7038
34.9477
36.2169
14.9084
15.2396
15.7463
16.334
16.9476
17.5589
18.1558
18.7356
19.3001
19.8526
20.3961
20.9335
21.4667
21.9976
22.5279
23.0599
23.5954
24.1285
14.7451
14.7391
14.8342
15.0036
15.2215
15.4679
15.7286
15.9948
16.2619
16.5274
16.7902
17.0499
17.3065
17.5604
17.812
18.0622
18.3113
18.5551
14.7012
14.5825
14.5116
14.4858
14.4981
14.5403
14.6043
14.6837
14.7737
14.8707
14.9725
15.0772
15.1837
15.2913
15.3996
15.5084
15.6174
15.724
14.6901
14.5373
14.407
14.3009
14.2182
14.1571
14.1145
14.0875
14.0733
14.0693
14.0735
14.0844
14.1006
14.1212
14.1452
14.1723
14.2017
14.2319
14.6874
14.5252
14.3761
14.2411
14.1204
14.0137
13.9203
13.8391
13.7688
13.7083
13.6564
13.6119
13.574
13.5419
13.5147
13.492
13.4731
13.4573
14.6868
14.5221
14.3677
14.2236
14.0896
13.9656
13.8512
13.746
13.6495
13.5611
13.4801
13.4061
13.3383
13.2763
13.2197
13.1678
13.1204
13.0772
14.6866
14.5213
14.3656
14.219
14.0812
13.9518
13.8305
13.7169
13.6105
13.5111
13.4182
13.3314
13.2503
13.1747
13.104
13.038
12.9764
12.9194
14.6865
14.521
14.3648
14.2175
14.0785
13.9473
13.8234
13.7065
13.5963
13.4922
13.3941
13.3015
13.2142
13.1319
13.0543
12.981
12.912
12.8475
14.6864
14.5208
14.3645
14.2169
14.0774
13.9456
13.8209
13.7029
13.5913
13.4855
13.3853
13.2904
13.2005
13.1153
13.0345
12.9578
12.8853
12.8172
14.6864
14.5207
14.3643
14.2165
14.0769
13.9449
13.8199
13.7016
13.5895
13.4832
13.3824
13.2868
13.196
13.1098
13.0279
12.9501
12.8762
12.8068
14.6863
14.5206
14.3641
14.2163
14.0766
13.9444
13.8194
13.7009
13.5886
13.4822
13.3812
13.2854
13.1943
13.1079
13.0257
12.9475
12.8732
12.8033
14.6863
14.5205
14.364
14.2161
14.0763
13.9441
13.8189
13.7004
13.5881
13.4815
13.3805
13.2845
13.1934
13.1068
13.0245
12.9462
12.8718
12.8018
14.6863
14.5204
14.3639
14.216
14.0761
13.9439
13.8186
13.7001
13.5877
13.4811
13.3799
13.2839
13.1927
13.1061
13.0237
12.9454
12.8709
12.8008
14.6863
14.5204
14.3639
14.2159
14.0761
13.9438
13.8186
13.6999
13.5875
13.4809
13.3797
13.2837
13.1925
13.1058
13.0233
12.9449
12.8704
12.8003
14.6863
14.5205
14.3639
14.216
14.0762
13.9439
13.8187
13.7001
13.5877
13.4811
13.38
13.284
13.1928
13.1061
13.0237
12.9454
12.8709
12.8008
14.6863
14.5205
14.364
14.2162
14.0764
13.9443
13.8192
13.7007
13.5885
13.4821
13.3812
13.2854
13.1945
13.1082
13.0262
12.9483
12.8742
12.8046
14.6863
14.5206
14.3643
14.2167
14.0773
13.9457
13.8214
13.7039
13.5928
13.4879
13.3886
13.2947
13.2059
13.1218
13.0423
12.9669
12.8956
12.8288
14.6865
14.5212
14.3659
14.2202
14.0837
13.956
13.8368
13.7256
13.6218
13.525
13.4348
13.3506
13.272
13.1986
13.13
13.0659
13.006
12.9505
14.6876
14.5264
14.3793
14.2467
14.1282
14.0231
13.9302
13.8484
13.7762
13.7126
13.6565
13.6068
13.5628
13.5237
13.489
13.4581
13.4306
13.4066
14.6976
14.5664
14.4707
14.4075
14.3714
14.3568
14.3584
14.372
14.3941
14.4224
14.455
14.4908
14.5287
14.568
14.6085
14.6496
14.6913
14.7333
14.7737
14.8187
14.9603
15.1591
15.3863
15.6233
15.8598
16.0904
16.3134
16.5284
16.7358
16.9365
17.1312
17.321
17.5064
17.6882
17.8667
18.0416
15.2587
16.1151
17.0712
17.9727
18.7879
19.5238
20.1945
20.8149
21.3988
21.9573
22.4986
23.029
23.5526
24.0724
24.5901
25.1066
25.622
26.1339
18.0414
22.0079
24.9885
27.1532
28.8883
30.4049
31.8125
33.1785
34.5438
35.9311
37.3513
38.8083
40.3012
41.8261
43.3772
44.9484
46.533
48.1182
34.024
45.6878
51.3769
54.9425
58.081
61.2982
64.7511
68.4836
72.4798
76.6966
81.0839
85.5918
90.1739
94.7885
99.3998
103.979
108.51
112.967
163.308
157.417
151.704
146.261
141.3
136.947
133.25
130.206
127.78
125.919
124.558
123.637
123.093
122.871
122.917
123.187
123.641
124.242
0.245014
0.290078
0.476516
0.645743
0.828449
1.03855
1.27851
1.55393
1.87055
2.20052
2.54554
2.90397
3.27324
3.65074
4.03401
4.42075
4.80879
5.19602
5.58031
5.95956
6.33158
6.69415
7.04493
7.38147
7.7012
8.00131
8.27865
8.52944
8.74897
8.93157
9.07188
9.16861
9.23043
9.27763
9.32586
9.34563
9.23487
9.37124
39.8038
9.41308
9.38792
9.43054
9.4249
40.6677
43.4217
46.4296
49.6294
53.0052
56.5536
60.2724
64.1615
68.222
72.4553
76.8637
81.4491
86.2137
91.1598
96.2892
101.604
107.105
112.794
118.673
124.741
130.998
137.446
144.083
150.908
157.92
165.117
172.497
180.056
187.792
195.701
203.778
212.019
220.418
228.97
237.67
246.509
255.482
264.582
273.799
283.127
292.557
302.079
311.685
321.366
331.11
340.908
350.749
360.622
370.515
380.416
390.314
400.196
410.052
419.874
429.661
439.423
449.191
458.931
468.539
478.015
487.35
496.532
505.546
514.376
523.006
531.421
539.604
547.541
555.218
562.618
569.728
576.535
583.026
589.188
595.009
600.478
605.586
610.322
614.678
618.646
622.219
625.391
628.157
630.512
632.454
633.98
635.089
635.78
636.055
635.914
635.362
634.402
633.038
631.276
629.123
626.586
623.674
620.397
616.764
612.786
608.474
603.842
598.902
593.668
588.153
582.371
576.339
570.071
563.582
556.889
550.007
542.952
535.739
528.388
520.911
513.327
505.651
497.89
490.089
482.215
474.361
466.605
460.133
457.09
454.422
451.76
449.088
446.405
443.71
440.996
438.242
435.403
432.376
428.928
424.453
417.468
401.556
0.904258
0.558706
0.575025
0.662521
0.790358
0.94915
1.13789
1.35525
1.59838
1.86199
2.14275
2.4381
2.74595
3.06459
3.39255
3.72857
4.07155
4.42056
4.77481
5.13368
5.49683
5.86419
6.2361
6.61343
6.99779
7.39183
7.79967
8.22759
8.68488
9.18481
9.74498
10.3851
11.1202
11.9537
12.8935
13.9954
15.3102
16.456
18.368
19.0074
20.656
22.1259
23.812
26.0753
27.6816
29.2818
30.9273
32.6308
34.3944
36.2197
38.1083
40.0614
42.0803
44.166
46.3196
48.5416
50.8329
53.1939
55.625
58.1265
60.6985
63.341
66.054
68.8372
71.6902
74.6124
77.6031
80.6616
83.7869
86.9779
90.2332
93.5516
96.9314
100.371
103.868
107.422
111.029
114.688
118.395
122.15
125.948
129.787
133.665
137.578
141.522
145.495
149.493
153.512
157.549
161.599
165.658
169.723
173.789
177.853
181.91
185.958
189.997
194.03
198.064
202.12
206.202
210.247
214.243
218.186
222.071
225.891
229.641
233.313
236.903
240.404
243.811
247.117
250.317
253.406
256.377
259.226
261.948
264.539
266.993
269.306
271.475
273.496
275.365
277.08
278.637
280.035
281.271
282.344
283.251
283.993
284.568
284.977
285.219
285.296
285.207
284.954
284.54
283.965
283.233
282.345
281.306
280.118
278.785
277.312
275.702
273.96
272.091
270.1
267.991
265.772
263.447
261.021
258.502
255.894
253.205
250.438
247.604
244.704
241.749
238.742
235.685
232.602
229.456
226.331
223.261
220.483
218.348
216.374
214.433
212.503
210.579
208.662
206.751
204.846
202.944
201.037
199.103
197.128
194.989
193.754
1.78546
0.930043
0.857381
0.910284
1.01382
1.15385
1.32548
1.52551
1.75064
1.99726
2.26211
2.54258
2.83663
3.14282
3.46012
3.78788
4.12574
4.47357
4.8315
5.19994
5.57961
5.9716
6.37745
6.79921
7.23961
7.70215
8.19132
8.71277
9.27349
9.88165
10.5457
11.2718
12.0603
12.9049
13.801
14.7564
15.7669
16.7981
17.916
19.0368
20.2418
21.479
22.7615
24.0934
25.4145
26.7639
28.1571
29.5997
31.0932
32.6381
34.2349
35.884
37.586
39.3412
41.15
43.0126
44.9295
46.9006
48.9263
51.0065
53.1412
55.3304
57.5739
59.8714
62.2226
64.627
67.0842
69.5934
72.154
74.7652
77.426
80.1354
82.8923
85.6953
88.5432
91.4346
94.3677
97.3411
100.353
103.401
106.484
109.599
112.745
115.918
119.117
122.339
125.582
128.843
132.119
135.408
138.707
142.013
145.325
148.64
151.956
155.274
158.593
161.914
165.24
168.571
171.886
175.172
178.421
181.627
184.785
187.892
190.941
193.927
196.847
199.695
202.465
205.155
207.758
210.27
212.687
215.006
217.221
219.328
221.325
223.208
224.974
226.619
228.14
229.537
230.805
231.944
232.951
233.825
234.566
235.171
235.642
235.977
236.176
236.241
236.172
235.97
235.636
235.171
234.579
233.861
233.019
232.056
230.976
229.781
228.475
227.062
225.545
223.929
222.217
220.415
218.526
216.555
214.507
212.388
210.201
207.95
205.644
203.282
200.875
198.426
195.926
193.419
190.885
188.354
185.854
183.477
181.325
179.271
177.255
175.257
173.274
171.306
169.355
167.425
165.522
163.658
161.848
160.158
158.675
158.198
2.79124
1.35041
1.16938
1.18097
1.26455
1.3922
1.55422
1.74567
1.96288
2.20253
2.46167
2.73782
3.02907
3.33408
3.65203
3.98252
4.32551
4.68129
5.05039
5.43365
5.83217
6.24735
6.68091
7.13489
7.61169
8.11407
8.64514
9.20834
9.8074
10.4461
11.1277
11.8544
12.6257
13.4393
14.2936
15.1901
16.1296
17.1101
18.1366
19.205
20.3187
21.4732
22.6672
23.8985
25.1622
26.4635
27.8075
29.1972
30.6343
32.1197
33.6542
35.2382
36.8723
38.5569
40.2924
42.0792
43.9177
45.8081
47.7507
49.7457
51.7933
53.8936
56.0466
58.2522
60.5104
62.8209
65.1834
67.5976
70.063
72.5789
75.1448
77.7597
80.4228
83.1331
85.8893
88.6903
91.5346
94.4208
97.3472
100.312
103.314
106.35
109.419
112.518
115.646
118.799
121.976
125.174
128.391
131.624
134.87
138.128
141.395
144.67
147.949
151.233
154.52
157.808
161.095
164.369
167.621
170.842
174.027
177.169
180.264
183.307
186.293
189.216
192.071
194.855
197.561
200.185
202.723
205.169
207.52
209.772
211.919
213.959
215.888
217.702
219.399
220.975
222.427
223.754
224.953
226.022
226.96
227.765
228.437
228.975
229.379
229.648
229.782
229.783
229.652
229.389
228.996
228.474
227.827
227.056
226.163
225.152
224.026
222.789
221.442
219.992
218.441
216.793
215.053
213.226
211.316
209.327
207.262
205.131
202.935
200.676
198.369
196.005
193.6
191.165
188.696
186.209
183.705
181.199
178.712
176.289
173.97
171.717
169.5
167.306
165.134
162.984
160.86
158.769
156.722
154.737
152.848
151.131
149.701
149.025
3.76737
1.76376
1.47081
1.44358
1.50904
1.62614
1.78062
1.96576
2.17738
2.41221
2.66751
2.94101
3.23095
3.53609
3.8557
4.18947
4.53747
4.9001
5.27802
5.67214
6.0836
6.51376
6.96416
7.43655
7.93287
8.45518
9.00568
9.58663
10.2003
10.8489
11.5344
12.2582
13.021
13.8228
14.6638
15.5447
16.4665
17.4298
18.4353
19.4831
20.5734
21.7057
22.8799
24.0954
25.352
26.6512
27.9951
29.3855
30.8236
32.3107
33.8477
35.4352
37.0742
38.7652
40.509
42.3062
44.1573
46.063
48.0239
50.0403
52.1127
54.2416
56.4272
58.6697
60.9694
63.3263
65.7403
68.2113
70.7391
73.3233
75.9634
78.6587
81.4084
84.2118
87.0676
89.9747
92.9317
95.9371
98.9893
102.087
105.227
108.408
111.628
114.885
118.175
121.497
124.848
128.226
131.627
135.049
138.489
141.945
145.414
148.892
152.379
155.87
159.364
162.857
166.339
169.802
173.238
176.64
180.002
183.318
186.584
189.793
192.939
196.018
199.023
201.949
204.792
207.545
210.204
212.763
215.219
217.566
219.8
221.918
223.914
225.786
227.53
229.144
230.624
231.968
233.173
234.239
235.164
235.946
236.584
237.079
237.429
237.636
237.699
237.62
237.399
237.038
236.54
235.905
235.137
234.239
233.213
232.062
230.791
229.403
227.902
226.291
224.577
222.763
220.853
218.853
216.769
214.604
212.36
210.051
207.677
205.234
202.751
200.22
197.649
195.046
192.414
189.762
187.096
184.425
181.767
179.145
176.582
174.066
171.584
169.129
166.702
164.304
161.942
159.624
157.364
155.185
153.125
151.259
149.683
148.655
4.65462
2.13683
1.74558
1.68376
1.73284
1.84031
1.98783
2.16706
2.37324
2.60303
2.85386
3.12364
3.41077
3.71413
4.03302
4.36717
4.71668
5.08194
5.46359
5.86253
6.27982
6.71669
7.17455
7.65491
8.15942
8.6898
9.24784
9.83535
10.4542
11.106
11.7925
12.5151
13.275
14.0732
14.9103
15.7874
16.7053
17.6648
18.6667
19.7116
20.8
21.9325
23.1094
24.3314
25.5989
26.913
28.2749
29.6861
31.1479
32.6614
34.2279
35.8484
37.524
39.2559
41.0449
42.8921
44.7985
46.765
48.7925
50.8818
53.0339
55.2493
57.5287
59.8729
62.2821
64.7568
67.2973
69.9036
72.5758
75.3136
78.1168
80.9848
83.917
86.9125
89.9703
93.0892
96.2677
99.5042
102.797
106.144
109.543
112.992
116.488
120.029
123.612
127.233
130.891
134.582
138.303
142.05
145.82
149.61
153.416
157.236
161.064
164.898
168.734
172.565
176.378
180.166
183.921
187.639
191.311
194.932
198.495
201.994
205.423
208.775
212.044
215.223
218.308
221.292
224.17
226.936
229.584
232.11
234.509
236.777
238.909
240.901
242.749
244.451
246.004
247.405
248.652
249.742
250.676
251.451
252.067
252.523
252.82
252.958
252.938
252.761
252.429
251.944
251.308
250.523
249.593
248.521
247.31
245.965
244.49
242.889
241.165
239.325
237.374
235.317
233.158
230.902
228.56
226.134
223.619
221.043
218.403
215.701
212.951
210.155
207.319
204.451
201.555
198.638
195.709
192.775
189.849
186.948
184.084
181.257
178.463
175.701
172.972
170.281
167.634
165.042
162.521
160.097
157.808
155.719
153.898
152.49
5.40711
2.46333
1.98681
1.89405
1.92799
2.02617
2.16666
2.33961
2.5397
2.76347
3.00843
3.27265
3.55469
3.85353
4.16854
4.49949
4.84647
5.20985
5.59026
5.98854
6.40569
6.84289
7.30143
7.78274
8.28831
8.81974
9.37865
9.96673
10.5856
11.237
11.9224
12.6435
13.4014
14.1976
15.0332
15.9092
16.8268
17.787
18.7907
19.8391
20.9329
22.0733
23.2611
24.4973
25.7829
27.1191
28.5072
29.9486
31.4448
32.9971
34.6072
36.2765
38.0064
39.7985
41.6541
43.5747
45.5618
47.6167
49.7407
51.9352
54.2013
56.5403
58.9532
61.441
64.0045
66.6444
69.3613
72.1557
75.0277
77.9774
81.0046
84.109
87.2899
90.5465
93.8778
97.2824
100.759
104.305
107.92
111.6
115.343
119.147
123.008
126.924
130.891
134.906
138.965
143.064
147.201
151.37
155.567
159.789
164.031
168.289
172.557
176.832
181.109
185.37
189.608
193.816
197.986
202.111
206.183
210.197
214.143
218.015
221.806
225.509
229.116
232.62
236.015
239.294
242.452
245.48
248.375
251.13
253.739
256.199
258.503
260.649
262.631
264.447
266.094
267.569
268.87
269.995
270.942
271.711
272.302
272.714
272.947
273.003
272.882
272.587
272.119
271.481
270.677
269.708
268.58
267.295
265.857
264.272
262.546
260.682
258.686
256.561
254.319
251.964
249.497
246.923
244.264
241.517
238.685
235.783
232.815
229.785
226.703
223.575
220.407
217.206
213.979
210.732
207.473
204.21
200.953
197.715
194.505
191.328
188.185
185.078
182.01
178.988
176.019
173.117
170.298
167.588
165.022
162.658
160.536
158.74
6.03887
2.74249
2.19158
2.07072
2.09021
2.17902
2.312
2.47798
2.67104
2.8876
3.12518
3.38199
3.65673
3.94849
4.25673
4.58128
4.92223
5.27997
5.65512
6.04849
6.46107
6.89399
7.34851
7.826
8.32793
8.85581
9.41125
9.99586
10.6113
11.2591
11.941
12.6586
13.4133
14.2066
15.0399
15.9147
16.8321
17.7935
18.8003
19.8537
20.955
22.1057
23.3072
24.5607
25.8677
27.2298
28.6484
30.1255
31.6626
33.2617
34.9246
36.6533
38.4497
40.3158
42.2535
44.2649
46.3517
48.5159
50.7594
53.084
55.4914
57.9832
60.561
63.2263
65.9801
68.8237
71.758
74.7837
77.9012
81.1108
84.4125
87.8061
91.2909
94.8661
98.5306
102.283
106.121
110.043
114.047
118.13
122.289
126.52
130.82
135.187
139.614
144.1
148.638
153.226
157.857
162.528
167.233
171.967
176.725
181.5
186.289
191.083
195.875
200.643
205.381
210.082
214.737
219.339
223.88
228.35
232.742
237.047
241.257
245.364
249.359
253.236
256.985
260.601
264.076
267.402
270.574
273.586
276.431
279.104
281.6
283.913
286.041
287.979
289.725
291.275
292.628
293.783
294.737
295.49
296.041
296.392
296.543
296.495
296.25
295.81
295.177
294.356
293.35
292.163
290.799
289.263
287.557
285.691
283.672
281.503
279.188
276.73
274.15
271.45
268.633
265.706
262.683
259.567
256.365
253.087
249.739
246.329
242.865
239.353
235.802
232.218
228.608
224.98
221.341
217.7
214.065
210.446
206.854
203.293
199.769
196.285
192.847
189.463
186.143
182.898
179.749
176.719
173.841
171.16
168.7
166.512
6.54788
2.97268
2.35847
2.21225
2.21782
2.29695
2.42178
2.57995
2.76501
2.9732
3.20205
3.44988
3.71551
3.99814
4.29734
4.613
4.94526
5.29453
5.66145
6.04681
6.45161
6.87697
7.32414
7.79446
8.28937
8.81039
9.3591
9.9371
10.546
11.1876
11.8635
12.5753
13.3247
14.1135
14.9431
15.8153
16.7316
17.6937
18.7032
19.7619
20.8714
22.0335
23.25
24.5228
25.8537
27.2448
28.698
30.2155
31.7996
33.4526
35.1769
36.975
38.8493
40.8024
42.8369
44.9552
47.16
49.4536
51.8387
54.3174
56.8922
59.5652
62.3384
65.2138
68.193
71.2775
74.4686
77.7674
81.1745
84.6903
88.3151
92.0485
95.89
99.8386
103.893
108.052
112.312
116.672
121.129
125.679
130.32
135.046
139.854
144.739
149.697
154.722
159.811
164.956
170.153
175.396
180.678
185.995
191.338
196.702
202.079
207.463
212.827
218.161
223.458
228.708
233.904
239.035
244.093
249.067
253.948
258.727
263.393
267.939
272.354
276.631
280.761
284.735
288.546
292.186
295.649
298.927
302.014
304.904
307.592
310.072
312.34
314.393
316.227
317.841
319.231
320.397
321.338
322.053
322.542
322.806
322.847
322.665
322.265
321.648
320.816
319.776
318.532
317.089
315.452
313.625
311.61
309.422
307.067
304.552
301.881
299.06
296.104
293.017
289.808
286.484
283.054
279.528
275.912
272.215
268.446
264.613
260.725
256.788
252.812
248.804
244.771
240.722
236.665
232.607
228.557
224.524
220.518
216.545
212.613
208.726
204.893
201.122
197.423
193.812
190.305
186.927
183.706
180.678
177.854
175.272
6.93626
3.15403
2.48775
2.31901
2.31119
2.38033
2.49635
2.64588
2.82204
3.02087
3.23991
3.47756
3.73273
4.00476
4.29331
4.59833
4.92003
5.25887
5.61547
5.99068
6.38547
6.80096
7.23841
7.69914
8.1846
8.6963
9.23582
9.80482
10.405
11.038
11.7058
12.41
13.1526
13.9353
14.7601
15.6289
16.5436
17.5062
18.5189
19.5836
20.7025
21.8779
23.1121
24.4073
25.7661
27.191
28.6845
30.2495
31.8887
33.605
35.4016
37.2815
39.2478
41.3038
43.4527
45.6977
48.042
50.4888
53.0412
55.7021
58.4745
61.3611
64.3644
67.4869
70.7307
74.0977
77.5895
81.2073
84.9522
88.8246
92.8247
96.9523
101.207
105.586
110.09
114.716
119.461
124.322
129.296
134.379
139.566
144.854
150.235
155.706
161.26
166.892
172.595
178.363
184.19
190.069
195.992
201.953
207.943
213.955
219.98
226
231.986
237.933
243.831
249.672
255.446
261.141
266.747
272.254
277.649
282.922
288.064
293.062
297.909
302.595
307.109
311.444
315.59
319.54
323.286
326.821
330.138
333.231
336.094
338.721
341.108
343.252
345.149
346.798
348.196
349.343
350.239
350.882
351.273
351.414
351.307
350.955
350.36
349.526
348.456
347.156
345.633
343.893
341.942
339.785
337.429
334.883
332.156
329.256
326.189
322.965
319.593
316.083
312.443
308.682
304.81
300.836
296.769
292.618
288.393
284.102
279.754
275.359
270.925
266.46
261.973
257.472
252.965
248.461
243.968
239.494
235.05
230.643
226.281
221.971
217.722
213.544
209.447
205.448
201.563
197.814
194.227
190.831
187.625
184.644
7.21026
3.28857
2.58127
2.39293
2.37235
2.43129
2.53793
2.67812
2.84461
3.03332
3.24178
3.46843
3.71229
3.97279
4.24968
4.543
4.853
5.18017
5.52518
5.88887
6.27224
6.6764
7.10261
7.55221
8.02665
8.52749
9.05633
9.61489
10.205
10.8284
11.487
12.183
12.9182
13.6949
14.5152
15.3814
16.2958
17.2609
18.279
19.3529
20.4852
21.6786
22.936
24.2605
25.6549
27.1226
28.6668
30.291
31.9986
33.7934
35.6791
37.6595
39.7386
41.9203
44.2087
46.6077
49.1213
51.7534
54.5077
57.3879
60.3974
63.5396
66.8175
70.234
73.7917
77.4927
81.3389
85.3317
89.4722
93.7609
98.1977
102.782
107.514
112.39
117.41
122.569
127.866
133.297
138.856
144.54
150.342
156.257
162.279
168.4
174.615
180.915
187.295
193.746
200.262
206.833
213.452
220.111
226.8
233.509
240.228
246.91
253.549
260.136
266.662
273.114
279.483
285.755
291.921
297.965
303.877
309.643
315.253
320.697
325.963
331.041
335.921
340.595
345.052
349.284
353.284
357.045
360.559
363.82
366.821
369.556
372.021
374.213
376.13
377.769
379.131
380.213
381.017
381.542
381.789
381.759
381.457
380.886
380.051
378.955
377.603
376.001
374.158
372.08
369.774
367.246
364.506
361.562
358.424
355.101
351.602
347.936
344.114
340.145
336.04
331.809
327.462
323.008
318.459
313.824
309.113
304.337
299.503
294.623
289.706
284.76
279.794
274.818
269.839
264.867
259.91
254.978
250.078
245.221
240.414
235.666
230.987
226.387
221.878
217.476
213.197
209.062
205.093
201.312
197.714
194.333
7.37977
3.37985
2.64204
2.43707
2.40453
2.45321
2.5501
2.68045
2.83678
3.01489
3.21232
3.42757
3.65973
3.90831
4.17314
4.45432
4.75217
5.0672
5.40011
5.75176
6.12316
6.51545
6.9299
7.3679
7.83094
8.32062
8.83866
9.38686
9.96716
10.5816
11.2322
11.9214
12.6513
13.4245
14.2436
15.1111
16.03
17.0031
18.0335
19.1243
20.2788
21.5006
22.793
24.1599
25.605
27.1322
28.7457
30.4498
32.2487
34.1471
36.1494
38.2606
40.4852
42.8282
45.2945
47.8887
50.6158
53.4803
56.4867
59.6393
62.942
66.3985
70.0122
73.7865
77.7241
81.8274
86.0983
90.5381
95.1478
99.9276
104.877
109.995
115.281
120.731
126.343
132.114
138.038
144.113
150.331
156.687
163.175
169.788
176.515
183.351
190.286
197.313
204.424
211.61
218.863
226.174
233.533
240.931
248.359
255.804
263.212
270.57
277.871
285.103
292.254
299.312
306.265
313.1
319.806
326.368
332.768
338.996
345.041
350.89
356.533
361.959
367.158
372.121
376.836
381.297
385.495
389.423
393.074
396.446
399.525
402.305
404.785
406.963
408.837
410.405
411.667
412.623
413.273
413.619
413.663
413.406
412.855
412.012
410.883
409.473
407.789
405.837
403.626
401.164
398.457
395.517
392.35
388.968
385.38
381.598
377.63
373.487
369.182
364.724
360.124
355.394
350.545
345.587
340.531
335.389
330.171
324.888
319.55
314.166
308.748
303.304
297.845
292.378
286.914
281.461
276.029
270.625
265.261
259.944
254.684
249.491
244.374
239.345
234.417
229.603
224.922
220.391
216.03
211.857
207.862
204.082
7.45771
3.43261
2.67393
2.45528
2.41175
2.45039
2.53741
2.65774
2.80373
2.97115
3.15754
3.36147
3.58208
3.81896
4.07201
4.34138
4.62743
4.93072
5.25199
5.59213
5.9522
6.33337
6.73699
7.16451
7.61753
8.09777
8.6071
9.14751
9.72114
10.3303
10.9773
11.6649
12.3958
13.1727
13.9989
14.8774
15.8117
16.8053
17.8621
18.9858
20.1805
21.4506
22.8005
24.2346
25.7578
27.3749
29.0909
30.911
32.8407
34.8854
37.0507
39.3423
41.7659
44.3273
47.0322
49.8863
52.8952
56.0643
59.3986
62.9029
66.5812
70.4372
74.4745
78.6966
83.1061
87.7053
92.4958
97.4785
102.654
108.021
113.579
119.326
125.259
131.376
137.67
144.139
150.776
157.575
164.53
171.634
178.878
186.255
193.751
201.357
209.064
216.865
224.75
232.709
240.733
248.813
256.938
265.097
273.282
281.424
289.509
297.525
305.462
313.306
321.046
328.667
336.156
343.501
350.691
357.712
364.536
371.156
377.561
383.74
389.682
395.376
400.811
405.978
410.866
415.469
419.777
423.784
427.483
430.869
433.935
436.675
439.087
441.168
442.918
444.335
445.42
446.173
446.596
446.691
446.461
445.91
445.042
443.863
442.379
440.597
438.524
436.167
433.536
430.639
427.487
424.088
420.453
416.592
412.518
408.24
403.771
399.122
394.305
389.331
384.213
378.962
373.59
368.109
362.531
356.867
351.128
345.326
339.472
333.576
327.648
321.699
315.739
309.778
303.823
297.886
291.975
286.099
280.268
274.491
268.778
263.139
257.585
252.127
246.778
241.552
236.467
231.538
226.783
222.217
217.828
213.655
7.45952
3.45239
2.68131
2.4519
2.39859
2.42773
2.50519
2.61577
2.75174
2.90892
3.08489
3.27825
3.48823
3.71448
3.95696
4.21588
4.49166
4.78494
5.0965
5.42732
5.77854
6.15146
6.54754
6.96839
7.41581
7.89173
8.39827
8.93775
9.51263
10.1256
10.7795
11.4775
12.2229
13.019
13.8698
14.779
15.7508
16.7898
17.9004
19.0877
20.3567
21.7128
23.1616
24.7087
26.36
28.1212
29.9985
31.9984
34.1273
36.3918
38.7986
41.3543
44.0656
46.9392
49.9815
53.1988
56.5975
60.1835
63.9626
67.9399
72.1176
76.499
81.0875
85.8861
90.8969
96.1215
101.56
107.214
113.08
119.158
125.444
131.936
138.629
145.518
152.597
159.859
167.297
174.903
182.669
190.587
198.65
206.851
215.161
223.576
232.087
240.686
249.361
258.104
266.905
275.754
284.64
293.548
302.4
311.182
319.881
328.486
336.982
345.357
353.596
361.685
369.611
377.359
384.917
392.27
399.399
406.294
412.942
419.331
425.45
431.289
436.838
442.086
447.026
451.648
455.945
459.912
463.541
466.828
469.767
472.355
474.589
476.466
477.988
479.153
479.963
480.418
480.523
480.279
479.691
478.764
477.503
475.915
474.007
471.787
469.262
466.442
463.336
459.954
456.307
452.406
448.262
443.886
439.291
434.488
429.49
424.309
418.958
413.45
407.796
402.01
396.104
390.091
383.982
377.791
371.528
365.205
358.834
352.425
345.991
339.54
333.084
326.632
320.193
313.778
307.395
301.054
294.765
288.537
282.38
276.304
270.321
264.442
258.681
253.05
247.567
242.247
237.103
232.151
227.376
222.821
7.40266
3.44516
2.66884
2.4316
2.37007
2.39078
2.45963
2.56144
2.68856
2.83687
3.00402
3.18869
3.39021
3.60829
3.84297
4.09458
4.36362
4.65086
4.95722
5.28384
5.63206
6.00339
6.39954
6.82245
7.27424
7.75726
8.27407
8.82749
9.42056
10.0566
10.7392
11.4722
12.2598
13.1065
14.0168
14.9958
16.0486
17.181
18.3988
19.7084
21.1164
22.6295
24.2551
26.0004
27.8721
29.8769
32.0223
34.316
36.7658
39.3793
42.164
45.1275
48.277
51.6196
55.1619
58.9106
62.8717
67.0513
71.4558
76.0936
80.9575
86.0491
91.3722
96.9289
102.72
108.744
115.002
121.489
128.203
135.141
142.296
149.664
157.238
165.01
172.972
181.116
189.432
197.91
206.54
215.311
224.214
233.237
242.363
251.582
260.883
270.256
279.692
289.182
298.713
308.284
317.847
327.334
336.733
346.03
355.213
364.266
373.175
381.928
390.509
398.905
407.101
415.084
422.841
430.357
437.618
444.612
451.326
457.75
463.872
469.683
475.174
480.334
485.157
489.635
493.761
497.529
500.935
503.973
506.64
508.934
510.852
512.394
513.56
514.35
514.767
514.814
514.493
513.809
512.767
511.374
509.634
507.557
505.149
502.42
499.379
496.035
492.4
488.484
484.297
479.853
475.164
470.24
465.096
459.744
454.197
448.468
442.57
436.517
430.321
423.997
417.556
411.011
404.376
397.662
390.883
384.049
377.173
370.265
363.338
356.4
349.464
342.538
335.633
328.758
321.922
315.136
308.408
301.748
295.166
288.673
282.28
275.998
269.841
263.822
257.956
252.259
246.743
241.42
236.275
231.355
7.30188
3.41599
2.64051
2.39849
2.33083
2.34493
2.40703
2.50216
2.62285
2.76511
2.92673
3.10651
3.3039
3.51878
3.75136
4.00214
4.27187
4.56155
4.87245
5.20603
5.56405
5.94848
6.36158
6.80588
7.28417
7.79957
8.3555
8.95573
9.60431
10.3056
11.0645
11.8863
12.7768
13.7419
14.7881
15.9213
17.1486
18.4777
19.9163
21.4728
23.1558
24.9743
26.9379
29.0577
31.3405
33.7902
36.4172
39.2307
42.2392
45.4508
48.8733
52.5139
56.3793
60.4755
64.8082
69.3821
74.2016
79.2702
84.5908
90.1654
95.9919
102.069
108.395
114.969
121.788
128.848
136.145
143.673
151.425
159.395
167.574
175.955
184.527
193.281
202.207
211.294
220.53
229.904
239.404
249.018
258.736
268.543
278.429
288.382
298.391
308.447
318.54
328.668
338.806
348.872
358.837
368.688
378.41
387.991
397.415
406.671
415.743
424.618
433.284
441.726
449.931
457.888
465.582
473.002
480.135
486.969
493.495
499.701
505.577
511.116
516.308
521.146
525.623
529.732
533.468
536.826
539.803
542.394
544.598
546.413
547.838
548.873
549.519
549.78
549.656
549.152
548.273
547.023
545.408
543.436
541.114
538.45
535.453
532.132
528.498
524.561
520.332
515.824
511.047
506.014
500.739
495.233
489.51
483.584
477.468
471.176
464.72
458.115
451.374
444.511
437.538
430.468
423.316
416.092
408.81
401.481
394.117
386.73
379.33
371.928
364.535
357.16
349.813
342.504
335.241
328.035
320.894
313.828
306.848
299.963
293.185
286.525
279.995
273.61
267.384
261.33
255.46
249.787
244.294
239.032
7.19582
3.37714
2.60626
2.36333
2.29348
2.30521
2.36531
2.45914
2.57952
2.72268
2.88664
3.07045
3.27384
3.497
3.74053
4.00539
4.29283
4.60448
4.94228
5.30851
5.70582
6.13721
6.60609
7.11627
7.67199
8.27787
8.93918
9.66175
10.4517
11.315
12.2589
13.2915
14.4217
15.6596
17.0147
18.4914
20.101
21.8541
23.7615
25.8339
28.0819
30.5164
33.1478
35.9865
39.041
42.3187
45.8277
49.5756
53.5691
57.8141
62.3156
67.0775
72.1028
77.3934
82.9504
88.7738
94.8629
101.216
107.83
114.702
121.826
129.196
136.806
144.649
152.718
161.005
169.502
178.199
187.086
196.155
205.394
214.792
224.339
234.024
243.834
253.759
263.787
273.906
284.105
294.372
304.698
315.072
325.481
335.924
346.383
356.864
367.341
377.733
387.997
398.13
408.117
417.947
427.605
437.08
446.359
455.429
464.278
472.894
481.266
489.382
497.229
504.798
512.076
519.053
525.719
532.064
538.078
543.753
549.08
554.051
558.66
562.901
566.767
570.254
573.357
576.072
578.398
580.331
581.87
583.016
583.768
584.127
584.096
583.677
582.874
581.692
580.136
578.211
575.925
573.285
570.299
566.977
563.326
559.359
555.085
550.515
545.661
540.535
535.149
529.517
523.65
517.563
511.268
504.779
498.11
491.275
484.286
477.158
469.904
462.537
455.071
447.518
439.891
432.203
424.466
416.691
408.891
401.075
393.256
385.442
377.646
369.875
362.14
354.449
346.812
339.238
331.736
324.316
316.986
309.758
302.641
295.648
288.79
282.081
275.534
269.163
262.978
256.991
251.186
245.618
7.10845
3.33761
2.57502
2.33678
2.27114
2.28781
2.35425
2.45635
2.58731
2.7438
2.92429
3.12838
3.35644
3.60942
3.8888
4.19659
4.53525
4.90782
5.31783
5.76937
6.26718
6.81658
7.4235
8.09483
8.83798
9.66026
10.571
11.5815
12.703
13.9407
15.3078
16.8172
18.482
20.3154
22.3302
24.538
26.9513
29.5827
32.4442
35.5471
38.9016
42.517
46.4012
50.561
55.0008
59.724
64.7323
70.0263
75.6055
81.4678
87.61
94.0277
100.715
107.667
114.875
122.332
130.03
137.959
146.11
154.474
163.041
171.8
180.742
189.855
199.129
208.554
218.12
227.816
237.632
247.558
257.583
267.697
277.891
288.155
298.478
308.852
319.266
329.714
340.185
350.671
361.17
371.669
382.156
392.663
403.124
413.467
423.659
433.701
443.58
453.287
462.81
472.139
481.264
490.173
498.857
507.304
515.505
523.45
531.127
538.529
545.644
552.463
558.978
565.178
571.056
576.603
581.811
586.673
591.182
595.332
599.117
602.531
605.571
608.232
610.511