/*--------------------------------*- C++ -*----------------------------------*\
  =========                 |
  \\      /  F ield         | OpenFOAM: The Open Source CFD Toolbox
   \\    /   O peration     | Website:  https://openfoam.org
    \\  /    A nd           | Version:  12
     \\/     M anipulation  |
\*---------------------------------------------------------------------------*/
FoamFile
{
    format      ascii;
    class       volScalarField;
    location    "0.21";
    object      k;
}
// * * * * * * * * * * * * * * * * * * * * * * * * * * * * * * * * * * * * * //

dimensions      [0 2 -2 0 0 0 0];

internalField   nonuniform List<scalar> 
12225
(
0.353921
0.335043
0.316966
0.300961
0.288125
0.278907
0.273297
0.271002
0.271565
0.274467
0.279197
0.285285
0.292323
0.299977
0.307989
0.316147
0.324494
0.33658
0.436864
0.448979
0.438084
0.43306
0.438786
0.453585
0.474798
0.499976
0.527132
0.554781
0.581892
0.607802
0.632132
0.654706
0.675628
0.694796
0.714279
0.729579
0.395187
0.410874
0.410631
0.405747
0.40201
0.400924
0.402614
0.406807
0.41308
0.420976
0.430061
0.439955
0.450348
0.460995
0.471756
0.482519
0.493567
0.504269
0.379641
0.38484
0.386546
0.38573
0.383905
0.382026
0.380567
0.379739
0.379605
0.380147
0.3813
0.382983
0.385115
0.387619
0.390442
0.393549
0.396958
0.400567
0.374976
0.3759
0.376239
0.375721
0.37457
0.373084
0.371496
0.369967
0.368593
0.367426
0.366484
0.365768
0.365267
0.364967
0.364854
0.364919
0.365158
0.36554
0.373488
0.372555
0.371759
0.370807
0.369631
0.368275
0.366809
0.3653
0.363803
0.362358
0.36099
0.359714
0.358537
0.357461
0.356488
0.355616
0.354844
0.354168
0.373012
0.371296
0.369813
0.368416
0.367025
0.36561
0.364168
0.362711
0.361257
0.359824
0.358425
0.357073
0.355773
0.354533
0.353354
0.35224
0.351191
0.350215
0.372865
0.370838
0.369004
0.367311
0.365711
0.364174
0.362679
0.361216
0.359783
0.358381
0.357015
0.355687
0.354402
0.353161
0.351967
0.350822
0.349728
0.348696
0.37282
0.37068
0.368691
0.366836
0.365095
0.363449
0.36188
0.360376
0.358928
0.357531
0.356182
0.354879
0.353622
0.352409
0.351241
0.350118
0.349041
0.348022
0.372806
0.370628
0.368578
0.366648
0.364829
0.36311
0.361482
0.359934
0.358457
0.357045
0.355693
0.354397
0.353152
0.351958
0.350812
0.349712
0.348659
0.347663
0.372801
0.370609
0.368537
0.366576
0.36472
0.362964
0.361299
0.359718
0.358216
0.356785
0.35542
0.354118
0.352874
0.351684
0.350547
0.349459
0.34842
0.347439
0.372799
0.370602
0.368522
0.36655
0.36468
0.362907
0.361225
0.359627
0.358108
0.356664
0.355289
0.353978
0.352729
0.351537
0.3504
0.349314
0.348279
0.347303
0.372797
0.370599
0.368514
0.366537
0.36466
0.36288
0.361188
0.359581
0.358053
0.3566
0.355216
0.353899
0.352644
0.351448
0.350308
0.34922
0.348185
0.34721
0.372796
0.370596
0.368509
0.366528
0.364649
0.362864
0.361168
0.359555
0.358022
0.356563
0.355174
0.353851
0.352592
0.351391
0.350247
0.349157
0.348118
0.347141
0.372795
0.370593
0.368505
0.366523
0.364641
0.362853
0.361154
0.359539
0.358003
0.35654
0.355148
0.353823
0.35256
0.351356
0.350209
0.349116
0.348074
0.347094
0.372794
0.370592
0.368502
0.366518
0.364634
0.362845
0.361145
0.359527
0.357989
0.356525
0.355131
0.353803
0.352538
0.351333
0.350184
0.349088
0.348044
0.347061
0.372794
0.37059
0.368499
0.366515
0.36463
0.362839
0.361137
0.359519
0.357979
0.356514
0.355118
0.353789
0.352523
0.351316
0.350165
0.349067
0.348021
0.347037
0.372794
0.370589
0.368498
0.366512
0.364627
0.362835
0.361132
0.359513
0.357972
0.356506
0.355109
0.353779
0.352511
0.351303
0.350151
0.349052
0.348005
0.347019
0.372793
0.370589
0.368497
0.366512
0.364626
0.362834
0.361131
0.359511
0.357969
0.356502
0.355105
0.353774
0.352506
0.351297
0.350144
0.349045
0.347997
0.34701
0.372794
0.37059
0.368498
0.366513
0.364628
0.362836
0.361133
0.359514
0.357973
0.356506
0.355109
0.353779
0.352511
0.351302
0.350149
0.349049
0.348002
0.347015
0.372794
0.370591
0.3685
0.366516
0.364632
0.362841
0.36114
0.359522
0.357982
0.356517
0.355122
0.353793
0.352526
0.351319
0.350168
0.349069
0.348023
0.347037
0.372795
0.370593
0.368504
0.366522
0.364641
0.362855
0.361158
0.359546
0.358012
0.356552
0.355163
0.353839
0.352578
0.351375
0.350229
0.349134
0.348091
0.347108
0.372796
0.370598
0.368518
0.366547
0.364681
0.362912
0.361235
0.359642
0.358127
0.356685
0.355311
0.354001
0.352751
0.351556
0.350415
0.349324
0.348282
0.347298
0.372804
0.370631
0.368592
0.366676
0.364872
0.363166
0.361548
0.360006
0.358532
0.357121
0.355767
0.354467
0.353219
0.35202
0.350868
0.349762
0.348701
0.347697
0.372856
0.370818
0.368973
0.367264
0.365645
0.364085
0.362567
0.361083
0.359631
0.358213
0.356833
0.355493
0.354196
0.352946
0.351744
0.35059
0.349487
0.348445
0.373166
0.37177
0.370579
0.369371
0.368049
0.366605
0.365072
0.363492
0.361905
0.360342
0.358826
0.357372
0.355991
0.354688
0.353468
0.352329
0.351272
0.350303
0.374797
0.375829
0.376175
0.375401
0.373834
0.371876
0.369792
0.36774
0.365814
0.364067
0.362524
0.361195
0.360075
0.359156
0.358424
0.357863
0.357457
0.35719
0.382729
0.39167
0.392375
0.388805
0.384384
0.380403
0.377247
0.374998
0.373621
0.373038
0.373153
0.373866
0.375083
0.376716
0.378685
0.380921
0.383363
0.385944
0.407499
0.414514
0.405423
0.395992
0.390555
0.389292
0.391456
0.396216
0.402836
0.410726
0.419433
0.428619
0.438028
0.447471
0.456815
0.465964
0.474872
0.483454
0.360554
0.347547
0.334933
0.322917
0.311965
0.302353
0.29419
0.287471
0.282115
0.278004
0.275002
0.272967
0.271767
0.271275
0.271378
0.271974
0.272977
0.274303
0.00085339
0.00460819
0.00756395
0.010241
0.013126
0.01644
0.0202207
0.0245555
0.0295346
0.034717
0.0401275
0.0457399
0.0515128
0.0574046
0.0633761
0.0693907
0.0754139
0.0814123
0.0873527
0.0932018
0.0989258
0.10449
0.109858
0.114993
0.119854
0.124398
0.128576
0.132327
0.13558
0.138254
0.140291
0.141706
0.142655
0.143395
0.144027
0.144141
0.143285
0.144396
0.142779
0.145434
0.144594
0.145253
0.145585
0.146399
0.152848
0.159765
0.166956
0.174372
0.181995
0.189808
0.197804
0.205976
0.214318
0.222828
0.231503
0.240339
0.249334
0.258484
0.267788
0.277241
0.286841
0.296583
0.306464
0.316479
0.326623
0.336891
0.347277
0.357776
0.368382
0.379087
0.389885
0.400769
0.411731
0.422764
0.433858
0.445007
0.456201
0.467432
0.478692
0.48997
0.501258
0.512548
0.523829
0.535093
0.546329
0.557529
0.568682
0.57978
0.590812
0.601768
0.612639
0.623413
0.634081
0.644633
0.655059
0.665352
0.675506
0.685523
0.695418
0.705226
0.714913
0.724376
0.733619
0.742638
0.751425
0.759969
0.76826
0.776286
0.784036
0.791501
0.79867
0.805534
0.812082
0.818306
0.824197
0.829749
0.834952
0.8398
0.844288
0.848408
0.852157
0.855529
0.85852
0.861128
0.86335
0.865183
0.866626
0.867679
0.868342
0.868614
0.868498
0.867996
0.86711
0.865843
0.864201
0.862186
0.859806
0.857065
0.853971
0.85053
0.846751
0.842642
0.838211
0.833469
0.828424
0.823089
0.817473
0.811588
0.805445
0.799056
0.792434
0.785591
0.77854
0.771294
0.763866
0.756268
0.748517
0.740623
0.732602
0.724467
0.716223
0.707911
0.699501
0.691079
0.682721
0.675589
0.6718
0.668372
0.664947
0.661505
0.658047
0.654572
0.651073
0.647529
0.643894
0.640069
0.635821
0.63055
0.622774
0.606022
0.0031507
0.0126419
0.0188986
0.0239295
0.0286132
0.0332021
0.0379812
0.0430721
0.0484954
0.0541966
0.060127
0.066242
0.0725013
0.0788696
0.085316
0.091813
0.0983352
0.104859
0.111361
0.117819
0.124213
0.13052
0.136721
0.142797
0.148729
0.154498
0.160082
0.165457
0.170597
0.175488
0.180167
0.184761
0.18948
0.194507
0.199858
0.205508
0.211832
0.21856
0.225692
0.233977
0.243356
0.253547
0.265035
0.276939
0.288607
0.300181
0.312167
0.324561
0.337332
0.350458
0.363924
0.377721
0.391845
0.40629
0.421056
0.43614
0.45154
0.467254
0.483281
0.499618
0.516261
0.533209
0.550456
0.567999
0.585832
0.60395
0.622347
0.641015
0.659947
0.679135
0.698569
0.718239
0.738136
0.758249
0.778565
0.799073
0.81976
0.840614
0.861619
0.882763
0.904031
0.925409
0.946881
0.968432
0.990047
1.01171
1.03341
1.05512
1.07683
1.09852
1.12018
1.1418
1.16334
1.1848
1.20616
1.22739
1.24848
1.26941
1.29016
1.31062
1.33064
1.35037
1.36981
1.38895
1.40777
1.42624
1.44434
1.46206
1.47937
1.49625
1.51267
1.52862
1.54408
1.55903
1.57344
1.5873
1.6006
1.61332
1.62543
1.63693
1.6478
1.65803
1.66761
1.67653
1.68477
1.69233
1.6992
1.70537
1.71084
1.71561
1.71967
1.72301
1.72565
1.72758
1.7288
1.72932
1.72914
1.72827
1.72671
1.72447
1.72156
1.718
1.7138
1.70896
1.70351
1.69745
1.69081
1.6836
1.67583
1.66754
1.65874
1.64944
1.63967
1.62946
1.61883
1.60778
1.59637
1.5846
1.5725
1.5601
1.54739
1.53449
1.52126
1.50794
1.49456
1.48134
1.46865
1.45601
1.44332
1.43059
1.41782
1.40504
1.39225
1.37945
1.36662
1.35372
1.34061
1.32715
1.31211
1.29264
0.00622196
0.0206404
0.028988
0.0353088
0.0409027
0.0463172
0.0518152
0.0575243
0.0634882
0.0696987
0.0761255
0.0827322
0.0894839
0.0963501
0.103306
0.110329
0.117404
0.124514
0.131647
0.138793
0.145943
0.153091
0.160233
0.167368
0.1745
0.181636
0.188789
0.195976
0.203225
0.210584
0.218131
0.225979
0.23425
0.24302
0.252294
0.262085
0.272486
0.283475
0.295095
0.307427
0.320502
0.334301
0.348754
0.363648
0.37879
0.394217
0.410052
0.426329
0.443043
0.460187
0.47775
0.495726
0.51411
0.532897
0.552082
0.571662
0.591635
0.611996
0.632742
0.65387
0.675374
0.697251
0.719494
0.742098
0.765055
0.788359
0.812
0.83597
0.860259
0.884855
0.909749
0.934926
0.960374
0.98608
1.01203
1.0382
1.06459
1.09117
1.11793
1.14485
1.17192
1.1991
1.2264
1.25377
1.28122
1.30871
1.33623
1.36375
1.39126
1.41874
1.44617
1.47352
1.50077
1.52791
1.55491
1.58176
1.60844
1.63492
1.66118
1.68707
1.71261
1.73781
1.76264
1.78708
1.81112
1.83471
1.85783
1.88046
1.90255
1.9241
1.94506
1.96541
1.98513
2.0042
2.02257
2.04025
2.05719
2.07338
2.0888
2.10343
2.11725
2.13025
2.14241
2.15372
2.16416
2.17372
2.1824
2.19018
2.19706
2.20304
2.2081
2.21226
2.2155
2.21783
2.21925
2.21977
2.21939
2.21813
2.21598
2.21297
2.2091
2.20439
2.19885
2.1925
2.18536
2.17744
2.16878
2.15939
2.14929
2.13851
2.12708
2.11501
2.10234
2.08911
2.07532
2.06101
2.04623
2.03098
2.01531
1.99927
1.98279
1.96612
1.94917
1.93202
1.91474
1.89747
1.8804
1.86334
1.84624
1.82909
1.81191
1.79473
1.77758
1.76048
1.74345
1.72651
1.70964
1.69292
1.6758
1.65789
0.00972857
0.0280421
0.0380598
0.0453661
0.051734
0.0577864
0.0638201
0.0699881
0.0763597
0.0829531
0.0897575
0.0967491
0.103901
0.111188
0.118589
0.12609
0.133677
0.141343
0.149084
0.156898
0.164787
0.172755
0.180812
0.18897
0.197248
0.205667
0.214256
0.223051
0.232097
0.241447
0.25117
0.261344
0.272039
0.2833
0.295144
0.307584
0.320655
0.33437
0.348733
0.363753
0.379432
0.395744
0.412633
0.430017
0.447822
0.466039
0.484697
0.503814
0.523398
0.54345
0.563968
0.584949
0.606392
0.628292
0.650648
0.673458
0.696718
0.720425
0.744578
0.769171
0.794201
0.819664
0.845553
0.871862
0.898585
0.925713
0.953237
0.981148
1.00943
1.03808
1.06709
1.09642
1.12608
1.15605
1.18631
1.21684
1.24762
1.27863
1.30986
1.34129
1.37288
1.40463
1.4365
1.46848
1.50054
1.53266
1.56481
1.59698
1.62913
1.66124
1.6933
1.72527
1.75713
1.78887
1.82045
1.85185
1.88305
1.91404
1.94472
1.97501
2.00491
2.03441
2.06349
2.09211
2.12024
2.14784
2.17489
2.20134
2.22717
2.25234
2.27681
2.30057
2.32357
2.34579
2.3672
2.38777
2.40747
2.42628
2.44418
2.46114
2.47714
2.49217
2.5062
2.51922
2.53122
2.54218
2.55209
2.56094
2.56873
2.57545
2.58109
2.58566
2.58915
2.59157
2.59292
2.59321
2.59244
2.59063
2.58778
2.58391
2.57904
2.57318
2.56635
2.55856
2.54986
2.54024
2.52975
2.51841
2.50624
2.49327
2.47954
2.46507
2.44989
2.43406
2.41758
2.40048
2.38285
2.36466
2.34599
2.32693
2.30745
2.28767
2.26757
2.24723
2.22671
2.20613
2.18559
2.16503
2.14442
2.12378
2.10312
2.0825
2.06195
2.04152
2.02126
2.00128
1.98166
1.96262
1.94398
1.92592
0.0131324
0.0346786
0.0460793
0.0543125
0.0613765
0.0679767
0.0744518
0.0809835
0.0876671
0.0945443
0.101624
0.108898
0.11635
0.123962
0.131719
0.13961
0.147628
0.155771
0.164041
0.172442
0.180984
0.18968
0.198546
0.207604
0.216881
0.226405
0.236214
0.246347
0.25685
0.267774
0.279172
0.2911
0.303604
0.316716
0.330453
0.344826
0.359846
0.375517
0.391837
0.408798
0.426391
0.444594
0.463376
0.482699
0.502527
0.522848
0.543665
0.564986
0.586816
0.609158
0.632014
0.655385
0.679272
0.703673
0.72859
0.75402
0.779963
0.806418
0.833382
0.860853
0.888827
0.917302
0.946271
0.975729
1.00567
1.03608
1.06696
1.0983
1.13008
1.16228
1.19491
1.22794
1.26135
1.29513
1.32925
1.36371
1.39847
1.43351
1.46882
1.50436
1.54012
1.57606
1.61216
1.64839
1.68473
1.72115
1.75762
1.79411
1.8306
1.86706
1.90345
1.93975
1.97594
2.01199
2.04786
2.08353
2.11898
2.15417
2.18896
2.22333
2.25728
2.29076
2.32375
2.35621
2.38811
2.4194
2.45005
2.48002
2.50926
2.53774
2.56543
2.59228
2.61827
2.64335
2.6675
2.69068
2.71287
2.73403
2.75414
2.77317
2.7911
2.80791
2.82358
2.83808
2.85142
2.86356
2.8745
2.88424
2.89275
2.90004
2.90611
2.91094
2.91455
2.91694
2.91811
2.91807
2.91682
2.91439
2.91078
2.90602
2.90011
2.89308
2.88495
2.87575
2.8655
2.85422
2.84195
2.82872
2.81455
2.79949
2.78356
2.76681
2.74924
2.73095
2.71195
2.6922
2.67191
2.65104
2.62964
2.60778
2.58547
2.56279
2.53976
2.51646
2.49293
2.46928
2.44558
2.42182
2.39802
2.37419
2.35037
2.32661
2.30298
2.27955
2.25641
2.23372
2.21163
2.19044
2.17014
2.1509
0.016227
0.0403686
0.0530414
0.0621225
0.0698173
0.0769048
0.0837617
0.0905962
0.0975266
0.104616
0.111893
0.119365
0.127028
0.134873
0.142892
0.15108
0.159434
0.167957
0.176656
0.18554
0.194623
0.203925
0.213467
0.223276
0.233381
0.243817
0.25462
0.26583
0.27749
0.289643
0.302331
0.315595
0.329468
0.343974
0.359128
0.374936
0.391404
0.408529
0.426309
0.444735
0.463796
0.483478
0.503764
0.524634
0.546071
0.568064
0.590612
0.613717
0.637385
0.661619
0.686422
0.711798
0.73775
0.764281
0.791391
0.819084
0.847358
0.876216
0.905657
0.935679
0.966281
0.99746
1.02921
1.06153
1.09441
1.12785
1.16183
1.19635
1.23139
1.26693
1.30298
1.33949
1.37647
1.41389
1.45172
1.48995
1.52855
1.56749
1.60675
1.6463
1.68611
1.72615
1.76638
1.80679
1.84733
1.88798
1.92869
1.96945
2.01021
2.05095
2.09162
2.13221
2.17267
2.21297
2.25308
2.29296
2.33258
2.37188
2.41073
2.44911
2.487
2.52437
2.56119
2.5974
2.63297
2.66785
2.702
2.73537
2.76792
2.79961
2.8304
2.86024
2.88909
2.91692
2.9437
2.96937
2.99393
3.01732
3.03952
3.0605
3.08024
3.09871
3.1159
3.13177
3.14633
3.15954
3.17141
3.18192
3.19105
3.19882
3.2052
3.21021
3.21385
3.21612
3.21702
3.21657
3.21478
3.21167
3.20724
3.20152
3.19453
3.1863
3.17684
3.16619
3.15437
3.14141
3.12736
3.11225
3.09609
3.07893
3.06084
3.04184
3.0219
3.0012
2.97973
2.95752
2.93466
2.91117
2.8871
2.86251
2.83744
2.81195
2.78608
2.75989
2.73345
2.70683
2.6801
2.65329
2.62643
2.59955
2.57271
2.54596
2.5194
2.49311
2.46722
2.44193
2.41744
2.39407
2.37182
2.35081
0.0188517
0.0451976
0.0589577
0.0687769
0.0770249
0.0845388
0.0917251
0.0988132
0.10594
0.113188
0.120601
0.128203
0.136002
0.144001
0.152197
0.160593
0.169192
0.177999
0.187025
0.196284
0.205795
0.215579
0.225661
0.236069
0.246836
0.257994
0.269581
0.281632
0.294186
0.307278
0.320944
0.335213
0.350112
0.365659
0.381867
0.398743
0.416289
0.434505
0.453389
0.472934
0.493135
0.513984
0.535471
0.557587
0.580323
0.603675
0.627641
0.652226
0.677432
0.703265
0.729732
0.756837
0.784586
0.812984
0.842035
0.871744
0.902113
0.933146
0.964843
0.997207
1.03024
1.06393
1.09829
1.1333
1.16897
1.20528
1.24222
1.27979
1.31798
1.35676
1.39613
1.43605
1.47653
1.51752
1.55901
1.60096
1.64336
1.68618
1.72937
1.77291
1.81677
1.86091
1.90529
1.94987
1.99463
2.03952
2.0845
2.12954
2.1746
2.21964
2.26462
2.30951
2.35426
2.39883
2.44319
2.48731
2.53113
2.57451
2.6174
2.65977
2.7016
2.74285
2.78346
2.8234
2.86261
2.90104
2.93865
2.97538
3.01119
3.04603
3.07985
3.11261
3.14427
3.17478
3.20411
3.23221
3.25904
3.28459
3.3088
3.33165
3.35311
3.37315
3.39177
3.40893
3.42461
3.43881
3.45151
3.4627
3.47237
3.48052
3.48714
3.49224
3.49583
3.49789
3.49846
3.49753
3.49513
3.49127
3.48596
3.47923
3.47111
3.46161
3.45079
3.43865
3.42523
3.41056
3.39471
3.37769
3.35953
3.34026
3.32001
3.29877
3.27658
3.25352
3.22963
3.20495
3.17954
3.15346
3.12675
3.09947
3.07168
3.04342
3.01475
2.98573
2.95642
2.92689
2.89722
2.86744
2.83761
2.80776
2.77798
2.74832
2.7189
2.68983
2.66126
2.6334
2.60648
2.58083
2.55639
2.53324
0.0210556
0.0491963
0.0638472
0.0742798
0.0829914
0.0908634
0.098324
0.105618
0.112897
0.120257
0.127758
0.135435
0.14331
0.151395
0.159697
0.168223
0.176982
0.185984
0.195244
0.204777
0.214606
0.224752
0.235243
0.246108
0.257377
0.269083
0.281259
0.293939
0.307155
0.320939
0.33532
0.350322
0.365966
0.38227
0.399246
0.4169
0.435238
0.454262
0.473973
0.494369
0.515449
0.53721
0.559649
0.582764
0.606553
0.631017
0.656157
0.681979
0.70849
0.735695
0.763604
0.792225
0.821565
0.851633
0.882436
0.91398
0.946272
0.979317
1.01312
1.04768
1.083
1.11909
1.15593
1.19353
1.23189
1.27099
1.31083
1.35139
1.39267
1.43464
1.47729
1.52061
1.56455
1.60911
1.65425
1.69995
1.74616
1.79286
1.84001
1.88758
1.93552
1.98379
2.03234
2.08115
2.13016
2.17934
2.22863
2.27799
2.32739
2.37676
2.42608
2.4753
2.52437
2.57325
2.62189
2.67024
2.71825
2.76572
2.81266
2.85902
2.90478
2.94987
2.99426
3.03789
3.0807
3.12265
3.16367
3.20371
3.24272
3.28064
3.31744
3.35305
3.38743
3.42054
3.45234
3.48277
3.51181
3.53941
3.56553
3.59016
3.61324
3.63477
3.65471
3.67305
3.68977
3.70485
3.71829
3.73007
3.74018
3.74862
3.75539
3.7605
3.76394
3.76573
3.76588
3.7644
3.76131
3.75663
3.75039
3.7426
3.73328
3.72248
3.71025
3.69659
3.68154
3.66512
3.64744
3.62852
3.60838
3.58708
3.56469
3.54124
3.51678
3.49138
3.46509
3.43796
3.41004
3.3814
3.35209
3.32216
3.29168
3.26069
3.22926
3.19746
3.16533
3.13296
3.1004
3.06773
3.03499
3.00226
2.96959
2.9371
2.90488
2.87308
2.84186
2.81144
2.78207
2.75402
2.72721
2.70169
0.0228314
0.0523941
0.0677435
0.0786612
0.0877407
0.0958963
0.103572
0.111022
0.118409
0.12584
0.133385
0.141092
0.148993
0.157108
0.165454
0.174044
0.182891
0.192009
0.201416
0.211131
0.221174
0.231572
0.242349
0.253535
0.265158
0.277249
0.289839
0.302957
0.316634
0.330895
0.345768
0.361273
0.37743
0.394256
0.411764
0.429963
0.44886
0.468463
0.488776
0.509802
0.531544
0.554006
0.577191
0.601102
0.625742
0.651118
0.677236
0.704104
0.731731
0.760128
0.789306
0.819276
0.85005
0.881638
0.914051
0.947298
0.981389
1.01633
1.05213
1.0888
1.12632
1.16472
1.20399
1.24412
1.28512
1.32697
1.36967
1.4132
1.45755
1.50271
1.54865
1.59535
1.64279
1.69093
1.73975
1.7892
1.83926
1.88989
1.94103
1.99266
2.04472
2.09716
2.14994
2.203
2.2563
2.30979
2.36342
2.41713
2.47088
2.52461
2.57829
2.63184
2.68524
2.73842
2.79134
2.84395
2.89604
2.94757
2.99852
3.04882
3.09845
3.14734
3.19544
3.24269
3.28903
3.3344
3.37874
3.42199
3.46409
3.505
3.54465
3.583
3.61999
3.65557
3.68971
3.72235
3.75346
3.78299
3.81091
3.83717
3.86176
3.88463
3.90577
3.92517
3.9428
3.95864
3.9727
3.98495
3.9954
4.00402
4.01084
4.01584
4.01905
4.02048
4.02013
4.01802
4.01417
4.00861
4.00137
3.99246
3.9819
3.96976
3.95607
3.94088
3.9242
3.90608
3.88659
3.86578
3.84368
3.82035
3.79584
3.77022
3.74352
3.71582
3.68717
3.65762
3.62724
3.59609
3.56422
3.5317
3.49859
3.46494
3.43082
3.39629
3.36142
3.32627
3.29091
3.25543
3.21987
3.18433
3.14887
3.11361
3.07867
3.04419
3.01036
2.9774
2.94553
2.91501
2.88573
2.85772
0.0241866
0.0548347
0.0707012
0.081978
0.0913285
0.0996905
0.107518
0.115072
0.122523
0.129983
0.137534
0.145231
0.153114
0.161214
0.169552
0.178147
0.187018
0.196182
0.205659
0.215469
0.225633
0.236177
0.247127
0.258508
0.270349
0.282678
0.295524
0.308913
0.322872
0.337427
0.352602
0.368417
0.384892
0.402044
0.419889
0.438439
0.457706
0.477699
0.498429
0.519904
0.542132
0.565123
0.588885
0.613426
0.638756
0.664886
0.691827
0.719592
0.748194
0.777647
0.807965
0.839165
0.871259
0.904264
0.938193
0.973058
1.00887
1.04564
1.08338
1.1221
1.1618
1.20248
1.24414
1.28679
1.33042
1.37502
1.42058
1.4671
1.51454
1.56291
1.61216
1.66228
1.71324
1.765
1.81752
1.87078
1.92472
1.9793
2.03448
2.09019
2.1464
2.20303
2.26005
2.31738
2.37498
2.43278
2.49073
2.54877
2.60686
2.66492
2.72291
2.78076
2.83844
2.89586
2.953
3.00971
3.06582
3.12132
3.17616
3.23029
3.28367
3.33623
3.3879
3.43863
3.48835
3.53698
3.58448
3.63077
3.6758
3.7195
3.76183
3.80273
3.84214
3.88002
3.91631
3.95097
3.98397
4.01525
4.04478
4.0725
4.0984
4.12245
4.14463
4.16491
4.18329
4.19974
4.21427
4.22686
4.23749
4.24617
4.25291
4.2577
4.26057
4.26153
4.26059
4.25776
4.25308
4.24658
4.23828
4.22821
4.21641
4.20292
4.18779
4.17105
4.15275
4.13294
4.11167
4.08899
4.06496
4.03963
4.01306
3.98531
3.95643
3.92649
3.89554
3.86365
3.83089
3.79731
3.76297
3.72794
3.69229
3.65607
3.61935
3.5822
3.54468
3.50686
3.46881
3.43062
3.39236
3.35411
3.31596
3.27803
3.24045
3.20337
3.16699
3.13151
3.09717
3.06415
3.03234
3.0018
0.0251429
0.0565776
0.0727939
0.0843109
0.0938383
0.102329
0.110244
0.117849
0.125317
0.132767
0.140285
0.147935
0.155763
0.163805
0.17209
0.180641
0.18948
0.198626
0.208102
0.217928
0.228127
0.238723
0.24974
0.261203
0.27314
0.285576
0.298537
0.312051
0.326141
0.340834
0.356151
0.372115
0.388747
0.406066
0.424089
0.442834
0.462316
0.482551
0.503552
0.525334
0.547912
0.571298
0.595509
0.620558
0.646461
0.673234
0.700893
0.729455
0.758939
0.789363
0.820746
0.853108
0.886465
0.920838
0.956242
0.992695
1.03021
1.0688
1.10848
1.14926
1.19113
1.23412
1.27821
1.32341
1.3697
1.4171
1.46557
1.51511
1.5657
1.61732
1.66994
1.72353
1.77805
1.83347
1.88975
1.94683
2.00468
2.06324
2.12246
2.18227
2.24261
2.30343
2.36466
2.42623
2.48807
2.55013
2.61234
2.67463
2.73696
2.79925
2.86144
2.92347
2.98529
3.04683
3.10802
3.1686
3.22855
3.28782
3.34635
3.4041
3.46101
3.517
3.57202
3.62599
3.67883
3.73048
3.78087
3.82994
3.87763
3.92387
3.9686
4.01178
4.05335
4.09324
4.13143
4.16785
4.20248
4.23526
4.26615
4.2951
4.32208
4.34708
4.37006
4.39102
4.40994
4.42681
4.44162
4.45437
4.46503
4.47361
4.48012
4.48457
4.48698
4.48736
4.48574
4.48213
4.47656
4.46906
4.45968
4.44843
4.43536
4.42051
4.40394
4.38568
4.36579
4.34431
4.3213
4.29681
4.27091
4.24365
4.21509
4.18529
4.15431
4.12223
4.08909
4.05497
4.01993
3.98404
3.94735
3.90995
3.87188
3.83323
3.79404
3.7544
3.71437
3.67402
3.63343
3.59268
3.55185
3.51104
3.47033
3.42986
3.38976
3.35019
3.31134
3.27342
3.23663
3.20115
3.16682
3.13377
0.0257348
0.0576946
0.0741104
0.0857584
0.0953743
0.10392
0.111859
0.11946
0.126899
0.134297
0.141746
0.149313
0.15705
0.164998
0.173189
0.18165
0.190406
0.199479
0.208891
0.218663
0.228818
0.23938
0.250371
0.261816
0.273741
0.28617
0.29913
0.312646
0.326742
0.341444
0.356776
0.372762
0.389424
0.406786
0.424867
0.443691
0.463276
0.483644
0.504815
0.526809
0.549646
0.573346
0.59793
0.623419
0.649834
0.677197
0.705529
0.734854
0.765194
0.796573
0.829014
0.862541
0.897175
0.932939
0.969854
1.00794
1.04721
1.08768
1.12937
1.17228
1.21643
1.2618
1.30841
1.35625
1.40531
1.45559
1.50706
1.55972
1.61354
1.66849
1.72454
1.78166
1.8398
1.89892
1.95898
2.01991
2.08167
2.1442
2.20742
2.27129
2.33573
2.40066
2.46601
2.5317
2.59767
2.66384
2.73015
2.79652
2.8629
2.92921
2.99539
3.06138
3.12712
3.19254
3.25736
3.32153
3.385
3.44772
3.50962
3.57064
3.63073
3.68981
3.74781
3.80467
3.86027
3.91456
3.96747
4.01894
4.0689
4.1173
4.16407
4.20916
4.25251
4.29407
4.33379
4.37162
4.40753
4.44151
4.47345
4.5033
4.53106
4.55671
4.58023
4.6016
4.62081
4.63785
4.65272
4.66541
4.6759
4.68421
4.69035
4.69433
4.69616
4.69587
4.69347
4.689
4.68248
4.67395
4.66345
4.651
4.63666
4.62047
4.60248
4.58273
4.56129
4.5382
4.51352
4.4873
4.45962
4.43053
4.40009
4.36837
4.33542
4.30133
4.26614
4.22994
4.19278
4.15474
4.11588
4.07626
4.03596
3.99505
3.95358
3.91163
3.86927
3.82658
3.78363
3.74051
3.6973
3.6541
3.61101
3.56816
3.5257
3.48378
3.44259
3.40233
3.36319
3.32532
3.28856
3.25306
0.0260073
0.0582672
0.07475
0.0864312
0.0960544
0.104585
0.112487
0.120032
0.127394
0.1347
0.142043
0.149494
0.157107
0.164925
0.172986
0.181317
0.189946
0.198894
0.208186
0.217842
0.227886
0.238339
0.249225
0.260569
0.272393
0.284725
0.297589
0.311012
0.325019
0.339636
0.354891
0.37081
0.387418
0.404742
0.422809
0.441644
0.461273
0.481723
0.50302
0.525191
0.548263
0.572263
0.597218
0.623156
0.650104
0.678088
0.707137
0.73728
0.768543
0.800957
0.834548
0.869344
0.90537
0.942653
0.981214
1.02108
1.06226
1.10478
1.14865
1.19387
1.24046
1.2884
1.3377
1.38834
1.44033
1.49364
1.54827
1.60417
1.66133
1.71972
1.77929
1.83999
1.9018
1.96464
2.02848
2.09323
2.15885
2.22527
2.29242
2.36022
2.4286
2.49749
2.56677
2.63637
2.70622
2.77623
2.84635
2.91649
2.9866
3.05659
3.12641
3.19599
3.26527
3.33397
3.402
3.46931
3.53584
3.60153
3.6663
3.7301
3.79286
3.85451
3.915
3.97425
4.0321
4.08851
4.14342
4.19678
4.24851
4.29857
4.34688
4.39339
4.43805
4.4808
4.5216
4.5604
4.59716
4.63185
4.66441
4.69479
4.72298
4.74895
4.77269
4.79417
4.8134
4.83035
4.84503
4.85744
4.86757
4.87543
4.88103
4.88438
4.88551
4.88443
4.88118
4.87577
4.86825
4.85865
4.84701
4.83336
4.81776
4.80025
4.78089
4.75972
4.7368
4.71219
4.68594
4.65812
4.62878
4.598
4.56584
4.53235
4.49761
4.46169
4.42465
4.38656
4.34749
4.30751
4.26668
4.22508
4.18277
4.13982
4.0963
4.05228
4.00783
3.96303
3.91796
3.87269
3.82733
3.78197
3.73672
3.69171
3.64708
3.60299
3.55963
3.5172
3.47585
3.43573
3.39666
3.35885
0.0260143
0.058383
0.0748182
0.0864464
0.0960038
0.104455
0.112263
0.1197
0.126942
0.134117
0.141319
0.14862
0.156078
0.163736
0.171633
0.179799
0.188261
0.197043
0.206167
0.215657
0.225534
0.235821
0.246542
0.25772
0.269382
0.281553
0.29426
0.30753
0.321392
0.335875
0.351009
0.366824
0.38335
0.400619
0.418663
0.437513
0.457202
0.477763
0.499229
0.521635
0.545015
0.569405
0.59484
0.621352
0.648976
0.677743
0.707686
0.73884
0.771237
0.80491
0.839892
0.876211
0.913896
0.952974
0.993469
1.0354
1.0788
1.12366
1.17002
1.21787
1.2672
1.31799
1.37025
1.42396
1.47911
1.53567
1.59363
1.65294
1.71358
1.7755
1.83865
1.90299
1.96845
2.03498
2.10252
2.17099
2.24032
2.31043
2.38127
2.45274
2.52479
2.59735
2.6702
2.74332
2.81662
2.89003
2.96348
3.0369
3.11022
3.18337
3.25629
3.32889
3.4009
3.47223
3.54283
3.61262
3.68154
3.74952
3.81648
3.88237
3.9471
4.01062
4.07284
4.1337
4.19309
4.25094
4.3072
4.36179
4.41466
4.46575
4.51499
4.56234
4.60773
4.65112
4.69246
4.73171
4.76882
4.80376
4.83648
4.86696
4.89515
4.92105
4.94464
4.9659
4.98481
5.00139
5.01561
5.02749
5.03703
5.04423
5.04911
5.05168
5.05197
5.05
5.0458
5.0394
5.03083
5.02014
5.00736
4.99253
4.97571
4.95695
4.93629
4.91379
4.88951
4.8635
4.83583
4.80656
4.77575
4.74347
4.70978
4.67474
4.63844
4.60092
4.56227
4.52255
4.48183
4.44017
4.39765
4.35434
4.3103
4.26561
4.22032
4.17452
4.12827
4.08165
4.03473
3.98761
3.94038
3.89314
3.846
3.79908
3.75253
3.70651
3.66121
3.61679
3.57343
3.53125
3.49007
3.45012
0.0258167
0.0581325
0.0744218
0.0859219
0.0953486
0.103661
0.111324
0.118606
0.125687
0.132695
0.139723
0.146846
0.15412
0.161591
0.169297
0.177269
0.185534
0.194116
0.20304
0.212328
0.222003
0.232089
0.242611
0.253595
0.265067
0.277056
0.289591
0.302704
0.316425
0.33079
0.345831
0.361586
0.378091
0.395384
0.413502
0.432485
0.452371
0.473203
0.495022
0.517871
0.541794
0.566836
0.59304
0.62045
0.649101
0.679023
0.710255
0.742836
0.776804
0.812193
0.849037
0.887366
0.927206
0.968582
1.01152
1.05602
1.10212
1.14982
1.19914
1.25012
1.30264
1.3567
1.41229
1.46939
1.52799
1.58805
1.64954
1.71241
1.77661
1.84211
1.90883
1.97673
2.04572
2.11576
2.18675
2.25864
2.33133
2.40475
2.47882
2.55345
2.62856
2.70406
2.77984
2.8558
2.93187
3.00797
3.08402
3.15997
3.23573
3.31127
3.38642
3.46095
3.5348
3.6079
3.68017
3.75154
3.82194
3.8913
3.95955
4.02661
4.09243
4.15692
4.22001
4.28164
4.34172
4.40018
4.45696
4.512
4.56522
4.61659
4.66603
4.71349
4.75893
4.8023
4.84354
4.88262
4.9195
4.95414
4.98651
5.01658
5.04432
5.0697
5.09272
5.11337
5.13163
5.14749
5.16097
5.17206
5.18077
5.18711
5.19109
5.19273
5.19206
5.1891
5.18388
5.17644
5.16681
5.15502
5.14114
5.12519
5.10722
5.0873
5.06546
5.04177
5.01629
4.98907
4.96018
4.92967
4.89761
4.86407
4.82911
4.7928
4.7552
4.71639
4.67643
4.63539
4.59333
4.55034
4.50646
4.46178
4.41635
4.37026
4.32356
4.27632
4.22861
4.18052
4.13212
4.08349
4.03472
3.98593
3.93721
3.8887
3.84054
3.79288
3.7459
3.69977
3.65464
3.61064
3.56759
3.52574
0.0254648
0.0575876
0.073641
0.0849426
0.0941759
0.102293
0.109757
0.116838
0.123716
0.130518
0.13734
0.144254
0.151317
0.158575
0.166065
0.173819
0.181864
0.190227
0.198933
0.208005
0.217471
0.227355
0.237686
0.248493
0.259807
0.271661
0.28409
0.297129
0.310818
0.325196
0.340305
0.35619
0.372898
0.390479
0.408977
0.428434
0.448899
0.470425
0.493064
0.51687
0.541895
0.568196
0.595831
0.624866
0.655327
0.687202
0.720551
0.755416
0.791837
0.829845
0.869467
0.910726
0.953642
0.998227
1.04449
1.09244
1.14207
1.19338
1.24637
1.30101
1.35727
1.4151
1.47448
1.53537
1.59773
1.66151
1.72668
1.79316
1.86092
1.92988
1.99998
2.07116
2.14333
2.21643
2.29038
2.3651
2.44051
2.51652
2.59306
2.67002
2.74734
2.82491
2.90265
2.98047
3.05828
3.13603
3.21363
3.29103
3.36814
3.44473
3.52069
3.59595
3.67043
3.74408
3.8168
3.88853
3.9592
4.02875
4.09709
4.16416
4.2299
4.29424
4.3571
4.41842
4.47812
4.53615
4.59244
4.64693
4.69956
4.75028
4.79902
4.84575
4.89041
4.93295
4.97334
5.01154
5.0475
5.08119
5.11259
5.14167
5.16839
5.19276
5.21474
5.23433
5.25152
5.26631
5.27871
5.28871
5.29632
5.30156
5.30445
5.30499
5.30322
5.29917
5.29286
5.28434
5.27362
5.26077
5.24581
5.22881
5.20979
5.18883
5.16596
5.14125
5.11475
5.08652
5.05662
5.02512
4.99208
4.95756
4.92162
4.88434
4.84578
4.806
4.76507
4.72306
4.68003
4.63606
4.5912
4.54552
4.49909
4.45198
4.40425
4.35596
4.30719
4.25801
4.20849
4.15873
4.1088
4.05882
4.00889
3.95912
3.90968
3.86069
3.81234
3.76479
3.71819
3.67264
3.62799
3.58451
0.0250975
0.0569189
0.0726696
0.0837175
0.0927086
0.100587
0.107816
0.114666
0.121317
0.127897
0.134501
0.141199
0.148049
0.155097
0.162379
0.16993
0.177778
0.185955
0.194487
0.203404
0.212736
0.222516
0.232778
0.243559
0.254896
0.266832
0.279412
0.292684
0.306696
0.321493
0.337131
0.35367
0.371175
0.389724
0.409375
0.430132
0.452072
0.475263
0.499769
0.52565
0.552964
0.581769
0.612117
0.644056
0.677616
0.712819
0.749691
0.788259
0.828542
0.870554
0.914303
0.959791
1.00701
1.05596
1.10662
1.15896
1.21298
1.26864
1.3259
1.38473
1.44509
1.50691
1.57015
1.63476
1.70069
1.76788