/*--------------------------------*- C++ -*----------------------------------*\
  =========                 |
  \\      /  F ield         | OpenFOAM: The Open Source CFD Toolbox
   \\    /   O peration     | Website:  https://openfoam.org
    \\  /    A nd           | Version:  12
     \\/     M anipulation  |
\*---------------------------------------------------------------------------*/
FoamFile
{
    format      ascii;
    class       volScalarField;
    location    "0.21";
    object      nut;
}
// * * * * * * * * * * * * * * * * * * * * * * * * * * * * * * * * * * * * * //

dimensions      [0 2 -1 0 0 0 0];

internalField   nonuniform List<scalar> 
12225
(
4.04768e-05
3.83178e-05
3.62504e-05
3.44199e-05
3.2952e-05
3.18976e-05
3.12561e-05
3.09936e-05
3.1058e-05
3.13899e-05
3.19309e-05
3.26271e-05
3.34321e-05
3.43074e-05
3.52237e-05
3.61567e-05
3.71113e-05
3.84935e-05
0.000281048
0.000209266
0.000176267
0.00015744
0.000146272
0.000139688
0.000135793
0.000133431
0.000131916
0.000130859
0.000130044
0.000129358
0.00012874
0.000128162
0.000127623
0.00012708
0.000126684
0.000125736
0.000556048
0.000419908
0.000349816
0.000304738
0.00027245
0.000247987
0.000228771
0.000213307
0.00020068
0.00019028
0.000181666
0.0001745
0.000168512
0.000163481
0.000159233
0.000155583
0.000152444
0.000149384
0.000740308
0.000625822
0.000544118
0.000485001
0.000439774
0.000403655
0.000373848
0.000348614
0.000326865
0.000307906
0.00029126
0.000276584
0.000263605
0.000252094
0.000241856
0.000232675
0.000224394
0.000216733
0.000817069
0.000759142
0.000700546
0.000648579
0.0006039
0.000565589
0.00053248
0.000503523
0.000477891
0.000454976
0.000434332
0.000415625
0.000398597
0.000383036
0.000368764
0.000355596
0.000343389
0.000332048
0.0008421
0.000819688
0.000789925
0.000757607
0.000725556
0.000695168
0.000666972
0.000641025
0.000617186
0.000595253
0.000575023
0.000556308
0.000538945
0.000522788
0.000507705
0.000493568
0.000480275
0.000467874
0.000849261
0.000841808
0.000829742
0.000814189
0.000796482
0.000777764
0.000758853
0.000740262
0.000722277
0.000705046
0.000688628
0.000673031
0.000658235
0.000644201
0.000630883
0.000618227
0.000606193
0.000594906
0.00085112
0.000848748
0.000844481
0.000838237
0.000830247
0.000820897
0.000810601
0.000799726
0.00078856
0.000777321
0.000766164
0.000755196
0.000744488
0.00073408
0.000723997
0.000714248
0.000704846
0.000695943
0.00085156
0.000850665
0.00084917
0.000846887
0.000843742
0.00083976
0.000835035
0.000829696
0.000823878
0.00081771
0.000811305
0.000804757
0.000798144
0.000791526
0.00078495
0.000778452
0.000772069
0.000765938
0.000851652
0.000851133
0.000850468
0.000849564
0.000848347
0.000846773
0.000844826
0.000842521
0.000839885
0.00083696
0.000833793
0.000830428
0.000826909
0.000823277
0.000819567
0.000815809
0.00081204
0.000808353
0.000851668
0.00085123
0.000850778
0.000850278
0.000849698
0.000849007
0.000848183
0.000847212
0.000846088
0.000844815
0.0008434
0.000841855
0.000840195
0.000838436
0.000836593
0.000834684
0.000832728
0.000830782
0.000851669
0.000851245
0.000850835
0.000850429
0.000850014
0.000849575
0.000849101
0.00084858
0.000848003
0.000847365
0.000846665
0.000845902
0.000845078
0.000844199
0.000843268
0.000842293
0.000841282
0.00084027
0.000851668
0.000851244
0.000850843
0.000850459
0.000850088
0.000849726
0.000849365
0.000849001
0.000848629
0.000848243
0.000847841
0.00084742
0.000846979
0.000846518
0.000846037
0.000845537
0.000845022
0.000844512
0.000851667
0.000851242
0.000850839
0.000850458
0.000850096
0.000849751
0.000849421
0.000849102
0.000848793
0.000848491
0.000848194
0.000847902
0.000847611
0.000847321
0.000847031
0.000846742
0.000846454
0.00084618
0.000851666
0.000851239
0.000850835
0.000850452
0.00085009
0.000849746
0.000849419
0.000849108
0.000848812
0.000848528
0.000848257
0.000847996
0.000847746
0.000847505
0.000847272
0.000847047
0.000846832
0.000846637
0.000851665
0.000851236
0.000850831
0.000850447
0.000850083
0.000849737
0.000849409
0.000849098
0.000848801
0.000848519
0.000848251
0.000847994
0.00084775
0.000847517
0.000847294
0.000847082
0.000846881
0.000846703
0.000851664
0.000851235
0.000850828
0.000850442
0.000850077
0.00084973
0.000849401
0.000849088
0.00084879
0.000848507
0.000848237
0.00084798
0.000847735
0.000847502
0.000847279
0.000847066
0.000846866
0.000846689
0.000851663
0.000851234
0.000850826
0.00085044
0.000850073
0.000849725
0.000849395
0.000849081
0.000848782
0.000848498
0.000848227
0.000847969
0.000847723
0.000847488
0.000847264
0.00084705
0.000846848
0.00084667
0.000851663
0.000851233
0.000850825
0.000850439
0.000850072
0.000849724
0.000849393
0.000849078
0.000848779
0.000848494
0.000848222
0.000847963
0.000847716
0.000847481
0.000847256
0.000847041
0.000846838
0.000846658
0.000851664
0.000851234
0.000850826
0.00085044
0.000850074
0.000849726
0.000849396
0.000849081
0.000848782
0.000848497
0.000848225
0.000847965
0.000847717
0.00084748
0.000847254
0.000847037
0.000846832
0.000846649
0.000851664
0.000851235
0.000850829
0.000850443
0.000850078
0.00084973
0.000849399
0.000849082
0.000848779
0.000848489
0.000848209
0.00084794
0.000847679
0.000847427
0.000847182
0.000846944
0.000846715
0.000846506
0.000851665
0.000851237
0.00085083
0.000850442
0.000850068
0.000849706
0.000849351
0.000848999
0.000848647
0.000848293
0.000847934
0.00084757
0.000847198
0.000846819
0.000846432
0.000846039
0.000845641
0.000845251
0.000851664
0.000851228
0.000850794
0.000850348
0.00084987
0.000849345
0.000848761
0.000848111
0.000847388
0.000846593
0.000845727
0.000844796
0.000843805
0.00084276
0.00084167
0.000840542
0.000839385
0.000838224
0.000851634
0.000851073
0.000850343
0.000849363
0.000848079
0.000846467
0.00084453
0.000842291
0.000839784
0.000837051
0.000834133
0.000831073
0.000827907
0.000824669
0.00082139
0.000818093
0.000814804
0.000811569
0.000851287
0.000849596
0.000846721
0.000842577
0.000837262
0.000830978
0.00082397
0.000816469
0.000808671
0.000800734
0.000792779
0.000784897
0.000777151
0.000769588
0.000762237
0.000755118
0.000748246
0.000741673
0.000848318
0.000839425
0.00082616
0.000810016
0.000792356
0.000774222
0.000756315
0.000739036
0.000722583
0.000707038
0.00069241
0.000678673
0.000665781
0.000653678
0.00064231
0.00063162
0.000621561
0.000612144
0.000828548
0.000788842
0.000746032
0.000705699
0.000669457
0.000637492
0.000609433
0.000584724
0.000562825
0.000543283
0.000525728
0.00050986
0.000495439
0.00048227
0.000470194
0.000459081
0.000448824
0.000439376
0.000730726
0.000627344
0.000554504
0.000501054
0.000460311
0.000428338
0.000402621
0.000381455
0.000363693
0.000348561
0.000335514
0.000324153
0.000314181
0.000305368
0.000297534
0.000290535
0.000284251
0.0002786
0.000439249
0.00033847
0.000287934
0.000256867
0.000236359
0.000222508
0.00021299
0.000206309
0.000201503
0.000197957
0.000195269
0.000193176
0.000191498
0.000190116
0.000188946
0.000187932
0.000187036
0.000186209
7.16431e-05
6.90587e-05
6.65522e-05
6.41646e-05
6.19883e-05
6.00784e-05
5.84564e-05
5.71213e-05
5.60571e-05
5.52403e-05
5.46436e-05
5.42394e-05
5.40009e-05
5.39031e-05
5.39236e-05
5.40421e-05
5.42413e-05
5.45049e-05
2.67515e-07
6.58853e-06
1.08059e-05
1.46172e-05
1.87172e-05
2.34217e-05
2.87826e-05
3.49227e-05
4.19696e-05
4.92949e-05
5.69308e-05
6.48395e-05
7.29617e-05
8.12373e-05
8.961e-05
9.80277e-05
0.000106441
0.000114803
0.000123066
0.000131183
0.000139107
0.00014679
0.000154181
0.000161228
0.000167876
0.000174064
0.000179722
0.000184764
0.000189093
0.000192607
0.000195255
0.000197112
0.000198423
0.000199469
0.000200191
0.000200082
0.000200083
0.000200242
4.60941e-05
0.000202229
0.000200435
0.000201351
0.000202394
4.74318e-05
4.84233e-05
4.94777e-05
5.05484e-05
5.16272e-05
5.27107e-05
5.37965e-05
5.48831e-05
5.59694e-05
5.70546e-05
5.81384e-05
5.92201e-05
6.02995e-05
6.13763e-05
6.245e-05
6.35205e-05
6.45874e-05
6.56503e-05
6.6709e-05
6.7763e-05
6.88121e-05
6.98558e-05
7.08937e-05
7.19254e-05
7.29505e-05
7.39685e-05
7.49791e-05
7.59817e-05
7.69758e-05
7.79611e-05
7.89371e-05
7.99032e-05
8.08591e-05
8.18042e-05
8.27382e-05
8.36605e-05
8.45708e-05
8.54686e-05
8.63534e-05
8.72249e-05
8.80827e-05
8.89263e-05
8.97554e-05
9.05696e-05
9.13685e-05
9.21518e-05
9.29189e-05
9.36697e-05
9.44036e-05
9.51204e-05
9.58196e-05
9.65009e-05
9.71643e-05
9.78096e-05
9.84375e-05
9.90493e-05
9.96478e-05
0.000100231
0.000100792
0.000101331
0.000101849
0.000102345
0.000102819
0.000103271
0.0001037
0.000104106
0.000104489
0.000104848
0.000105183
0.000105494
0.000105781
0.000106042
0.000106279
0.000106491
0.000106677
0.000106838
0.000106974
0.000107084
0.000107168
0.000107226
0.000107259
0.000107267
0.000107248
0.000107204
0.000107135
0.000107041
0.000106921
0.000106776
0.000106606
0.000106412
0.000106194
0.000105952
0.000105685
0.000105396
0.000105084
0.000104748
0.000104391
0.000104012
0.000103612
0.000103191
0.000102749
0.000102288
0.000101808
0.000101309
0.000100791
0.000100257
9.97055e-05
9.9138e-05
9.8555e-05
9.79571e-05
9.73452e-05
9.67199e-05
9.60817e-05
9.54318e-05
9.47705e-05
9.40989e-05
9.34176e-05
9.27269e-05
9.20292e-05
9.13227e-05
9.06126e-05
8.99042e-05
8.92737e-05
8.88628e-05
8.8475e-05
8.80864e-05
8.76956e-05
8.73027e-05
8.69077e-05
8.65101e-05
8.61085e-05
8.56999e-05
8.52775e-05
8.48259e-05
8.43047e-05
8.36143e-05
8.2314e-05
9.88019e-07
2.57447e-05
5.59004e-05
7.77874e-05
9.32292e-05
0.000104529
0.000114098
0.000123201
0.000132424
0.000141974
0.000151849
0.000161979
0.000172282
0.000182679
0.000193098
0.000203474
0.000213747
0.000223859
0.00023375
0.000243358
0.000252616
0.00026145
0.000269775
0.000277495
0.000284494
0.000290626
0.000295699
0.00029946
0.000301592
0.000301764
0.000299787
0.000295836
0.000290575
0.000284845
0.000278814
0.00027159
0.000263782
0.000261252
0.000249582
0.000259217
0.000258036
0.000261491
0.000265493
0.000264717
0.00027081
0.000276956
0.00028358
0.00029054
0.000297763
0.00030519
0.000312784
0.000320523
0.000328391
0.000336377
0.000344475
0.000352679
0.000360986
0.000369392
0.000377896
0.000386495
0.000395188
0.000403973
0.000412846
0.000421807
0.000430853
0.000439981
0.000449189
0.000458471
0.000467827
0.00047725
0.000486737
0.000496283
0.000505884
0.000515535
0.00052523
0.000534963
0.000544729
0.000554522
0.000564337
0.000574167
0.000584007
0.000593851
0.000603692
0.000613526
0.000623347
0.00063315
0.00064293
0.000652681
0.0006624
0.000672082
0.000681723
0.000691318
0.000700862
0.000710349
0.000719769
0.000729109
0.000738348
0.000747448
0.000756353
0.000764868
0.000772811
0.000780588
0.000788242
0.000795774
0.000803179
0.000810453
0.00081759
0.000824583
0.000831429
0.00083812
0.000844652
0.00085102
0.000857219
0.000863243
0.000869089
0.000874751
0.000880225
0.000885508
0.000890595
0.000895482
0.000900167
0.000904646
0.000908916
0.000912974
0.000916819
0.000920447
0.000923857
0.000927048
0.000930016
0.000932763
0.000935285
0.000937584
0.000939658
0.000941508
0.000943133
0.000944535
0.000945713
0.00094667
0.000947406
0.000947923
0.000948223
0.000948309
0.000948182
0.000947847
0.000947306
0.000946562
0.00094562
0.000944483
0.000943155
0.000941642
0.000939949
0.00093808
0.00093604
0.000933837
0.000931476
0.00092896
0.000926302
0.000923503
0.000920574
0.000917524
0.000914349
0.00091108
0.000907712
0.000904203
0.000900441
0.00089573
0.000889059
0.000881795
0.000874335
0.000866778
0.000859157
0.000851489
0.000843782
0.000836038
0.00082825
0.000820395
0.000812398
0.000804146
0.000794647
0.000776151
1.9514e-06
4.12263e-05
8.82073e-05
0.000123263
0.00014852
0.000167331
0.000182299
0.000195222
0.00020722
0.000218906
0.000230563
0.00024228
0.000254056
0.000265844
0.000277587
0.000289219
0.00030068
0.000311906
0.000322838
0.000333412
0.000343563
0.000353224
0.000362324
0.00037079
0.000378545
0.000385509
0.000391598
0.000396726
0.000400825
0.000403892
0.000406072
0.000407743
0.000409491
0.000411882
0.000415094
0.000418937
0.000423826
0.000430539
0.000437447
0.000446819
0.000456724
0.000468277
0.00048093
0.000493978
0.00050811
0.000522594
0.000537444
0.000552642
0.000568158
0.000583964
0.000600034
0.000616347
0.000632891
0.000649652
0.000666622
0.000683794
0.000701162
0.000718722
0.000736468
0.000754397
0.000772503
0.000790782
0.000809229
0.000827838
0.000846604
0.000865518
0.000884575
0.000903765
0.000923081
0.000942513
0.000962051
0.000981686
0.0010014
0.0010212
0.00104105
0.00106096
0.0010809
0.00110087
0.00112084
0.00114082
0.00116079
0.00118073
0.00120063
0.00122048
0.00124026
0.00125998
0.0012796
0.00129913
0.00131855
0.00133785
0.00135701
0.00137602
0.00139486
0.00141352
0.00143198
0.00145019
0.00146814
0.00148576
0.00150301
0.0015196
0.00153575
0.0015516
0.0015672
0.00158253
0.0015976
0.00161239
0.00162688
0.00164108
0.00165496
0.00166851
0.00168173
0.00169461
0.00170712
0.00171928
0.00173105
0.00174244
0.00175344
0.00176403
0.00177421
0.00178398
0.00179332
0.00180223
0.0018107
0.00181873
0.00182631
0.00183345
0.00184012
0.00184634
0.0018521
0.00185739
0.00186221
0.00186657
0.00187046
0.00187388
0.00187684
0.00187933
0.00188135
0.00188292
0.00188402
0.00188467
0.00188487
0.00188462
0.00188393
0.00188281
0.00188126
0.00187928
0.0018769
0.00187411
0.00187092
0.00186735
0.0018634
0.00185909
0.00185442
0.00184941
0.00184407
0.00183842
0.00183246
0.00182622
0.00181971
0.00181295
0.00180595
0.00179873
0.0017913
0.00178357
0.00177537
0.00176609
0.00175504
0.00174309
0.00173069
0.00171805
0.00170523
0.00169227
0.00167921
0.00166604
0.00165274
0.00163924
0.00162534
0.00161053
0.00159286
0.00156371
3.05171e-06
5.24081e-05
0.000111486
0.000156844
0.000190484
0.000215869
0.000235855
0.000252539
0.000267349
0.000281181
0.000294547
0.000307703
0.000320753
0.000333718
0.000346577
0.000359289
0.000371807
0.000384085
0.000396078
0.000407743
0.000419041
0.000429941
0.000440415
0.000450446
0.000460029
0.000469172
0.0004779
0.000486263
0.00049434
0.000502263
0.000510237
0.000518549
0.000527535
0.000537477
0.000548488
0.000560547
0.000573714
0.000588091
0.000603494
0.000620072
0.000637697
0.000656407
0.000676039
0.000696376
0.000717307
0.000738653
0.000760364
0.000782425
0.000804822
0.000827543
0.000850575
0.000873907
0.00089753
0.000921433
0.00094561
0.000970053
0.000994757
0.00101971
0.00104492
0.00107037
0.00109605
0.00112196
0.00114809
0.00117443
0.00120097
0.0012277
0.0012546
0.00128168
0.00130891
0.00133628
0.00136377
0.00139138
0.00141907
0.00144685
0.00147468
0.00150255
0.00153045
0.00155836
0.00158625
0.00161411
0.00164192
0.00166966
0.00169731
0.00172487
0.0017523
0.00177959
0.00180672
0.00183368
0.00186046
0.00188702
0.00191335
0.00193944
0.00196525
0.00199077
0.00201598
0.00204083
0.0020653
0.00208936
0.00211287
0.00213579
0.00215826
0.00218035
0.00220207
0.00222343
0.00224441
0.002265
0.00228518
0.00230494
0.00232426
0.00234314
0.00236155
0.00237948
0.00239691
0.00241384
0.00243025
0.00244613
0.00246147
0.00247625
0.00249046
0.0025041
0.00251716
0.00252962
0.00254148
0.00255273
0.00256336
0.00257338
0.00258276
0.00259152
0.00259963
0.00260711
0.00261394
0.00262013
0.00262567
0.00263057
0.00263482
0.00263843
0.00264139
0.00264371
0.0026454
0.00264646
0.00264689
0.0026467
0.0026459
0.00264449
0.00264249
0.0026399
0.00263673
0.00263299
0.0026287
0.00262387
0.00261851
0.00261263
0.00260626
0.0025994
0.00259208
0.00258431
0.00257611
0.00256751
0.00255852
0.00254917
0.00253948
0.00252945
0.00251908
0.00250832
0.00249699
0.00248474
0.00247119
0.00245673
0.00244171
0.00242632
0.00241066
0.00239479
0.00237875
0.00236255
0.00234617
0.0023295
0.00231229
0.00229383
0.00227195
0.00224006
4.11995e-06
6.13659e-05
0.000129926
0.000183908
0.000224671
0.000255743
0.000280171
0.000300265
0.000317674
0.000333502
0.000348442
0.0003629
0.000377088
0.000391105
0.00040498
0.000418711
0.000432281
0.000445669
0.000458854
0.000471825
0.000484576
0.00049711
0.000509444
0.000521608
0.000533647
0.000545623
0.000557619
0.000569733
0.000582088
0.000594829
0.000608124
0.000622157
0.000637106
0.000653106
0.000670215
0.00068843
0.000707739
0.000728131
0.000749553
0.000771974
0.000795339
0.000819585
0.000844609
0.000870284
0.000896498
0.000923159
0.000950219
0.000977654
0.00100545
0.00103361
0.0010621
0.00109094
0.0011201
0.00114959
0.00117939
0.0012095
0.0012399
0.0012706
0.00130159
0.00133285
0.00136437
0.00139616
0.00142819
0.00146045
0.00149293
0.00152563
0.00155851
0.00159157
0.00162479
0.00165815
0.00169164
0.00172523
0.0017589
0.00179264
0.00182642
0.00186022
0.00189402
0.00192779
0.00196151
0.00199517
0.00202873
0.00206218
0.00209549
0.00212864
0.00216162
0.00219439
0.00222695
0.00225926
0.00229131
0.00232308
0.00235455
0.0023857
0.00241649
0.00244692
0.00247696
0.00250657
0.00253575
0.00256446
0.00259252
0.00262005
0.00264709
0.0026737
0.00269988
0.00272562
0.00275092
0.00277575
0.0028001
0.00282395
0.00284729
0.00287009
0.00289235
0.00291404
0.00293515
0.00295567
0.00297558
0.00299486
0.00301351
0.0030315
0.00304883
0.00306548
0.00308145
0.00309671
0.00311127
0.00312511
0.00313823
0.00315061
0.00316226
0.00317316
0.00318331
0.0031927
0.00320134
0.00320921
0.00321632
0.00322267
0.00322825
0.00323306
0.00323712
0.00324041
0.00324295
0.00324474
0.00324578
0.00324608
0.00324564
0.00324448
0.00324261
0.00324003
0.00323676
0.00323281
0.00322818
0.0032229
0.00321698
0.00321044
0.00320329
0.00319555
0.00318724
0.00317839
0.00316901
0.00315913
0.00314877
0.00313794
0.00312669
0.003115
0.00310289
0.0030903
0.00307715
0.00306322
0.00304831
0.00303259
0.00301628
0.00299954
0.00298246
0.00296512
0.00294757
0.00292984
0.0029119
0.00289367
0.00287489
0.00285486
0.00283169
0.00280094
5.09137e-06
6.86372e-05
0.000145055
0.000206282
0.000253169
0.00028924
0.000317654
0.000340872
0.000360702
0.000378409
0.000394837
0.000410522
0.00042578
0.000440791
0.000455645
0.000470386
0.00048503
0.000499588
0.000514068
0.000528484
0.000542858
0.000557224
0.000571625
0.000586121
0.00060078
0.000615687
0.000630938
0.000646637
0.0006629
0.000679846
0.000697594
0.000716256
0.000735926
0.000756663
0.000778491
0.000801396
0.000825351
0.000850316
0.000876241
0.000903072
0.000930748
0.000959198
0.000988344
0.0010181
0.00104838
0.00107913
0.00111031
0.0011419
0.00117386
0.00120621
0.00123893
0.001272
0.00130542
0.00133919
0.0013733
0.00140774
0.00144249
0.00147756
0.00151292
0.00154858
0.00158452
0.00162072
0.00165717
0.00169387
0.00173079
0.00176791
0.00180523
0.00184271
0.00188035
0.00191813
0.00195601
0.00199398
0.00203201
0.00207009
0.00210819
0.00214628
0.00218434
0.00222234
0.00226026
0.00229808
0.00233576
0.00237329
0.00241063
0.00244778
0.00248469
0.00252136
0.00255775
0.00259385
0.00262963
0.00266508
0.00270018
0.00273489
0.00276921
0.00280312
0.00283658
0.00286959
0.00290211
0.0029341
0.00296547
0.0029963
0.00302665
0.00305652
0.00308593
0.00311485
0.00314329
0.00317123
0.00319864
0.00322551
0.00325182
0.00327755
0.00330268
0.00332721
0.0033511
0.00337435
0.00339693
0.00341883
0.00344005
0.00346055
0.00348033
0.00349937
0.00351766
0.00353519
0.00355194
0.00356792
0.0035831
0.00359749
0.00361106
0.00362382
0.00363576
0.00364687
0.00365715
0.00366658
0.00367518
0.00368294
0.00368986
0.00369594
0.00370118
0.00370557
0.00370913
0.00371186
0.00371377
0.00371485
0.00371511
0.00371457
0.00371324
0.00371112
0.00370822
0.00370456
0.00370014
0.003695
0.00368913
0.00368255
0.0036753
0.00366737
0.0036588
0.0036496
0.0036398
0.00362942
0.00361848
0.00360701
0.00359503
0.00358256
0.00356959
0.00355611
0.00354205
0.00352732
0.0035118
0.00349558
0.00347877
0.00346151
0.00344388
0.00342596
0.0034078
0.00338945
0.00337092
0.00335215
0.00333291
0.00331264
0.00328983
0.00326163
5.91533e-06
7.46363e-05
0.000157459
0.000224769
0.000276949
0.000317452
0.000349485
0.000375602
0.000397724
0.000417241
0.000435118
0.000452003
0.000468311
0.000484298
0.000500118
0.000515863
0.000531588
0.000547332
0.000563131
0.000579019
0.000595041
0.000611245
0.000627692
0.00064445
0.000661596
0.000679215
0.000697396
0.000716232
0.000735815
0.000756231
0.000777561
0.000799868
0.000823199
0.000847579
0.000873005
0.000899456
0.000926896
0.00095528
0.000984555
0.00101467
0.00104555
0.00107715
0.00110939
0.00114222
0.00117557
0.00120941
0.00124369
0.00127838
0.00131349
0.00134898
0.00138485
0.00142109
0.00145769
0.00149465
0.00153195
0.00156959
0.00160755
0.00164582
0.0016844
0.00172326
0.00176241
0.00180182
0.00184148
0.00188137
0.00192148
0.00196179
0.00200228
0.00204292
0.00208371
0.00212462
0.00216562
0.00220669
0.00224782
0.00228896
0.0023301
0.00237122
0.00241228
0.00245326
0.00249413
0.00253487
0.00257544
0.00261584
0.00265602
0.00269596
0.00273564
0.00277504
0.00281412
0.00285288
0.00289129
0.00292933
0.00296698
0.00300423
0.00304105
0.00307742
0.00311333
0.00314876
0.00318371
0.00321804
0.0032518
0.00328505
0.00331781
0.00335009
0.00338189
0.00341319
0.00344399
0.00347426
0.00350399
0.00353316
0.00356175
0.00358974
0.00361711
0.00364385
0.00366993
0.00369533
0.00372005
0.00374406
0.00376735
0.00378989
0.00381168
0.0038327
0.00385293
0.00387236
0.00389098
0.00390878
0.00392575
0.00394189
0.00395717
0.00397159
0.00398515
0.00399783
0.00400963
0.00402054
0.00403057
0.00403972
0.00404797
0.00405533
0.0040618
0.00406737
0.00407206
0.00407586
0.00407879
0.00408083
0.00408201
0.00408232
0.00408178
0.00408041
0.0040782
0.00407516
0.00407132
0.00406669
0.00406127
0.00405509
0.00404816
0.00404051
0.00403215
0.00402311
0.00401341
0.00400308
0.00399212
0.00398058
0.00396847
0.00395581
0.00394261
0.00392886
0.00391453
0.00389958
0.00388396
0.00386771
0.0038509
0.00383362
0.00381596
0.003798
0.0037798
0.00376142
0.00374289
0.0037242
0.00370518
0.00368541
0.00366375
0.00363837
6.60725e-06
7.94259e-05
0.000167405
0.000239807
0.000296564
0.000341004
0.000376334
0.000405156
0.000429464
0.00045074
0.000470047
0.000488127
0.00050548
0.000522436
0.000539209
0.000555937
0.000572714
0.000589606
0.000606672
0.000623963
0.000641535
0.000659447
0.000677763
0.000696552
0.000715887
0.000735844
0.000756498
0.000777923
0.000800186
0.000823348
0.000847458
0.000872552
0.000898648
0.000925749
0.000953842
0.000982899
0.00101288
0.00104375
0.00107544
0.00110791
0.0011411
0.00117496
0.00120944
0.00124448
0.00128004
0.00131607
0.00135256
0.00138948
0.0014268
0.00146452
0.00150262
0.00154108
0.00157991
0.00161909
0.00165861
0.00169847
0.00173864
0.00177912
0.0018199
0.00186096
0.00190229
0.00194387
0.0019857
0.00202775
0.00207001
0.00211246
0.00215508
0.00219785
0.00224075
0.00228376
0.00232686
0.00237002
0.00241321
0.00245642
0.00249962
0.00254279
0.00258588
0.00262889
0.00267178
0.00271452
0.00275708
0.00279945
0.00284159
0.00288348
0.00292509
0.00296639
0.00300737
0.00304801
0.00308827
0.00312815
0.00316762
0.00320667
0.00324528
0.00328344
0.00332113
0.00335833
0.00339501
0.00343111
0.00346669
0.00350178
0.00353639
0.00357053
0.00360419
0.00363736
0.00367002
0.00370215
0.00373374
0.00376477
0.00379521
0.00382504
0.00385425
0.00388281
0.00391071
0.00393793
0.00396444
0.00399023
0.00401529
0.00403959
0.00406312
0.00408586
0.00410779
0.0041289
0.00414918
0.00416862
0.00418721
0.00420493
0.00422177
0.00423773
0.0042528
0.00426696
0.00428022
0.00429255
0.00430397
0.00431448
0.00432406
0.00433272
0.00434045
0.00434725
0.00435313
0.00435809
0.00436214
0.00436527
0.00436749
0.00436881
0.00436924
0.00436881
0.00436748
0.00436528
0.00436223
0.00435836
0.00435365
0.00434815
0.00434185
0.00433479
0.00432698
0.00431845
0.00430921
0.00429929
0.00428871
0.00427749
0.00426565
0.00425322
0.00424021
0.00422662
0.00421245
0.00419768
0.0041823
0.00416633
0.00414982
0.00413286
0.0041155
0.00409784
0.00407994
0.00406188
0.00404372
0.00402548
0.00400707
0.00398817
0.00396796
0.00394519
7.16485e-06
8.31111e-05
0.000175125
0.000251727
0.000312405
0.000360326
0.000398647
0.000429982
0.000456369
0.000479351
0.000500066
0.000519331
0.000537719
0.000555627
0.000573321
0.000590986
0.000608747
0.000626699
0.000644917
0.000663466
0.000682408
0.000701805
0.000721721
0.000742218
0.000763361
0.000785212
0.000807833
0.000831277
0.000855593
0.000880819
0.000906984
0.000934104
0.000962182
0.000991211
0.00102117
0.00105203
0.00108375
0.00111629
0.0011496
0.00118363
0.00121834
0.00125369
0.00128961
0.00132607
0.00136304
0.00140049
0.00143837
0.00147668
0.00151539
0.00155448
0.00159395
0.00163379
0.00167397
0.0017145
0.00175536
0.00179654
0.00183803
0.00187982
0.00192189
0.00196424
0.00200686
0.00204972
0.00209282
0.00213614
0.00217966
0.00222337
0.00226725
0.00231128
0.00235544
0.00239971
0.00244408
0.00248851
0.00253298
0.00257748
0.00262197
0.00266643
0.00271084
0.00275516
0.00279937
0.00284344
0.00288734
0.00293105
0.00297454
0.00301777
0.00306073
0.00310338
0.0031457
0.00318768
0.00322928
0.00327049
0.0033113
0.00335168
0.00339162
0.00343112
0.00347014
0.00350869
0.0035467
0.00358422
0.00362126
0.00365784
0.00369397
0.00372965
0.00376486
0.0037996
0.00383384
0.00386756
0.00390074
0.00393336
0.0039654
0.00399685
0.00402767
0.00405784
0.00408735
0.00411618
0.0041443
0.0041717
0.00419836
0.00422425
0.00424937
0.00427369
0.00429719
0.00431985
0.00434168
0.00436264
0.00438274
0.00440196
0.0044203
0.00443774
0.00445426
0.00446986
0.00448452
0.00449825
0.00451105
0.00452291
0.00453383
0.00454381
0.00455283
0.00456089
0.004568
0.00457418
0.00457943
0.00458374
0.00458709
0.00458951
0.00459102
0.00459162
0.00459131
0.00459011
0.00458804
0.00458509
0.0045813
0.00457667
0.00457123
0.00456498
0.00455796
0.00455017
0.00454165
0.0045324
0.00452246
0.00451184
0.00450057
0.00448867
0.00447615
0.00446303
0.00444931
0.004435
0.0044201
0.00440463
0.00438865
0.0043722
0.00435537
0.00433822
0.00432085
0.00430334
0.00428577
0.00426819
0.00425058
0.0042327
0.00421395
0.00419344
7.59044e-06
8.58003e-05
0.000180838
0.000260816
0.000324803
0.000375762
0.000416769
0.000450415
0.000478754
0.000503367
0.000525445
0.000545865
0.000565258
0.000584076
0.000602635
0.000621156
0.000639797
0.000658675
0.000677879
0.000697484
0.000717556
0.000738157
0.000759345
0.000781175
0.000803703
0.000826976
0.000851042
0.000875939
0.0009017
0.000928347
0.000955895
0.000984348
0.0010137
0.00104394
0.00107503
0.00110696
0.00113969
0.00117316
0.00120735
0.00124222
0.0012777
0.00131378
0.00135041
0.00138754
0.00142516
0.00146323
0.00150173
0.00154063
0.00157992
0.00161958
0.00165961
0.00169998
0.00174069
0.00178173
0.0018231
0.00186477
0.00190675
0.00194901
0.00199157
0.00203439
0.00207748
0.00212082
0.0021644
0.0022082
0.00225222
0.00229644
0.00234085
0.00238542
0.00243014
0.002475
0.00251997
0.00256503
0.00261017
0.00265536
0.00270057
0.00274577
0.00279096
0.00283608
0.00288113
0.00292606
0.00297085
0.00301547
0.00305989
0.00310407
0.003148
0.00319163
0.00323495
0.00327793
0.00332055
0.00336279
0.00340462
0.00344604
0.00348703
0.00352758
0.00356768
0.00360731
0.00364649
0.00368523
0.00372355
0.00376146
0.00379894
0.003836
0.00387261
0.00390877
0.00394444
0.00397961
0.00401426
0.00404836
0.00408189
0.00411482
0.00414714
0.00417882
0.00420985
0.00424019
0.00426983
0.00429874
0.00432692
0.00435434
0.00438097
0.00440679
0.00443179
0.00445596
0.00447927
0.00450171
0.00452328
0.00454397
0.00456376
0.00458265
0.00460061
0.00461762
0.00463369
0.00464881
0.00466299
0.00467621
0.00468849
0.00469982
0.00471015
0.00471952
0.00472791
0.00473535
0.00474183
0.00474736
0.00475192
0.00475554
0.00475823
0.00475998
0.00476081
0.00476073
0.00475976
0.00475789
0.00475516
0.00475156
0.00474713
0.00474187
0.00473581
0.00472896
0.00472134
0.00471297
0.00470387
0.00469406
0.00468358
0.00467242
0.00466062
0.00464819
0.00463515
0.0046215
0.00460727
0.00459249
0.00457718
0.00456142
0.00454526
0.00452879
0.00451209
0.00449527
0.00447843
0.00446164
0.0044449
0.00442808
0.0044107
0.00439209
7.89083e-06
8.76043e-05
0.000184756
0.00026735
0.000334059
0.000387621
0.000430998
0.00046673
0.000496864
0.000523
0.000546363
0.000567871
0.000588204
0.000607857
0.000627185
0.000646445
0.00066582
0.000685445
0.000705423
0.000725835
0.00074675
0.000768225
0.000790315
0.000813066
0.000836523
0.000860724
0.000885701
0.000911483
0.000938087
0.000965528
0.000993808
0.00102293
0.00105287
0.00108362
0.00111515
0.00114744
0.00118044
0.00121413
0.00124847
0.00128342
0.00131894
0.00135499
0.00139156
0.00142859
0.00146608
0.00150398
0.00154229
0.00158098
0.00162004
0.00165945
0.00169921
0.0017393
0.00177973
0.00182047
0.00186153
0.0019029
0.00194458
0.00198655
0.00202881
0.00207137
0.0021142
0.0021573
0.00220067
0.0022443
0.00228817
0.00233228
0.00237661
0.00242115
0.00246589
0.00251081
0.00255589
0.00260112
0.00264647
0.00269192
0.00273745
0.00278303
0.00282864
0.00287424
0.00291981
0.00296532
0.00301072
0.003056
0.00310111
0.00314603
0.00319071
0.00323513
0.00327925
0.00332306
0.00336652
0.00340961
0.00345231
0.00349462
0.0035365
0.00357796
0.00361899
0.00365965
0.00369995
0.00373987
0.00377942
0.00381859
0.00385738
0.00389577
0.00393374
0.00397127
0.00400834
0.00404493
0.004081
0.00411653
0.00415151
0.0041859
0.00421969
0.00425284
0.00428534
0.00431716
0.00434829
0.00437869
0.00440836
0.00443728
0.0044654
0.00449271
0.0045192
0.00454484
0.00456962
0.00459353
0.00461656
0.0046387
0.00465994
0.00468029
0.00469969
0.00471813
0.00473562
0.00475214
0.00476771
0.00478231
0.00479596
0.00480863
0.00482032
0.00483103
0.00484076
0.00484952
0.00485731
0.00486413
0.00486999
0.00487489
0.00487884
0.00488185
0.00488392
0.00488507
0.00488531
0.00488465
0.0048831
0.00488067
0.00487739
0.00487326
0.00486831
0.00486255
0.00485599
0.00484866
0.00484058
0.00483177
0.00482224
0.00481201
0.00480112
0.00478956
0.00477738
0.00476457
0.00475117
0.00473721
0.00472273
0.00470778
0.00469243
0.00467675
0.00466085
0.00464483
0.0046288
0.00461286
0.00459704
0.00458126
0.00456513
0.0045481
8.07684e-06
8.86371e-05
0.000187095
0.000271599
0.000340467
0.000396193
0.0004416
0.000479161
0.000510893
0.000538397
0.000562916
0.000585397
0.000606554
0.000626917
0.000646872
0.000666703
0.000686614
0.000706756
0.000727241
0.000748157
0.00076957
0.000791538
0.000814108
0.00083732
0.000861208
0.000885801
0.000911122
0.000937188
0.000964008
0.000991588
0.00101993
0.00104901
0.00107883
0.00110937
0.00114059
0.00117248
0.001205
0.00123813
0.00127183
0.00130606
0.0013408
0.00137602
0.0014117
0.0014478
0.00148431
0.0015212
0.00155847
0.0015961
0.00163408
0.0016724
0.00171106