/*--------------------------------*- C++ -*----------------------------------*\
  =========                 |
  \\      /  F ield         | OpenFOAM: The Open Source CFD Toolbox
   \\    /   O peration     | Website:  https://openfoam.org
    \\  /    A nd           | Version:  12
     \\/     M anipulation  |
\*---------------------------------------------------------------------------*/
FoamFile
{
    format      ascii;
    class       volScalarField;
    location    "0.21";
    object      p;
}
// * * * * * * * * * * * * * * * * * * * * * * * * * * * * * * * * * * * * * //

dimensions      [0 2 -2 0 0 0 0];

internalField   nonuniform List<scalar> 
12225
(
-1.12085
-3.40386
-4.56636
-4.87461
-5.04295
-5.20278
-5.32749
-5.41605
-5.48583
-5.54704
-5.60149
-5.64898
-5.68985
-5.72341
-5.74854
-5.75493
-5.75226
-5.64461
-4.58835
-5.29047
-5.38074
-5.24575
-5.20577
-5.27316
-5.35405
-5.42007
-5.47726
-5.53087
-5.58069
-5.62555
-5.66518
-5.69869
-5.72566
-5.73907
-5.75176
-5.73664
-4.7931
-4.69016
-4.84697
-4.96916
-5.07663
-5.19906
-5.30749
-5.39033
-5.45774
-5.51782
-5.57225
-5.62079
-5.66361
-5.70044
-5.73172
-5.75434
-5.78256
-5.81526
-4.6558
-4.57769
-4.8538
-5.03259
-5.12714
-5.2244
-5.31967
-5.3974
-5.46221
-5.52067
-5.57425
-5.62259
-5.66585
-5.70415
-5.73854
-5.76908
-5.80745
-5.85994
-4.66277
-4.68004
-4.92016
-5.07013
-5.14627
-5.23111
-5.32088
-5.39714
-5.46133
-5.51932
-5.57278
-5.62152
-5.66581
-5.7062
-5.74418
-5.78144
-5.8266
-5.88642
-4.72445
-4.76693
-4.94476
-5.07556
-5.15365
-5.23632
-5.32279
-5.39783
-5.46168
-5.51944
-5.57293
-5.62218
-5.66758
-5.70999
-5.7511
-5.7932
-5.84241
-5.90413
-4.78419
-4.82372
-4.96016
-5.08245
-5.16494
-5.24479
-5.32664
-5.39969
-5.463
-5.52046
-5.57392
-5.62363
-5.67006
-5.71423
-5.75785
-5.80318
-5.85445
-5.91516
-4.83733
-4.87224
-4.98258
-5.09528
-5.17794
-5.25397
-5.33109
-5.40196
-5.4646
-5.52173
-5.57512
-5.62522
-5.67257
-5.7182
-5.76367
-5.81093
-5.86274
-5.92101
-4.88712
-4.91886
-5.00969
-5.11056
-5.19073
-5.26333
-5.33624
-5.40479
-5.46654
-5.52322
-5.57645
-5.62682
-5.67488
-5.72157
-5.76823
-5.81635
-5.86767
-5.92294
-4.93447
-4.9631
-5.03831
-5.12728
-5.20376
-5.27327
-5.34235
-5.40835
-5.46893
-5.52501
-5.57796
-5.62841
-5.67689
-5.72422
-5.77143
-5.81961
-5.86975
-5.92197
-4.97923
-5.00452
-5.06735
-5.14548
-5.21745
-5.28384
-5.34933
-5.41266
-5.47182
-5.52714
-5.57964
-5.62996
-5.67857
-5.7261
-5.77333
-5.82098
-5.86957
-5.91887
-5.01773
-5.04007
-5.09394
-5.16326
-5.2306
-5.29399
-5.35639
-5.41724
-5.47493
-5.52939
-5.58133
-5.63132
-5.67975
-5.72713
-5.77399
-5.82079
-5.8678
-5.91464
-5.05341
-5.07322
-5.11977
-5.18135
-5.24399
-5.3043
-5.3638
-5.42224
-5.47836
-5.53182
-5.58308
-5.63257
-5.68062
-5.72758
-5.77382
-5.81959
-5.86498
-5.9096
-5.09092
-5.10823
-5.14805
-5.20208
-5.25948
-5.31625
-5.37261
-5.42839
-5.48261
-5.5348
-5.58511
-5.63383
-5.68119
-5.72741
-5.77268
-5.8171
-5.86067
-5.90301
-5.12902
-5.14393
-5.17779
-5.22484
-5.27679
-5.32962
-5.38267
-5.43561
-5.48765
-5.53824
-5.58729
-5.63493
-5.68127
-5.72638
-5.77035
-5.81316
-5.85476
-5.89485
-5.16576
-5.17851
-5.20739
-5.24833
-5.29502
-5.34379
-5.39348
-5.4435
-5.49317
-5.54188
-5.58938
-5.63561
-5.68059
-5.72428
-5.76666
-5.80768
-5.84726
-5.88521
-5.19826
-5.20927
-5.23426
-5.27028
-5.3124
-5.35741
-5.40391
-5.45116
-5.49843
-5.54512
-5.59086
-5.63546
-5.67882
-5.72086
-5.7615
-5.80065
-5.83827
-5.87421
-5.22216
-5.23196
-5.25435
-5.28703
-5.32588
-5.36801
-5.41199
-5.45695
-5.50215
-5.54698
-5.59099
-5.63394
-5.67565
-5.716
-5.7549
-5.79228
-5.82807
-5.86222
-5.2305
-5.23986
-5.26132
-5.29285
-5.33053
-5.37151
-5.41432
-5.45808
-5.50208
-5.54569
-5.58844
-5.63007
-5.67041
-5.70932
-5.74675
-5.78262
-5.81692
-5.84962
-5.21548
-5.22553
-5.24851
-5.28214
-5.32192
-5.36449
-5.40834
-5.45277
-5.49717
-5.54089
-5.5835
-5.62476
-5.66456
-5.70282
-5.73948
-5.77453
-5.80796
-5.83979
-5.18925
-5.20043
-5.22621
-5.26392
-5.30766
-5.3532
-5.39921
-5.44539
-5.49109
-5.53563
-5.57866
-5.62009
-5.65987
-5.69795
-5.73432
-5.76899
-5.802
-5.8334
-5.15427
-5.16664
-5.19667
-5.24112
-5.29059
-5.3397
-5.3884
-5.43706
-5.48474
-5.53054
-5.5743
-5.61615
-5.65613
-5.69424
-5.7305
-5.76498
-5.79775
-5.82888
-5.11363
-5.12622
-5.16158
-5.21614
-5.27324
-5.32621
-5.37775
-5.4291
-5.47884
-5.52597
-5.5706
-5.61303
-5.65336
-5.69161
-5.72787
-5.76227
-5.7949
-5.82589
-5.06977
-5.08133
-5.1237
-5.19029
-5.25496
-5.31256
-5.36843
-5.42306
-5.47453
-5.52254
-5.56783
-5.61076
-5.65136
-5.68971
-5.72595
-5.76027
-5.7928
-5.82364
-5.0229
-5.03066
-5.09168
-5.17144
-5.23654
-5.29616
-5.35801
-5.41754
-5.47124
-5.52024
-5.56621
-5.60962
-5.65044
-5.68881
-5.725
-5.75921
-5.79163
-5.82241
-4.97494
-4.95129
-5.06206
-5.17097
-5.2315
-5.28554
-5.34892
-5.41122
-5.46643
-5.51636
-5.56315
-5.60716
-5.64831
-5.68683
-5.72306
-5.75727
-5.78965
-5.82037
-4.96563
-4.82129
-4.9803
-5.14646
-5.23091
-5.29187
-5.35659
-5.41768
-5.47134
-5.52039
-5.56669
-5.61026
-5.65095
-5.68903
-5.72484
-5.75866
-5.79074
-5.82125
-5.11103
-4.82722
-4.86193
-4.99234
-5.11186
-5.2188
-5.31278
-5.38845
-5.45059
-5.50572
-5.55634
-5.6028
-5.64545
-5.6849
-5.72168
-5.75617
-5.78888
-5.82044
-5.04783
-5.54751
-5.5576
-5.39829
-5.31725
-5.34138
-5.39544
-5.44475
-5.48974
-5.53418
-5.57769
-5.61898
-5.65769
-5.69403
-5.72818
-5.76025
-5.7905
-5.82079
-1.70914
-3.57969
-4.65094
-4.94394
-5.07871
-5.21538
-5.32721
-5.4071
-5.46994
-5.52584
-5.577
-5.62353
-5.66597
-5.70509
-5.74128
-5.77457
-5.80462
-5.82965
-6.72416
-6.72416
-6.72452
-6.7252
-6.72612
-6.72724
-6.72857
-6.73012
-6.73191
-6.73397
-6.7363
-6.73895
-6.74195
-6.74533
-6.74914
-6.7534
-6.75817
-6.76347
-6.76933
-6.77581
-6.78293
-6.79074
-6.79928
-6.80858
-6.8187
-6.82969
-6.8416
-6.85447
-6.86835
-6.88328
-6.89923
-6.91611
-6.9339
-6.9532
-6.97482
-6.99664
-7.01878
-7.0455
-7.0773
-7.11064
-7.13134
-7.14486
-7.16408
-7.18738
-7.21496
-7.24323
-7.27187
-7.30135
-7.33147
-7.36214
-7.39323
-7.42463
-7.45623
-7.48793
-7.51961
-7.55117
-7.5825
-7.61348
-7.644
-7.67394
-7.70317
-7.73156
-7.75898
-7.78528
-7.8103
-7.83391
-7.85595
-7.87624
-7.89462
-7.91092
-7.92496
-7.93656
-7.94554
-7.95171
-7.95489
-7.95488
-7.9515
-7.94456
-7.93386
-7.91923
-7.90046
-7.87739
-7.84982
-7.81757
-7.78049
-7.73838
-7.69109
-7.63845
-7.58032
-7.51653
-7.44695
-7.37144
-7.28987
-7.20214
-7.10812
-7.00773
-6.90093
-6.78775
-6.66814
-6.54189
-6.40877
-6.26855
-6.12141
-5.96739
-5.80652
-5.63883
-5.46434
-5.2831
-5.09517
-4.90062
-4.69953
-4.49202
-4.27821
-4.05822
-3.83223
-3.60039
-3.36288
-3.11991
-2.87168
-2.61842
-2.36036
-2.09776
-1.83087
-1.55995
-1.2853
-1.00719
-0.72593
-0.441808
-0.155137
0.133771
0.424601
0.717034
1.01075
1.30543
1.60075
1.8964
2.19206
2.48742
2.78218
3.07603
3.36867
3.65983
3.94923
4.23659
4.52166
4.80419
5.08395
5.36071
5.63425
5.90438
6.17091
6.43367
6.69248
6.94721
7.19772
7.44387
7.68556
7.92269
8.15517
8.38291
8.60585
8.82393
9.03712
9.24538
9.4487
9.64704
9.84021
10.0281
10.2107
10.388
10.5601
10.7269
10.8885
11.0449
11.1963
11.3428
11.4854
11.6255
11.7722
11.9261
-6.72285
-6.72314
-6.72359
-6.72416
-6.72473
-6.72529
-6.72596
-6.72685
-6.72802
-6.72951
-6.73134
-6.73352
-6.73609
-6.73905
-6.74244
-6.74628
-6.75061
-6.75545
-6.76084
-6.7668
-6.77339
-6.78062
-6.78854
-6.79718
-6.80657
-6.81674
-6.82771
-6.83948
-6.85204
-6.86533
-6.87934
-6.89418
-6.91018
-6.92738
-6.94458
-6.96291
-6.98395
-7.00465
-7.02254
-7.03617
-7.05827
-7.09026
-7.1235
-7.15846
-7.19007
-7.21964
-7.24957
-7.27981
-7.31037
-7.34125
-7.37241
-7.40379
-7.43531
-7.4669
-7.49845
-7.52989
-7.5611
-7.59198
-7.62241
-7.65229
-7.68147
-7.70985
-7.73728
-7.76362
-7.78874
-7.81246
-7.83465
-7.85513
-7.87374
-7.89031
-7.90466
-7.91661
-7.92598
-7.93259
-7.93625
-7.93677
-7.93396
-7.92763
-7.91759
-7.90366
-7.88565
-7.86336
-7.83664
-7.80528
-7.76913
-7.72801
-7.68175
-7.6302
-7.5732
-7.51061
-7.44228
-7.36808
-7.28788
-7.20157
-7.10903
-7.01015
-6.90482
-6.79294
-6.67434
-6.54883
-6.41647
-6.27756
-6.13192
-5.9795
-5.82026
-5.65422
-5.48139
-5.30182
-5.11556
-4.92268
-4.72326
-4.51741
-4.30525
-4.08691
-3.86253
-3.63229
-3.39635
-3.15493
-2.90821
-2.65643
-2.39982
-2.13862
-1.87308
-1.60349
-1.3301
-1.05321
-0.773105
-0.490091
-0.20447
0.0834479
0.373347
0.664911
0.957822
1.25176
1.54641
1.84144
2.13656
2.43144
2.72577
3.01927
3.31163
3.60256
3.8918
4.17906
4.46409
4.74663
5.02646
5.30334
5.57707
5.84742
6.11422
6.37729
6.63647
6.89159
7.14252
7.38914
7.63132
7.86896
8.10198
8.33028
8.5538
8.77249
8.9863
9.1952
9.39916
9.59812
9.79192
9.98046
10.1637
10.3418
10.5146
10.6821
10.8445
11.0018
11.1541
11.3019
11.4464
11.5886
11.7388
11.8866
-6.71931
-6.72037
-6.7215
-6.72249
-6.7232
-6.72374
-6.7243
-6.72502
-6.726
-6.72727
-6.72889
-6.73087
-6.73324
-6.73602
-6.73924
-6.74292
-6.74709
-6.75179
-6.75704
-6.76288
-6.76933
-6.77643
-6.78422
-6.79273
-6.80198
-6.81202
-6.82285
-6.83451
-6.84702
-6.86038
-6.87462
-6.88979
-6.90609
-6.92365
-6.94207
-6.96115
-6.98159
-7.00286
-7.02386
-7.04481
-7.06792
-7.09389
-7.12104
-7.14946
-7.17805
-7.20677
-7.23605
-7.26577
-7.29587
-7.32628
-7.35696
-7.38784
-7.41886
-7.44993
-7.48098
-7.51192
-7.54265
-7.57306
-7.60306
-7.63253
-7.66135
-7.68939
-7.71652
-7.74261
-7.7675
-7.79105
-7.81311
-7.83351
-7.85209
-7.86868
-7.88311
-7.89519
-7.90475
-7.91159
-7.91555
-7.91642
-7.91402
-7.90817
-7.89867
-7.88533
-7.86797
-7.84641
-7.82046
-7.78995
-7.7547
-7.71454
-7.66931
-7.61885
-7.563
-7.50161
-7.43454
-7.36165
-7.28282
-7.19792
-7.10684
-7.00946
-6.90568
-6.79536
-6.67836
-6.55473
-6.42432
-6.28724
-6.14343
-5.99285
-5.8355
-5.67136
-5.50046
-5.32282
-5.13851
-4.94758
-4.75011
-4.54622
-4.336
-4.11958
-3.89713
-3.66878
-3.43473
-3.19516
-2.95027
-2.70027
-2.44541
-2.18591
-1.92204
-1.65406
-1.38223
-1.10685
-0.828198
-0.546573
-0.262277
0.0243806
0.313088
0.603531
0.895391
1.18835
1.48209
1.7763
2.07067
2.36487
2.65861
2.95159
3.2435
3.53407
3.82301
4.11005
4.39493
4.6774
4.95722
5.23416
5.508
5.77854
6.04559
6.30895
6.56848
6.824
7.07538
7.32248
7.56519
7.8034
8.03701
8.26593
8.49009
8.70943
8.92389
9.13343
9.33801
9.53756
9.73204
9.92136
10.1055
10.2844
10.458
10.6265
10.7898
10.9482
11.1017
11.251
11.3974
11.5413
11.6941
11.8318
-6.71399
-6.71581
-6.71796
-6.71978
-6.72105
-6.72198
-6.7228
-6.72368
-6.72473
-6.72603
-6.72764
-6.72959
-6.73193
-6.73467
-6.73785
-6.74149
-6.74562
-6.75027
-6.75547
-6.76126
-6.76765
-6.77469
-6.78241
-6.79083
-6.79998
-6.8099
-6.82061
-6.83212
-6.84448
-6.85769
-6.87179
-6.88683
-6.90287
-6.91996
-6.93807
-6.95711
-6.9771
-6.998
-7.0196
-7.04212
-7.06596
-7.09125
-7.11765
-7.14481
-7.17252
-7.20075
-7.2295
-7.2587
-7.2883
-7.31823
-7.34844
-7.37887
-7.40944
-7.44009
-7.47072
-7.50127
-7.53163
-7.5617
-7.59138
-7.62056
-7.64913
-7.67694
-7.70389
-7.72982
-7.7546
-7.77808
-7.8001
-7.8205
-7.83912
-7.8558
-7.87034
-7.88259
-7.89236
-7.89946
-7.90371
-7.90492
-7.90291
-7.89749
-7.88846
-7.87564
-7.85884
-7.83789
-7.81259
-7.78278
-7.74827
-7.7089
-7.6645
-7.61491
-7.55997
-7.49954
-7.43346
-7.36161
-7.28384
-7.20003
-7.11007
-7.01383
-6.9112
-6.80208
-6.68636
-6.56403
-6.43505
-6.29939
-6.15701
-6.00789
-5.852
-5.68934
-5.51993
-5.3438
-5.16099
-4.97157
-4.77562
-4.57324
-4.36452
-4.14961
-3.92864
-3.70177
-3.46918
-3.23104
-2.98756
-2.73896
-2.48545
-2.22729
-1.96471
-1.69799
-1.42738
-1.15318
-0.875662
-0.595126
-0.311871
-0.0262049
0.261563
0.551119
0.842147
1.13433
1.42736
1.72091
2.01467
2.30833
2.60158
2.89413
3.18568
3.47594
3.76463
4.05148
4.33623
4.61862
4.89842
5.17539
5.44931
5.71998
5.9872
6.25079
6.51057
6.7664
7.01811
7.26559
7.50871
7.74735
7.98141
8.21081
8.43548
8.65535
8.87035
9.08044
9.28553
9.48556
9.68051
9.87035
10.055
10.2345
10.4088
10.5779
10.742
10.901
11.0554
11.2056
11.3529
11.4969
11.6486
11.7741
-6.70816
-6.7108
-6.71409
-6.71688
-6.71887
-6.72035
-6.7216
-6.72282
-6.72413
-6.72563
-6.7274
-6.72949
-6.73194
-6.73479
-6.73806
-6.74179
-6.74601
-6.75075
-6.75603
-6.76189
-6.76837
-6.77548
-6.78327
-6.79177
-6.801
-6.81099
-6.82178
-6.83339
-6.84585
-6.85917
-6.8734
-6.88856
-6.90469
-6.92181
-6.93991
-6.95897
-6.97899
-6.99991
-7.02168
-7.04438
-7.06812
-7.09297
-7.11883
-7.1455
-7.1728
-7.20063
-7.22897
-7.25775
-7.28694
-7.31648
-7.34632
-7.37638
-7.4066
-7.43692
-7.46725
-7.49751
-7.5276
-7.55743
-7.58689
-7.61588
-7.64428
-7.67196
-7.69879
-7.72464
-7.74937
-7.77282
-7.79484
-7.81528
-7.83397
-7.85074
-7.86541
-7.87781
-7.88776
-7.89508
-7.89957
-7.90105
-7.89934
-7.89425
-7.88558
-7.87315
-7.85678
-7.83627
-7.81145
-7.78215
-7.74818
-7.70937
-7.66556
-7.6166
-7.56231
-7.50255
-7.43718
-7.36606
-7.28905
-7.20602
-7.11685
-7.02144
-6.91966
-6.81143
-6.69667
-6.57532
-6.44733
-6.31267
-6.17129
-6.02317
-5.86829
-5.70665
-5.53827
-5.36316
-5.18138
-4.99299
-4.79807
-4.59671
-4.38902
-4.17512
-3.95516
-3.72929
-3.49768
-3.26052
-3.018
-2.77033
-2.51775
-2.26049
-1.99879
-1.73292
-1.46315
-1.18975
-0.913004
-0.633211
-0.350669
-0.0656813
0.221442
0.510388
0.800843
1.09249
1.38502
1.67811
1.97145
2.26473
2.55765
2.84989
3.14118
3.43122
3.71973
4.00644
4.29109
4.57341
4.85318
5.13016
5.40413
5.67488
5.94221
6.20594
6.4659
6.72193
6.97388
7.22161
7.465
7.70394
7.93833
8.16808
8.39311
8.61334
8.82872
9.03917
9.2446
9.44495
9.64019
9.83034
10.0153
10.1952
10.3698
10.5394
10.7038
10.8633
11.0181
11.1686
11.3158
11.4587
11.6076
11.7214
-6.70298
-6.70635
-6.71066
-6.71439
-6.71714
-6.71924
-6.721
-6.72265
-6.72433
-6.72616
-6.72821
-6.73055
-6.73324
-6.7363
-6.73979
-6.74373
-6.74815
-6.75308
-6.75857
-6.76463
-6.7713
-6.77862
-6.78662
-6.79533
-6.80477
-6.81499
-6.82601
-6.83785
-6.85055
-6.86413
-6.87861
-6.89401
-6.91036
-6.92765
-6.94589
-6.96505
-6.98514
-7.00612
-7.02797
-7.05071
-7.07434
-7.09888
-7.12426
-7.15042
-7.17724
-7.20465
-7.23259
-7.26101
-7.28986
-7.31908
-7.34861
-7.37839
-7.40836
-7.43844
-7.46854
-7.4986
-7.52852
-7.55819
-7.58753
-7.6164
-7.64471
-7.67233
-7.69912
-7.72495
-7.74968
-7.77316
-7.79524
-7.81574
-7.83452
-7.8514
-7.8662
-7.87876
-7.88888
-7.89638
-7.90108
-7.90279
-7.90132
-7.89649
-7.88809
-7.87596
-7.8599
-7.83972
-7.81525
-7.78631
-7.75272
-7.71432
-7.67093
-7.6224
-7.56857
-7.50928
-7.44441
-7.37379
-7.29731
-7.21483
-7.12623
-7.0314
-6.93023
-6.82264
-6.70855
-6.58788
-6.46057
-6.32659
-6.18589
-6.03844
-5.88424
-5.72328
-5.55557
-5.38114
-5.20005
-5.01234
-4.81809
-4.61741
-4.41039
-4.19716
-3.97786
-3.75265
-3.5217
-3.28518
-3.04329
-2.79626
-2.54429
-2.28763
-2.02652
-1.76123
-1.49201
-1.21916
-0.942938
-0.663653
-0.381598
-0.0970771
0.189601
0.478123
0.768178
1.05945
1.35162
1.64438
1.93742
2.23043
2.52309
2.81512
3.10621
3.39608
3.68444
3.97103
4.25559
4.53785
4.81758
5.09454
5.36852
5.6393
5.90669
6.17051
6.43057
6.68672
6.9388
7.1867
7.43027
7.66941
7.90402
8.13399
8.35926
8.57973
8.79534
9.00601
9.21166
9.41222
9.60767
9.79801
9.98323
10.1633
10.3382
10.5079
10.6726
10.8323
10.9872
11.1376
11.2843
11.4255
11.5713
11.6746
-6.6993
-6.70324
-6.70838
-6.7129
-6.71633
-6.71902
-6.72131
-6.72342
-6.72552
-6.72771
-6.73011
-6.73277
-6.73575
-6.73911
-6.74288
-6.74709
-6.75179
-6.757
-6.76275
-6.76909
-6.77604
-6.78363
-6.79191
-6.80089
-6.81062
-6.82112
-6.83241
-6.84453
-6.8575
-6.87134
-6.88606
-6.90168
-6.9182
-6.93564
-6.95399
-6.97323
-6.99336
-7.01435
-7.0362
-7.05889
-7.08241
-7.10676
-7.13187
-7.15771
-7.18421
-7.21131
-7.23896
-7.26711
-7.29571
-7.3247
-7.35403
-7.38362
-7.41342
-7.44335
-7.47334
-7.50329
-7.53312
-7.56273
-7.59201
-7.62087
-7.64917
-7.67679
-7.70361
-7.72949
-7.75428
-7.77784
-7.8
-7.82061
-7.83951
-7.85651
-7.87145
-7.88416
-7.89443
-7.9021
-7.90698
-7.90888
-7.9076
-7.90296
-7.89478
-7.88286
-7.86702
-7.84708
-7.82284
-7.79415
-7.76082
-7.72267
-7.67956
-7.63131
-7.57777
-7.5188
-7.45424
-7.38396
-7.30782
-7.22569
-7.13747
-7.04302
-6.94226
-6.83509
-6.72143
-6.60119
-6.47431
-6.34076
-6.20049
-6.05347
-5.89968
-5.73914
-5.57185
-5.39784
-5.21716
-5.02987
-4.83604
-4.63578
-4.42918
-4.21637
-3.99749
-3.77269
-3.54215
-3.30604
-3.06456
-2.81793
-2.56636
-2.31009
-2.04938
-1.78446
-1.51562
-1.24313
-0.96727
-0.688333
-0.406615
-0.122421
0.163942
0.452163
0.741927
1.03292
1.32483
1.61735
1.91016
2.20295
2.49541
2.78725
3.07817
3.36789
3.65613
3.9426
4.22706
4.50924
4.78891
5.06583
5.33978
5.61055
5.87794
6.14178
6.40188
6.65809
6.91025
7.15823
7.40191
7.64116
7.87589
8.106
8.3314
8.55202
8.76777
8.97858
9.18437
9.38508
9.58067
9.77115
9.95651
10.1367
10.3118
10.4816
10.6464
10.8061
10.961
11.111
11.2568
11.396
11.539
11.6332
-6.69758
-6.70192
-6.70765
-6.71279
-6.71679
-6.71999
-6.72276
-6.72531
-6.7278
-6.73038
-6.73312
-6.73612
-6.73943
-6.7431
-6.74717
-6.75169
-6.75669
-6.7622
-6.76825
-6.77489
-6.78214
-6.79003
-6.7986
-6.80788
-6.81789
-6.82867
-6.84023
-6.85261
-6.86583
-6.87989
-6.89482
-6.91062
-6.92729
-6.94485
-6.96327
-6.98257
-7.00272
-7.02371
-7.04553
-7.06816
-7.09159
-7.1158
-7.14074
-7.16639
-7.1927
-7.21961
-7.24708
-7.27507
-7.30352
-7.33238
-7.3616
-7.39111
-7.42083
-7.45071
-7.48066
-7.5106
-7.54043
-7.57006
-7.59938
-7.62828
-7.65665
-7.68435
-7.71126
-7.73723
-7.76213
-7.7858
-7.80809
-7.82883
-7.84786
-7.865
-7.88008
-7.89293
-7.90335
-7.91116
-7.91618
-7.91821
-7.91708
-7.91258
-7.90454
-7.89276
-7.87705
-7.85725
-7.83315
-7.8046
-7.7714
-7.73341
-7.69044
-7.64235
-7.58897
-7.53016
-7.46577
-7.39567
-7.31972
-7.23779
-7.14978
-7.05555
-6.95502
-6.84809
-6.73466
-6.61465
-6.48801
-6.35468
-6.21463
-6.06782
-5.91426
-5.75393
-5.58685
-5.41306
-5.23259
-5.04552
-4.85191
-4.65186
-4.44549
-4.23291
-4.01426
-3.78969
-3.55939
-3.32351
-3.08228
-2.83588
-2.58456
-2.32853
-2.06805
-1.80338
-1.53478
-1.26253
-0.98691
-0.708209
-0.426723
-0.142758
0.14338
0.43138
0.72093
1.01171
1.30342
1.59574
1.88836
2.18097
2.47327
2.76495
3.05572
3.34529
3.6334
3.91975
4.2041
4.48618
4.76576
5.0426
5.31649
5.58721
5.85456
6.11838
6.37846
6.63467
6.88685
7.13486
7.37857
7.61787
7.85265
8.08283
8.3083
8.52899
8.74482
8.95571
9.16158
9.36238
9.55807
9.74865
9.93409
10.1144
10.2895
10.4594
10.6242
10.7839
10.9385
11.0879
11.2327
11.3699
11.5102
11.5965
-6.69803
-6.70261
-6.7087
-6.71425
-6.71867
-6.72229
-6.72545
-6.72838
-6.73124
-6.73415
-6.73722
-6.74053
-6.74414
-6.74811
-6.75248
-6.75728
-6.76257
-6.76836
-6.7747
-6.78161
-6.78914
-6.79731
-6.80614
-6.81568
-6.82595
-6.83697
-6.84877
-6.86137
-6.87478
-6.88903
-6.90411
-6.92004
-6.93683
-6.95447
-6.97296
-6.9923
-7.01246
-7.03345
-7.05526
-7.07785
-7.10122
-7.12535
-7.15021
-7.17575
-7.20196
-7.22878
-7.25618
-7.2841
-7.3125
-7.34133
-7.37053
-7.40004
-7.42978
-7.4597
-7.4897
-7.5197
-7.54961
-7.57933
-7.60875
-7.63777
-7.66626
-7.69409
-7.72113
-7.74724
-7.77228
-7.7961
-7.81852
-7.8394
-7.85857
-7.87584
-7.89105
-7.90401
-7.91455
-7.92247
-7.92758
-7.92971
-7.92866
-7.92424
-7.91626
-7.90454
-7.88889
-7.86913
-7.84508
-7.81657
-7.78341
-7.74545
-7.70252
-7.65446
-7.60112
-7.54235
-7.47801
-7.40796
-7.33207
-7.25022
-7.16227
-7.06813
-6.96768
-6.86083
-6.74747
-6.62753
-6.50096
-6.36769
-6.2277
-6.08095
-5.92744
-5.76716
-5.60014
-5.4264
-5.246
-5.05899
-4.86546
-4.66549
-4.45919
-4.2467
-4.02814
-3.80368
-3.57348
-3.33772
-3.0966
-2.85033
-2.59913
-2.34324
-2.08291
-1.81838
-1.54994
-1.27784
-1.00238
-0.723841
-0.442521
-0.158723
0.127246
0.415076
0.704455
0.995069
1.28661
1.57876
1.87121
2.16366
2.45579
2.74732
3.03793
3.32736
3.61532
3.90154
4.18575
4.46771
4.74717
5.02391
5.2977
5.56833
5.83561
6.09935
6.35938
6.61554
6.86768
7.11565
7.35935
7.59864
7.83342
8.06361
8.2891
8.50981
8.72566
8.93658
9.1425
9.34334
9.53909
9.72972
9.91522
10.0955
10.2707
10.4406
10.6053
10.7648
10.919
11.0678
11.2114
11.3465
11.4845
11.564
-6.70067
-6.70531
-6.71155
-6.71732
-6.72202
-6.72593
-6.72939
-6.73261
-6.73575
-6.73894
-6.74228
-6.74585
-6.74972
-6.75393
-6.75854
-6.76359
-6.76911
-6.77513
-6.7817
-6.78885
-6.79659
-6.80498
-6.81403
-6.82377
-6.83423
-6.84544
-6.85741
-6.87017
-6.88373
-6.8981
-6.91329
-6.92932
-6.94619
-6.96389
-6.98242
-7.00179
-7.02198
-7.04298
-7.06478
-7.08737
-7.11073
-7.13484
-7.15967
-7.1852
-7.21139
-7.23821
-7.26561
-7.29356
-7.322
-7.35088
-7.38014
-7.40973
-7.43957
-7.4696
-7.49972
-7.52985
-7.5599
-7.58977
-7.61935
-7.64853
-7.67717
-7.70516
-7.73237
-7.75864
-7.78383
-7.80778
-7.83035
-7.85136
-7.87064
-7.88802
-7.90332
-7.91637
-7.92697
-7.93494
-7.9401
-7.94225
-7.94121
-7.93679
-7.92881
-7.91706
-7.90138
-7.88158
-7.85748
-7.82891
-7.79569
-7.75767
-7.71467
-7.66655
-7.61314
-7.55431
-7.48992
-7.41981
-7.34388
-7.26198
-7.174
-7.07982
-6.97933
-6.87242
-6.759
-6.639
-6.51236
-6.37903
-6.23897
-6.09215
-5.93857
-5.77823
-5.61114
-5.43735
-5.2569
-5.06985
-4.87628
-4.67628
-4.46997
-4.25746
-4.03891
-3.81446
-3.58428
-3.34855
-3.10748
-2.86126
-2.61013
-2.35431
-2.09406
-1.82963
-1.56128
-1.28929
-1.01395
-0.735538
-0.454351
-0.170693
0.115131
0.40281
0.692034
0.982491
1.27387
1.56585
1.85813
2.1504
2.44237
2.73372
3.02417
3.31343
3.60122
3.88727
4.17133
4.45314
4.73245
5.00904
5.28269
5.5532
5.82035
6.08398
6.3439
6.59997
6.85202
7.09992
7.34354
7.58278
7.81752
8.04766
8.27312
8.49381
8.70964
8.92056
9.12647
9.32734
9.52311
9.71376
9.89926
10.0796
10.2547
10.4246
10.5891
10.7483
10.9021
11.0501
11.1924
11.3256
11.4614
11.535
-6.70532
-6.7099
-6.7161
-6.72191
-6.72673
-6.73081
-6.73446
-6.73787
-6.74121
-6.7446
-6.74813
-6.75188
-6.75592
-6.7603
-6.76508
-6.77029
-6.77597
-6.78215
-6.78887
-6.79617
-6.80406
-6.81259
-6.82178
-6.83165
-6.84224
-6.85356
-6.86564
-6.8785
-6.89214
-6.9066
-6.92186
-6.93795
-6.95486
-6.97261
-6.99118
-7.01058
-7.03079
-7.05182
-7.07365
-7.09627
-7.11966
-7.14381
-7.16868
-7.19426
-7.2205
-7.24739
-7.27487
-7.30291
-7.33146
-7.36046
-7.38986
-7.4196
-7.44959
-7.47978
-7.51007
-7.54038
-7.57061
-7.60066
-7.63041
-7.65976
-7.68858
-7.71674
-7.74409
-7.77051
-7.79583
-7.81991
-7.84258
-7.86368
-7.88303
-7.90047
-7.91581
-7.92887
-7.93947
-7.94742
-7.95254
-7.95464
-7.95353
-7.94903
-7.94094
-7.92908
-7.91328
-7.89335
-7.86911
-7.84039
-7.80702
-7.76884
-7.72569
-7.67741
-7.62385
-7.56487
-7.50033
-7.43009
-7.35402
-7.27199
-7.18388
-7.08956
-6.98892
-6.88185
-6.76827
-6.64811
-6.5213
-6.38781
-6.24758
-6.10061
-5.94687
-5.78638
-5.61916
-5.44524
-5.26466
-5.0775
-4.88383
-4.68374
-4.47735
-4.26479
-4.04618
-3.8217
-3.5915
-3.35576
-3.11469
-2.8685
-2.6174
-2.36163
-2.10144
-1.83708
-1.56882
-1.29693
-1.0217
-0.743407
-0.462356
-0.178844
0.106824
0.39434
0.683395
0.973676
1.26487
1.55667
1.84875
2.14083
2.43259
2.72374
3.01399
3.30305
3.59063
3.87649
4.16034
4.44195
4.72107
4.99748
5.27095
5.54127
5.80826
6.07172
6.33149
6.58741
6.83933
7.08711
7.33062
7.56975
7.8044
8.03446
8.25985
8.48047
8.69626
8.90713
9.11302
9.31387
9.50963
9.70028
9.88577
10.0661
10.2411
10.4108
10.5752
10.7341
10.8873
11.0344
11.1756
11.3068
11.4406
11.5094
-6.71174
-6.71614
-6.72214
-6.72784
-6.73264
-6.73677
-6.74049
-6.74399
-6.74742
-6.7509
-6.75451
-6.75835
-6.76247
-6.76693
-6.77178
-6.77705
-6.7828
-6.78905
-6.79583
-6.80319
-6.81115
-6.81974
-6.82898
-6.83891
-6.84955
-6.86092
-6.87305
-6.88594
-6.89963
-6.91411
-6.92941
-6.94553
-6.96248
-6.98025
-6.99886
-7.01829
-7.03855
-7.05963
-7.08151
-7.10419
-7.12765
-7.15188
-7.17684
-7.20252
-7.22888
-7.25589
-7.28351
-7.31169
-7.3404
-7.36957
-7.39914
-7.42905
-7.45923
-7.48961
-7.52008
-7.55058
-7.58099
-7.61121
-7.64113
-7.67063
-7.69959
-7.72788
-7.75535
-7.78186
-7.80726
-7.83139
-7.8541
-7.87521
-7.89456
-7.91197
-7.92725
-7.94025
-7.95075
-7.95859
-7.96358
-7.96553
-7.96425
-7.95957
-7.95128
-7.93922
-7.9232
-7.90305
-7.87858
-7.84963
-7.81603
-7.77762
-7.73424
-7.68573
-7.63195
-7.57275
-7.508
-7.43756
-7.36129
-7.27908
-7.19075
-7.0962
-6.99532
-6.88801
-6.7742
-6.6538
-6.52676
-6.39304
-6.25259
-6.10541
-5.95147
-5.79078
-5.62338
-5.44929
-5.26855
-5.08125
-4.88745
-4.68725
-4.48077
-4.26813
-4.04946
-3.82493
-3.5947
-3.35896
-3.1179
-2.87173
-2.62068
-2.36497
-2.10486
-1.84059
-1.57244
-1.30067
-1.02558
-0.747436
-0.466549
-0.183214
0.102267
0.389587
0.678435
0.9685
1.25947
1.55103
1.84288
2.13472
2.42623
2.71713
3.00712
3.29592
3.58326
3.86885
4.15246
4.43381
4.71269
4.98885
5.26208
5.53218
5.79895
6.0622
6.32177
6.57749
6.82923
7.07683
7.32019
7.55918
7.79369
8.02363
8.24891
8.46944
8.68514
8.89595
9.10178
9.30259
9.49832
9.68893
9.87438
10.0546
10.2296
10.3992
10.5633
10.7218
10.8744
11.0207
11.1605
11.29
11.4219
11.4866
-6.71963
-6.72377
-6.72946
-6.73492
-6.73958
-6.74362
-6.74728
-6.75075
-6.75415
-6.75759
-6.76118
-6.76498
-6.76907
-6.77349
-6.77831
-6.78355
-6.78926
-6.79547
-6.80223
-6.80956
-6.81749
-6.82605
-6.83528
-6.84519
-6.85581
-6.86717
-6.87929
-6.89218
-6.90586
-6.92034
-6.93564
-6.95177
-6.96873
-6.98653
-7.00517
-7.02464
-7.04495
-7.06609
-7.08805
-7.11082
-7.13438
-7.15871
-7.1838
-7.20961
-7.23611
-7.26328
-7.29106
-7.31941
-7.34829
-7.37763
-7.40738
-7.43747
-7.46782
-7.49835
-7.52899
-7.55962
-7.59017
-7.62051
-7.65053
-7.68012
-7.70914
-7.73747
-7.76496
-7.79146
-7.81684
-7.84092
-7.86356
-7.88457
-7.9038
-7.92106
-7.93618
-7.94899
-7.95929
-7.9669
-7.97164
-7.97333
-7.97179
-7.96682
-7.95824
-7.94589
-7.92957
-7.90911
-7.88433
-7.85508
-7.82119
-7.78249
-7.73882
-7.69004
-7.63599
-7.57654
-7.51154
-7.44087
-7.36437
-7.28188
-7.19327
-7.09843
-6.99726
-6.88967
-6.77558
-6.65491
-6.52761
-6.39363
-6.25294
-6.10553
-5.95138
-5.7905
-5.62291
-5.44866
-5.26778
-5.08034
-4.88643
-4.68615
-4.47959
-4.26689
-4.04819
-3.82364
-3.59342
-3.3577
-3.11669
-2.8706
-2.61963
-2.36403
-2.10404
-1.83991
-1.57192
-1.30033
-1.02542
-0.747487
-0.466822
-0.183722
0.10151
0.388569
0.677146
0.96693
1.25761
1.54888
1.84042
2.13195
2.42315
2.71373
3.0034
3.29187
3.57888
3.86416
4.14744
4.42849
4.70705
4.98291
5.25585
5.52565
5.79214
6.05512
6.31444
6.56992
6.82142
7.06881
7.31196
7.55076
7.7851
8.01488
8.24001
8.46042
8.67601
8.88672
9.09248
9.29322
9.4889
9.67946
9.86485
10.045
10.2198
10.3892
10.5531
10.7112
10.8632
11.0085
11.1472
11.2749
11.405
11.4664
-6.72869
-6.73254
-6.73784
-6.74296
-6.74735
-6.75118
-6.75465
-6.75794
-6.76117
-6.76444
-6.76786
-6.7715
-6.77543
-6.7797
-6.78436
-6.78945
-6.79502
-6.80111
-6.80774
-6.81495
-6.82277
-6.83123
-6.84037
-6.8502
-6.86074
-6.87204
-6.88409
-6.89693
-6.91057
-6.92502
-6.9403
-6.95642
-6.97339
-6.9912
-7.00986
-7.02938
-7.04974
-7.07095
-7.09299
-7.11585
-7.13951
-7.16396
-7.18916
-7.2151
-7.24174
-7.26904
-7.29695
-7.32544
-7.35445
-7.38392
-7.41378
-7.44397
-7.47441
-7.50503
-7.53572
-7.56639
-7.59695
-7.62729
-7.65729
-7.68683
-7.71577
-7.744
-7.77136
-7.79772
-7.82292
-7.84681
-7.86922
-7.88999
-7.90895
-7.92593
-7.94075
-7.95323
-7.9632
-7.97046
-7.97485
-7.97618
-7.97426
-7.96891
-7.95996
-7.94723
-7.93054
-7.90973
-7.88461
-7.85502
-7.8208
-7.78178
-7.73782
-7.68875
-7.63444
-7.57473
-7.5095
-7.43857
-7.36177
-7.27897
-7.19005
-7.09491
-6.99344
-6.88556
-6.77119
-6.65026
-6.52271
-6.3885
-6.24759
-6.09998
-5.94564
-5.7846
-5.61687
-5.44249
-5.26151
-5.07399
-4.88002
-4.6797
-4.47312
-4.26043
-4.04176
-3.81727
-3.58712
-3.3515
-3.11061
-2.86465
-2.61385
-2.35843
-2.09865
-1.83475
-1.567
-1.29566
-1.02103
-0.743394
-0.463036
-0.180259
0.104638
0.391349
0.679566
0.968981
1.25928
1.55017
1.84132
2.13245
2.42325
2.71342
3.00269
3.29077
3.57738
3.86225
4.14514
4.4258
4.70398
4.97946
5.25203
5.52149
5.78763
6.05029
6.30928
6.56446
6.81568
7.06281
7.30571
7.54427
7.7784
8.00799
8.23295
8.4532
8.66866
8.87925
9.08491
9.28558
9.48119
9.67168
9.857
10.0371
10.2118
10.381
10.5445
10.7021
10.8535
10.998
11.1354
11.2615
11.3898
11.4487
-6.73873
-6.74227
-6.74713
-6.75183
-6.75584
-6.75931
-6.76243
-6.76538
-6.76826
-6.77121
-6.77431
-6.77763
-6.78126
-6.78524
-6.78963
-6.79446
-6.79979
-6.80565
-6.81206
-6.81908
-6.82672
-6.83501
-6.84399
-6.85368
-6.86409
-6.87527
-6.88722
-6.89997
-6.91353
-6.92792
-6.94315
-6.95923
-6.97617
-6.99397
-7.01263
-7.03216
-7.05255
-7.07379
-7.09588
-7.11879
-7.14251
-7.16702
-7.19228
-7.21828
-7.24497
-7.27231
-7.30026
-7.32877
-7.35778
-7.38723
-7.41707
-7.4472
-7.47757
-7.50808
-7.53865
-7.56918
-7.59957
-7.62971
-7.65949
-7.68878
-7.71746
-7.74539
-7.77245
-7.79847
-7.82332
-7.84684
-7.86887
-7.88924
-7.90779
-7.92435
-7.93874
-7.95079
-7.96031
-7.96713
-7.97107
-7.97196
-7.9696
-7.96382
-7.95446
-7.94132
-7.92424
-7.90305
-7.87757
-7.84764
-7.81311
-7.7738
-7.72956
-7.68025
-7.62571
-7.56579
-7.5003
-7.42908
-7.35197
-7.26886
-7.17965
-7.08423
-6.98249
-6.87436
-6.75976
-6.63861
-6.51087
-6.37648
-6.23542
-6.08767
-5.93323
-5.77211
-5.60431
-5.42989
-5.2489
-5.06139
-4.86746
-4.66719
-4.4607
-4.24811
-4.02958
-3.80524
-3.57527
-3.33986
-3.0992
-2.85349
-2.60297
-2.34785
-2.08838
-1.82482
-1.55742
-1.28646
-1.01222
-0.734989
-0.455053
-0.17271
0.111739
0.39799
0.685739
0.974675
1.26449
1.55488
1.84554
2.13617
2.42647
2.71615
3.00491
3.29249
3.57861
3.863
4.1454
4.42559
4.70331
4.97834
5.25047
5.5195
5.78524
6.0475
6.30612
6.56094
6.81183
7.05863
7.30124
7.53953
7.77341
8.00277
8.22753
8.4476
8.66291
8.87337
9.07892
9.27949
9.47503
9.66545
9.85068
10.0306
10.2052
10.3742
10.5374
10.6946
10.8453
10.9889
11.1251
11.2497
11.3763
11.4332
-6.75004
-6.75329
-6.7577
-6.76189
-6.76536
-6.76827
-6.77083
-6.7732
-6.77552
-6.77792
-6.7805
-6.78333
-6.78649
-6.79003
-6.79401
-6.79847
-6.80344
-6.80897
-6.81508
-6.82181
-6.82919
-6.83724
-6.84599
-6.85546
-6.86568
-6.87667
-6.88845
-6.90104
-6.91445
-6.92871
-6.94381
-6.95978
-6.97661
-6.99432
-7.01289
-7.03234
-7.05264
-7.0738
-7.0958
-7.11862
-7.14225
-7.16665
-7.1918
-7.21767
-7.24421
-7.27139
-7.29915
-7.32746
-7.35624
-7.38544
-7.41499
-7.44482
-7.47486
-7.50502
-7.53521
-7.56534
-7.59531
-7.62501
-7.65433
-7.68314
-7.71133
-7.73877
-7.76531
-7.79081
-7.81512
-7.83811
-7.85959
-7.87942
-7.89743
-7.91344
-7.9273
-7.93881
-7.94781
-7.95412
-7.95757
-7.95797
-7.95515
-7.94893
-7.93914
-7.9256
-7.90815
-7.88661
-7.86083
-7.83062
-7.79583
-7.75631
-7.71189
-7.66242
-7.60771
-7.54757
-7.48182
-7.41031
-7.33294
-7.24959
-7.16016
-7.06453
-6.96262
-6.85433
-6.73959
-6.61833
-6.4905
-6.35605
-6.21495
-6.0672
-5.91277
-5.75168
-5.58396
-5.40963
-5.22875
-5.04139
-4.84763
-4.64756
-4.4413
-4.22897
-4.01071
-3.78668
-3.55705
-3.32199
-3.08171
-2.83641
-2.58631
-2.33165
-2.07265
-1.80958
-1.54269
-1.27226
-0.998563
-0.721888
-0.442523