/*--------------------------------*- C++ -*----------------------------------*\
  =========                 |
  \\      /  F ield         | OpenFOAM: The Open Source CFD Toolbox
   \\    /   O peration     | Website:  https://openfoam.org
    \\  /    A nd           | Version:  12
     \\/     M anipulation  |
\*---------------------------------------------------------------------------*/
FoamFile
{
    format      ascii;
    class       surfaceScalarField;
    location    "0.21";
    object      phi;
}
// * * * * * * * * * * * * * * * * * * * * * * * * * * * * * * * * * * * * * //

dimensions      [0 3 -1 0 0 0 0];

internalField   nonuniform List<scalar> 
24170
(
3.1336e-06
5.48066e-08
3.04827e-06
8.53273e-08
2.97315e-06
7.51251e-08
2.90431e-06
6.8838e-08
2.83948e-06
6.48317e-08
2.78225e-06
5.72248e-08
2.73335e-06
4.89036e-08
2.69182e-06
4.15289e-08
2.65638e-06
3.54448e-08
2.62585e-06
3.05286e-08
2.59927e-06
2.65808e-08
2.57583e-06
2.34378e-08
2.55485e-06
2.09806e-08
2.53565e-06
1.91961e-08
2.5176e-06
1.80533e-08
2.49891e-06
1.86859e-08
2.47833e-06
2.05801e-08
3.77918e-08
2.44054e-06
3.45361e-06
1.84447e-08
3.45616e-06
8.27742e-08
3.44962e-06
8.16702e-08
3.438e-06
8.04601e-08
3.42351e-06
7.93211e-08
3.40597e-06
7.4767e-08
3.38633e-06
6.85349e-08
3.36543e-06
6.2435e-08
3.34402e-06
5.68547e-08
3.32271e-06
5.18363e-08
3.3019e-06
4.73878e-08
3.28182e-06
4.3519e-08
3.26258e-06
4.0223e-08
3.24417e-06
3.761e-08
3.22663e-06
3.55935e-08
3.2098e-06
3.55114e-08
3.19459e-06
3.57923e-08
4.59995e-08
3.18638e-06
3.66535e-06
1.56081e-08
3.67825e-06
6.98752e-08
3.68531e-06
7.46096e-08
3.68959e-06
7.61788e-08
3.69127e-06
7.76486e-08
3.69013e-06
7.59003e-08
3.68668e-06
7.19884e-08
3.68148e-06
6.76329e-08
3.67497e-06
6.33707e-08
3.66748e-06
5.93208e-08
3.65931e-06
5.55598e-08
3.65066e-06
5.21662e-08
3.64169e-06
4.91951e-08
3.6325e-06
4.67965e-08
3.6231e-06
4.49949e-08
3.61392e-06
4.46959e-08
3.60461e-06
4.50962e-08
4.97266e-08
3.60089e-06
3.92465e-06
1.63475e-08
3.9358e-06
5.87238e-08
3.94254e-06
6.78662e-08
3.94802e-06
7.07034e-08
3.95243e-06
7.32377e-08
3.95535e-06
7.29815e-08
3.9569e-06
7.04373e-08
3.95738e-06
6.71527e-08
3.95698e-06
6.37729e-08
3.95584e-06
6.04575e-08
3.9541e-06
5.73002e-08
3.95186e-06
5.4402e-08
3.94921e-06
5.18461e-08
3.94623e-06
4.97761e-08
3.94296e-06
4.82701e-08
3.93982e-06
4.78317e-08
3.93683e-06
4.80886e-08
4.99941e-08
3.93656e-06
4.20777e-06
1.57073e-08
4.216e-06
5.04921e-08
4.22166e-06
6.22025e-08
4.22659e-06
6.57717e-08
4.23129e-06
6.85394e-08
4.23525e-06
6.90256e-08
4.23834e-06
6.73431e-08
4.24071e-06
6.47846e-08
4.24246e-06
6.20209e-08
4.24368e-06
5.92361e-08
4.24445e-06
5.65315e-08
4.24484e-06
5.40164e-08
4.2449e-06
5.17852e-08
4.24472e-06
4.99601e-08
4.24437e-06
4.86202e-08
4.24419e-06
4.80107e-08
4.24436e-06
4.79108e-08
4.8361e-08
4.246e-06
4.51044e-06
1.43546e-08
4.51686e-06
4.40697e-08
4.52217e-06
5.68914e-08
4.52683e-06
6.11125e-08
4.53145e-06
6.39267e-08
4.53564e-06
6.48354e-08
4.53922e-06
6.37601e-08
4.54226e-06
6.1742e-08
4.54484e-06
5.94377e-08
4.54703e-06
5.70551e-08
4.54886e-06
5.47009e-08
4.55039e-06
5.2485e-08
4.55167e-06
5.05014e-08
4.55279e-06
4.8846e-08
4.55383e-06
4.75755e-08
4.55506e-06
4.67835e-08
4.55668e-06
4.62914e-08
4.58639e-08
4.55917e-06
4.83412e-06
1.29537e-08
4.83958e-06
3.86106e-08
4.84483e-06
5.16397e-08
4.84942e-06
5.65225e-08
4.85393e-06
5.94175e-08
4.85816e-06
6.06074e-08
4.86192e-06
5.99959e-08
4.86526e-06
5.84087e-08
4.86822e-06
5.64695e-08
4.87087e-06
5.44078e-08
4.87324e-06
5.2336e-08
4.87536e-06
5.03592e-08
4.8773e-06
4.85643e-08
4.87912e-06
4.70223e-08
4.88094e-06
4.57633e-08
4.88292e-06
4.47966e-08
4.88525e-06
4.39622e-08
4.29954e-08
4.88812e-06
5.1809e-06
1.16339e-08
5.18571e-06
3.38058e-08
5.19084e-06
4.65056e-08
5.19542e-06
5.19439e-08
5.19988e-06
5.49544e-08
5.20414e-06
5.63481e-08
5.20802e-06
5.61135e-08
5.21154e-06
5.48952e-08
5.21474e-06
5.32675e-08
5.21767e-06
5.14774e-08
5.22036e-06
4.96427e-08
5.22286e-06
4.78622e-08
5.22521e-06
4.62131e-08
5.22749e-06
4.47459e-08
5.22978e-06
4.34692e-08
5.23223e-06
4.23515e-08
5.23493e-06
4.12538e-08
3.99626e-08
5.23797e-06
5.5526e-06
1.03707e-08
5.55685e-06
2.95561e-08
5.56177e-06
4.15883e-08
5.56633e-06
4.73771e-08
5.57079e-06
5.04983e-08
5.5751e-06
5.20411e-08
5.57909e-06
5.21181e-08
5.58276e-06
5.12273e-08
5.58615e-06
4.98789e-08
5.5893e-06
4.83294e-08
5.59224e-06
4.6702e-08
5.59501e-06
4.50887e-08
5.59767e-06
4.35568e-08
5.60027e-06
4.21423e-08
5.6029e-06
4.08406e-08
5.60565e-06
3.96065e-08
5.60857e-06
3.83271e-08
3.68542e-08
5.61168e-06
5.95099e-06
9.16087e-09
5.95476e-06
2.57842e-08
5.95941e-06
3.6933e-08
5.96395e-06
4.28431e-08
5.9684e-06
4.60417e-08
5.97276e-06
4.76878e-08
5.97686e-06
4.80145e-08
5.98068e-06
4.74115e-08
5.98424e-06
4.63166e-08
5.98758e-06
4.49851e-08
5.99074e-06
4.3544e-08
5.99375e-06
4.20786e-08
5.99666e-06
4.06477e-08
5.99952e-06
3.92781e-08
6.0024e-06
3.79601e-08
6.00536e-06
3.66501e-08
6.00843e-06
3.52633e-08
3.37085e-08
6.01157e-06
6.37796e-06
8.01788e-09
6.38133e-06
2.24127e-08
6.38571e-06
3.25485e-08
6.39019e-06
3.83667e-08
6.39464e-06
4.15903e-08
6.39903e-06
4.32982e-08
6.40323e-06
4.38128e-08
6.40719e-06
4.34534e-08
6.41092e-06
4.25856e-08
6.41445e-06
4.1452e-08
6.41782e-06
4.01806e-08
6.42104e-06
3.88506e-08
6.42418e-06
3.75135e-08
6.42726e-06
3.61916e-08
6.43035e-06
3.48761e-08
6.43347e-06
3.35327e-08
6.43663e-06
3.21026e-08
3.05382e-08
6.4398e-06
5.74175e-06
7.10336e-09
5.74433e-06
1.98283e-08
5.74783e-06
2.90494e-08
5.75156e-06
3.4642e-08
5.75531e-06
3.78359e-08
5.75904e-06
3.95674e-08
5.76266e-06
4.01951e-08
5.76611e-06
4.0004e-08
5.76939e-06
3.93062e-08
5.77252e-06
3.83252e-08
5.77551e-06
3.7186e-08
5.7784e-06
3.59636e-08
5.78121e-06
3.47052e-08
5.78397e-06
3.34311e-08
5.78671e-06
3.21363e-08
5.78944e-06
3.07962e-08
5.79217e-06
2.93707e-08
2.78402e-08
5.79487e-06
6.99913e-06
6.12606e-09
7.00187e-06
1.7095e-08
7.00565e-06
2.52632e-08
7.00982e-06
3.04773e-08
7.01409e-06
3.35586e-08
7.01839e-06
3.52716e-08
7.0226e-06
3.5982e-08
7.02666e-06
3.5943e-08
7.03056e-06
3.54123e-08
7.0343e-06
3.4588e-08
7.03789e-06
3.35886e-08
7.04137e-06
3.24843e-08
7.04476e-06
3.13183e-08
7.04808e-06
3.01107e-08
7.05135e-06
2.8862e-08
7.05459e-06
2.7559e-08
7.05778e-06
2.61788e-08
2.47232e-08
7.0609e-06
8.53188e-06
5.09517e-09
8.53473e-06
1.42391e-08
8.53878e-06
2.12168e-08
8.54338e-06
2.58787e-08
8.5482e-06
2.87353e-08
8.55311e-06
3.03668e-08
8.55798e-06
3.11126e-08
8.56273e-06
3.11941e-08
8.56732e-06
3.08168e-08
8.57176e-06
3.01475e-08
8.57606e-06
2.92935e-08
8.58022e-06
2.83193e-08
8.58428e-06
2.72644e-08
8.58824e-06
2.61499e-08
8.59212e-06
2.49822e-08
8.59592e-06
2.3759e-08
8.59962e-06
2.24714e-08
2.11357e-08
8.60321e-06
1.04003e-05
4.02125e-09
1.04033e-05
1.12782e-08
1.04075e-05
1.69287e-08
1.04126e-05
2.08523e-08
1.0418e-05
2.33442e-08
1.04235e-05
2.48073e-08
1.04291e-05
2.55232e-08
1.04346e-05
2.56774e-08
1.044e-05
2.54277e-08
1.04453e-05
2.4905e-08
1.04503e-05
2.42003e-08
1.04553e-05
2.33704e-08
1.04601e-05
2.24511e-08
1.04648e-05
2.14641e-08
1.04694e-05
2.04207e-08
1.04738e-05
1.93268e-08
1.04781e-05
1.81833e-08
1.70142e-08
1.04822e-05
1.26779e-05
2.90987e-09
1.2681e-05
8.20379e-09
1.26855e-05
1.23903e-08
1.2691e-05
1.53865e-08
1.2697e-05
1.73504e-08
1.27032e-05
1.85329e-08
1.27096e-05
1.91369e-08
1.2716e-05
1.9303e-08
1.27223e-05
1.9144e-08
1.27284e-05
1.87536e-08
1.27344e-05
1.82014e-08
1.27403e-05
1.75335e-08
1.2746e-05
1.67801e-08
1.27515e-05
1.59615e-08
1.27568e-05
1.50916e-08
1.27619e-05
1.41804e-08
1.27669e-05
1.3234e-08
1.22784e-08
1.27716e-05
1.54543e-05
1.7499e-09
1.54576e-05
4.96497e-09
1.54624e-05
7.53422e-09
1.54684e-05
9.41102e-09
1.54751e-05
1.06699e-08
1.54822e-05
1.14407e-08
1.54895e-05
1.18388e-08
1.54968e-05
1.19493e-08
1.55041e-05
1.18397e-08
1.55113e-05
1.15661e-08
1.55184e-05
1.11721e-08
1.55252e-05
1.06885e-08
1.55318e-05
1.0137e-08
1.55383e-05
9.53328e-09
1.55445e-05
8.88955e-09
1.55504e-05
8.21626e-09
1.55562e-05
7.52021e-09
6.8255e-09
1.55616e-05
1.88389e-05
4.99879e-10
1.88424e-05
1.43054e-09
1.88478e-05
2.17427e-09
1.88545e-05
2.72039e-09
1.88621e-05
3.09079e-09
1.88702e-05
3.31494e-09
1.88786e-05
3.41538e-09
1.88871e-05
3.41083e-09
1.88957e-05
3.31952e-09
1.89041e-05
3.15778e-09
1.89123e-05
2.93868e-09
1.89203e-05
2.67252e-09
1.89281e-05
2.36787e-09
1.89356e-05
2.03221e-09
1.89428e-05
1.67225e-09
1.89497e-05
1.29478e-09
1.89563e-05
9.04315e-10
5.19896e-10
1.89626e-05
2.29648e-05
-9.47224e-10
2.29689e-05
-2.70105e-09
2.29752e-05
-4.12677e-09
2.29831e-05
-5.18173e-09
2.29921e-05
-5.8826e-09
2.30017e-05
-6.31601e-09
2.30117e-05
-6.57524e-09
2.30218e-05
-6.71896e-09
2.30319e-05
-6.78394e-09
2.30419e-05
-6.80136e-09
2.30516e-05
-6.7964e-09
2.30611e-05
-6.7851e-09
2.30702e-05
-6.7762e-09
2.3079e-05
-6.7742e-09
2.30875e-05
-6.78108e-09
2.30956e-05
-6.7965e-09
2.31033e-05
-6.82027e-09
-6.84023e-09
2.31107e-05
1.68119e-05
-2.09237e-09
1.68151e-05
-5.93504e-09
1.682e-05
-9.0537e-09
1.68261e-05
-1.13043e-08
1.6833e-05
-1.27354e-08
1.68403e-05
-1.35813e-08
1.68477e-05
-1.40459e-08
1.68552e-05
-1.42373e-08
1.68627e-05
-1.42304e-08
1.687e-05
-1.40959e-08
1.68771e-05
-1.38885e-08
1.68839e-05
-1.36426e-08
1.68905e-05
-1.33786e-08
1.68969e-05
-1.31097e-08
1.69029e-05
-1.28441e-08
1.69087e-05
-1.25857e-08
1.69142e-05
-1.23369e-08
-1.20898e-08
1.69195e-05
1.46357e-05
-3.20097e-09
1.46388e-05
-9.09361e-09
1.46437e-05
-1.38766e-08
1.46495e-05
-1.71845e-08
1.4656e-05
-1.91634e-08
1.46627e-05
-2.02881e-08
1.46695e-05
-2.08607e-08
1.46763e-05
-2.10155e-08
1.46829e-05
-2.08723e-08
1.46894e-05
-2.05473e-08
1.46956e-05
-2.01197e-08
1.47016e-05
-1.96349e-08
1.47073e-05
-1.91215e-08
1.47128e-05
-1.85998e-08
1.47181e-05
-1.80824e-08
1.4723e-05
-1.75761e-08
1.47278e-05
-1.70848e-08
-1.66031e-08
1.47323e-05
1.27412e-05
-4.24898e-09
1.27444e-05
-1.23034e-08
1.27493e-05
-1.88329e-08
1.27551e-05
-2.29767e-08
1.27612e-05
-2.52746e-08
1.27675e-05
-2.65717e-08
1.27738e-05
-2.71718e-08
1.278e-05
-2.72021e-08
1.2786e-05
-2.6854e-08
1.27918e-05
-2.62988e-08
1.27973e-05
-2.56316e-08
1.28025e-05
-2.49018e-08
1.28076e-05
-2.41437e-08
1.28123e-05
-2.33821e-08
1.28169e-05
-2.26318e-08
1.28212e-05
-2.19004e-08
1.28253e-05
-2.11918e-08
-2.05022e-08
1.28292e-05
1.10918e-05
-5.12592e-09
1.10951e-05
-1.56244e-08
1.11004e-05
-2.41267e-08
1.11062e-05
-2.87558e-08
1.1112e-05
-3.11124e-08
1.1118e-05
-3.24863e-08
1.11238e-05
-3.30253e-08
1.11295e-05
-3.28487e-08
1.11348e-05
-3.22482e-08
1.114e-05
-3.14401e-08
1.11449e-05
-3.05215e-08
1.11495e-05
-2.95438e-08
1.11539e-05
-2.85465e-08
1.11581e-05
-2.75572e-08
1.11621e-05
-2.65908e-08
1.11658e-05
-2.56542e-08
1.11694e-05
-2.47504e-08
-2.38761e-08
1.11727e-05
9.65583e-06
-5.73962e-09
9.65935e-06
-1.91474e-08
9.66495e-06
-2.97257e-08
9.67063e-06
-3.44361e-08
9.67627e-06
-3.67475e-08
9.6819e-06
-3.8117e-08
9.68732e-06
-3.84536e-08
9.69245e-06
-3.79769e-08
9.6973e-06
-3.70941e-08
9.70189e-06
-3.60277e-08
9.70622e-06
-3.48576e-08
9.71031e-06
-3.36351e-08
9.71417e-06
-3.24051e-08
9.71781e-06
-3.11969e-08
9.72125e-06
-3.00246e-08
9.72449e-06
-2.88943e-08
9.72754e-06
-2.78071e-08
-2.67582e-08
9.73042e-06
8.40543e-06
-5.81924e-09
8.40981e-06
-2.35207e-08
8.41531e-06
-3.52265e-08
8.42049e-06
-3.96229e-08
8.42592e-06
-4.21731e-08
8.43138e-06
-4.35828e-08
8.43653e-06
-4.35976e-08
8.44128e-06
-4.2729e-08
8.4457e-06
-4.15133e-08
8.44982e-06
-4.01503e-08
8.45366e-06
-3.86974e-08
8.45723e-06
-3.72066e-08
8.46055e-06
-3.57258e-08
8.46364e-06
-3.42838e-08
8.46651e-06
-3.28944e-08
8.46918e-06
-3.15635e-08
8.47166e-06
-3.02918e-08
-2.90754e-08
8.47398e-06
7.31506e-06
-3.59164e-09
7.32194e-06
-3.04041e-08
7.32739e-06
-4.06738e-08
7.33215e-06
-4.43871e-08
7.33746e-06
-4.74802e-08
7.34283e-06
-4.89511e-08
7.34778e-06
-4.85524e-08
7.35226e-06
-4.72023e-08
7.35629e-06
-4.55478e-08
7.35991e-06
-4.37674e-08
7.36313e-06
-4.19202e-08
7.36599e-06
-4.00694e-08
7.36853e-06
-3.82645e-08
7.37078e-06
-3.65316e-08
7.37277e-06
-3.48824e-08
7.37452e-06
-3.33213e-08
7.37608e-06
-3.18456e-08
-3.04489e-08
7.37745e-06
6.36222e-06
4.25431e-09
6.37294e-06
-4.11271e-08
6.38007e-06
-4.77976e-08
6.38624e-06
-5.05631e-08
6.39221e-06
-5.34438e-08
6.39749e-06
-5.42319e-08
6.40184e-06
-5.29033e-08
6.40541e-06
-5.077e-08
6.4083e-06
-4.84459e-08
6.41058e-06
-4.60433e-08
6.41229e-06
-4.36299e-08
6.4135e-06
-4.12833e-08
6.41429e-06
-3.90521e-08
6.41472e-06
-3.69558e-08
6.41483e-06
-3.50011e-08
6.4147e-06
-3.31892e-08
6.41437e-06
-3.15117e-08
-2.99482e-08
6.41387e-06
5.53608e-06
1.36394e-08
5.54775e-06
-5.27994e-08
5.55744e-06
-5.74813e-08
5.566e-06
-5.91284e-08
5.57276e-06
-6.02058e-08
5.57718e-06
-5.86466e-08
5.57932e-06
-5.50425e-08
5.57974e-06
-5.11959e-08
5.57888e-06
-4.75812e-08
5.577e-06
-4.417e-08
5.57434e-06
-4.09698e-08
5.57108e-06
-3.80182e-08
5.56736e-06
-3.53288e-08
5.56329e-06
-3.28932e-08
5.55899e-06
-3.06971e-08
5.55454e-06
-2.87374e-08
5.55003e-06
-2.70051e-08
-2.54392e-08
5.54552e-06
4.85751e-06
-1.6261e-08
4.86091e-06
-5.62e-08
4.8615e-06
-5.80724e-08
4.85883e-06
-5.64579e-08
4.85482e-06
-5.61955e-08
4.84812e-06
-5.19468e-08
4.83886e-06
-4.57838e-08
4.8276e-06
-3.99385e-08
4.81499e-06
-3.49647e-08
4.8016e-06
-3.07853e-08
4.7879e-06
-2.72643e-08
4.77418e-06
-2.42985e-08
4.76064e-06
-2.17971e-08
4.74743e-06
-1.96811e-08
4.73462e-06
-1.78874e-08
4.72229e-06
-1.64062e-08
4.71055e-06
-1.52639e-08
-1.49536e-08
4.70006e-06
4.18642e-06
4.13022e-06
4.07214e-06
4.01568e-06
3.95949e-06
3.90754e-06
3.86176e-06
3.82182e-06
3.78686e-06
3.75607e-06
3.72881e-06
3.70451e-06
3.68271e-06
3.66303e-06
3.64514e-06
3.62874e-06
3.61347e-06
3.59852e-06
1.02014e-08
-1.02014e-08
2.10499e-08
-1.08485e-08
2.80839e-08
-7.03399e-09
3.03254e-08
-2.24151e-09
2.78719e-08
2.45354e-09
2.14816e-08
6.39032e-09
1.20283e-08
9.45328e-09
3.04057e-10
1.17242e-08
-1.31071e-08
1.34111e-08
-2.78253e-08
1.47182e-08
-4.3615e-08
1.57897e-08
-6.03385e-08
1.67236e-08
-7.79173e-08
1.75787e-08
-9.63053e-08
1.8388e-08
-1.15474e-07
1.91683e-08
-1.35401e-07
1.99272e-08
-1.56068e-07
2.06674e-08
-1.77458e-07
2.13894e-08
-1.9955e-07
2.20922e-08
-2.22324e-07
2.2774e-08
-2.45756e-07
2.34326e-08
-2.69821e-07
2.40648e-08
-2.94488e-07
2.4667e-08
-3.19723e-07
2.52345e-08
-3.45485e-07
2.57621e-08
-3.71731e-07
2.62458e-08
-3.98419e-07
2.66887e-08
-4.25536e-07
2.71168e-08
-4.53132e-07
2.75962e-08
-4.81359e-07
2.82263e-08
-5.10407e-07
2.9048e-08
-5.40283e-07
2.98762e-08
-5.70591e-07
3.03083e-08
-6.00768e-07
3.01772e-08
-6.31482e-07
3.07134e-08
-6.65138e-07
3.36563e-08
-6.9871e-07
3.35723e-08
-7.31407e-07
3.26963e-08
-7.67194e-07
3.57876e-08
-8.07626e-07
4.04321e-08
-8.50143e-07
4.25166e-08
-8.9372e-07
4.35775e-08
-9.37066e-07
4.3346e-08
-9.75613e-07
3.85469e-08
-1.01409e-06
3.84802e-08
-1.05543e-06
4.13403e-08
-1.09803e-06
4.25912e-08
-1.14145e-06
4.3423e-08
-1.18537e-06
4.39225e-08
-1.22958e-06
4.42084e-08
-1.27393e-06
4.43498e-08
-1.31832e-06
4.43899e-08
-1.36267e-06
4.43556e-08
-1.40694e-06
4.42641e-08
-1.45106e-06
4.41261e-08
-1.49501e-06
4.39484e-08
-1.53875e-06
4.37351e-08
-1.58224e-06
4.34885e-08
-1.62545e-06
4.32096e-08
-1.66834e-06
4.28988e-08
-1.7109e-06
4.25558e-08
-1.75308e-06
4.21799e-08
-1.79485e-06
4.17705e-08
-1.83618e-06
4.13263e-08
-1.87702e-06
4.08466e-08
-1.91735e-06
4.03303e-08
-1.95713e-06
3.97764e-08
-1.99631e-06
3.91842e-08
-2.03487e-06
3.8553e-08
-2.07275e-06
3.78821e-08
-2.10992e-06
3.71713e-08
-2.14634e-06
3.64201e-08
-2.18197e-06
3.56285e-08
-2.21677e-06
3.47965e-08
-2.25069e-06
3.39242e-08
-2.2837e-06
3.30122e-08
-2.31576e-06
3.20606e-08
-2.34683e-06
3.10701e-08
-2.37687e-06
3.00414e-08
-2.40585e-06
2.89752e-08
-2.43372e-06
2.78721e-08
-2.46046e-06
2.67331e-08
-2.48601e-06
2.5559e-08
-2.51036e-06
2.43504e-08
-2.53347e-06
2.3108e-08
-2.5553e-06
2.18322e-08
-2.57583e-06
2.05235e-08
-2.59501e-06
1.91817e-08
-2.61282e-06
1.78064e-08
-2.62921e-06
1.63967e-08
-2.64416e-06
1.49508e-08
-2.65763e-06
1.34659e-08
-2.66957e-06
1.19384e-08
-2.67993e-06
1.03614e-08
-2.68866e-06
8.72644e-09
-2.69568e-06
7.02129e-09
-2.70091e-06
5.22919e-09
-2.70425e-06
3.33929e-09
-2.7056e-06
1.35019e-09
-2.70497e-06
-6.22881e-10
-2.70269e-06
-2.28317e-09
-2.69882e-06
-3.87099e-09
-2.69339e-06
-5.43096e-09
-2.6864e-06
-6.98502e-09
-2.67786e-06
-8.54394e-09
-2.66775e-06
-1.01095e-08
-2.65607e-06
-1.16811e-08
-2.64281e-06
-1.32571e-08
-2.62798e-06
-1.48355e-08
-2.61156e-06
-1.64143e-08
-2.59357e-06
-1.79913e-08
-2.57401e-06
-1.95643e-08
-2.55287e-06
-2.11312e-08
-2.53018e-06
-2.269e-08
-2.50595e-06
-2.42385e-08
-2.48017e-06
-2.57746e-08
-2.45288e-06
-2.72962e-08
-2.42407e-06
-2.88012e-08
-2.39379e-06
-3.02875e-08
-2.36203e-06
-3.17531e-08
-2.32884e-06
-3.3196e-08
-2.29422e-06
-3.46142e-08
-2.25822e-06
-3.60057e-08
-2.22085e-06
-3.73689e-08
-2.18215e-06
-3.87018e-08
-2.14214e-06
-4.00029e-08
-2.10087e-06
-4.12703e-08
-2.05837e-06
-4.25024e-08
-2.01467e-06
-4.36976e-08
-1.96982e-06
-4.48544e-08
-1.92385e-06
-4.59712e-08
-1.8768e-06
-4.70468e-08
-1.82872e-06
-4.808e-08
-1.77965e-06
-4.90696e-08
-1.72964e-06
-5.00147e-08
-1.67872e-06
-5.09143e-08
-1.62696e-06
-5.17674e-08
-1.57438e-06
-5.25733e-08
-1.52105e-06
-5.33316e-08
-1.46701e-06
-5.40417e-08
-1.41231e-06
-5.47036e-08
-1.35699e-06
-5.53169e-08
-1.30111e-06
-5.58817e-08
-1.24471e-06
-5.63979e-08
-1.18784e-06
-5.68661e-08
-1.13056e-06
-5.72869e-08
-1.0729e-06
-5.76607e-08
-1.01491e-06
-5.79882e-08
-9.56636e-07
-5.82707e-08
-8.98127e-07
-5.85092e-08
-8.39422e-07
-5.87051e-08
-7.80562e-07
-5.88597e-08
-7.21588e-07
-5.89748e-08
-6.62535e-07
-5.90522e-08
-6.03442e-07
-5.90938e-08
-5.4434e-07
-5.91013e-08
-4.85263e-07
-5.90769e-08
-4.26241e-07
-5.90223e-08
-3.67302e-07
-5.89389e-08
-3.08475e-07
-5.88274e-08
-2.49786e-07
-5.86884e-08
-1.91269e-07
-5.85174e-08
-1.32953e-07
-5.83161e-08
-7.48696e-08
-5.80832e-08
-1.70625e-08
-5.78072e-08
4.04333e-08
-5.74957e-08
9.75816e-08
-5.71483e-08
1.54385e-07
-5.68033e-08
2.10866e-07
-5.64816e-08
2.67041e-07
-5.61749e-08
3.22905e-07
-5.58636e-08
3.78427e-07
-5.55217e-08
4.33537e-07
-5.51102e-08
4.88099e-07
-5.45619e-08
5.41845e-07
-5.37461e-08
5.94241e-07
-5.23964e-08
6.44072e-07
-4.98308e-08
6.8848e-07
-4.44077e-08
7.19875e-07
-3.13953e-08
8.71085e-09
7.11164e-07
6.43047e-09
-1.66319e-08
7.70582e-09
-1.21238e-08
5.07546e-09
-4.40363e-09
-2.29995e-10
3.06394e-09
-7.67772e-09
9.90126e-09
-1.71808e-08
1.58934e-08
-2.86774e-08
2.09499e-08
-4.2058e-08
2.51048e-08
-5.71383e-08
2.84915e-08
-7.37068e-08
3.12867e-08
-9.15728e-08
3.36557e-08
-1.10581e-07
3.57321e-08
-1.30616e-07
3.76138e-08
-1.51596e-07
3.93678e-08
-1.73465e-07
4.10374e-08
-1.96188e-07
4.26497e-08
-2.19741e-07
4.42212e-08
-2.44114e-07
4.57618e-08
-2.69299e-07
4.72775e-08
-2.95298e-07
4.87726e-08
-3.22115e-07
5.02499e-08
-3.49763e-07
5.17124e-08
-3.78259e-07
5.31633e-08
-4.07631e-07
5.46067e-08
-4.37918e-07
5.60492e-08
-4.69174e-07
5.75016e-08
-5.01469e-07
5.89838e-08
-5.34883e-07
6.0531e-08
-5.69482e-07
6.21953e-08
-6.05285e-07
6.40285e-08
-6.42264e-07
6.60276e-08
-6.8046e-07
6.80716e-08
-7.20108e-07
6.99564e-08
-7.61566e-07
7.16352e-08
-8.04378e-07
7.35254e-08
-8.4669e-07
7.59688e-08
-8.90969e-07
7.78514e-08
-9.37463e-07
7.91902e-08
-9.83079e-07
8.14029e-08
-1.0265e-06
8.38534e-08
-1.06945e-06
8.54628e-08
-1.11198e-06
8.61158e-08
-1.15454e-06
8.58984e-08
-1.20062e-06
8.4632e-08
-1.24635e-06
8.42043e-08
-1.28964e-06
8.46317e-08
-1.33196e-06
8.49109e-08
-1.37357e-06
8.50391e-08
-1.41468e-06
8.50286e-08
-1.45537e-06
8.48946e-08
-1.49567e-06
8.46575e-08
-1.53562e-06
8.43338e-08
-1.5752e-06
8.39366e-08
-1.61441e-06
8.34752e-08
-1.65324e-06
8.29559e-08
-1.69167e-06
8.23826e-08
-1.7297e-06
8.17572e-08
-1.76729e-06
8.10802e-08
-1.80443e-06
8.03512e-08
-1.8411e-06
7.95689e-08
-1.87727e-06
7.87319e-08
-1.91293e-06
7.78381e-08
-1.94805e-06
7.68856e-08
-1.98259e-06
7.58724e-08
-2.01654e-06
7.47966e-08
-2.04987e-06
7.36562e-08
-2.08254e-06
7.24497e-08
-2.11453e-06
7.11757e-08
-2.14581e-06
6.98329e-08
-2.17635e-06
6.84206e-08
-2.20612e-06
6.69379e-08
-2.23508e-06
6.53846e-08
-2.26322e-06
6.37605e-08
-2.29049e-06
6.20656e-08
-2.31686e-06
6.03004e-08
-2.34231e-06
5.84655e-08
-2.36682e-06
5.65616e-08
-2.39034e-06
5.45896e-08
-2.41284e-06
5.25507e-08
-2.43432e-06
5.04461e-08
-2.45472e-06
4.8277e-08
-2.47403e-06
4.60449e-08
-2.49222e-06
4.3751e-08
-2.50927e-06
4.13965e-08
-2.52515e-06
3.89828e-08
-2.53982e-06
3.65108e-08
-2.55328e-06
3.39814e-08
-2.56549e-06
3.13949e-08
-2.57644e-06
2.87518e-08
-2.5861e-06
2.60519e-08
-2.59444e-06
2.32947e-08
-2.60145e-06
2.04795e-08
-2.60712e-06
1.76056e-08
-2.61143e-06
1.46725e-08
-2.61439e-06
1.16807e-08
-2.616e-06
8.63356e-09
-2.61631e-06
5.5401e-09
-2.61539e-06
2.42455e-09
-2.61338e-06
-6.6383e-10
-2.61025e-06
-3.74814e-09
-2.60578e-06
-6.75687e-09
-2.59986e-06
-9.78751e-09
-2.59246e-06
-1.28399e-08
-2.58353e-06
-1.59116e-08
-2.57307e-06
-1.90021e-08
-2.56107e-06
-2.21087e-08
-2.54752e-06
-2.52282e-08
-2.53243e-06
-2.83566e-08
-2.51577e-06
-3.14898e-08
-2.49756e-06
-3.46236e-08
-2.4778e-06
-3.77536e-08
-2.45649e-06
-4.08756e-08
-2.43363e-06
-4.39854e-08
-2.40925e-06
-4.70787e-08
-2.38333e-06
-5.01514e-08
-2.35591e-06
-5.31994e-08
-2.32699e-06
-5.62184e-08
-2.29658e-06
-5.92043e-08
-2.26472e-06
-6.21529e-08
-2.23141e-06
-6.50603e-08
-2.19668e-06
-6.79223e-08
-2.16056e-06
-7.07351e-08
-2.12307e-06
-7.34948e-08
-2.08424e-06
-7.61979e-08
-2.04411e-06
-7.88407e-08
-2.00269e-06
-8.142e-08
-1.96003e-06
-8.39322e-08
-1.91615e-06
-8.63741e-08
-1.87111e-06
-8.87425e-08
-1.82493e-06
-9.10343e-08
-1.77765e-06
-9.32465e-08
-1.72932e-06
-9.53765e-08
-1.67998e-06
-9.7422e-08
-1.62967e-06
-9.93807e-08
-1.57844e-06
-1.01251e-07
-1.52632e-06
-1.0303e-07
-1.47337e-06
-1.04717e-07
-1.41963e-06
-1.06309e-07
-1.36516e-06
-1.07807e-07
-1.30999e-06
-1.09209e-07
-1.25418e-06
-1.10515e-07
-1.19777e-06
-1.11724e-07
-1.14082e-06
-1.12836e-07
-1.08337e-06
-1.13852e-07
-1.02546e-06
-1.14772e-07
-9.67149e-07
-1.15597e-07
-9.08481e-07
-1.16329e-07
-8.495e-07
-1.16969e-07
-7.90252e-07
-1.17519e-07
-7.3078e-07
-1.17982e-07
-6.71125e-07
-1.18359e-07
-6.1133e-07
-1.18655e-07
-5.51433e-07
-1.18872e-07
-4.9147e-07
-1.19014e-07
-4.31479e-07
-1.19085e-07
-3.71492e-07
-1.19088e-07
-3.1154e-07
-1.19028e-07
-2.51654e-07
-1.18909e-07
-1.9186e-07
-1.18732e-07
-1.32187e-07
-1.18501e-07
-7.26575e-08
-1.18218e-07
-1.32971e-08
-1.17878e-07
4.58676e-08
-1.17481e-07
1.0481e-07
-1.17026e-07
1.63515e-07
-1.16512e-07
2.21971e-07
-1.15952e-07
2.80181e-07
-1.15358e-07
3.38141e-07
-1.14764e-07
3.95846e-07
-1.14186e-07
4.53286e-07
-1.13614e-07
5.1044e-07
-1.13018e-07
5.67269e-07
-1.12351e-07
6.23694e-07
-1.11535e-07
6.79569e-07
-1.10437e-07
7.34627e-07
-1.08804e-07
7.88372e-07
-1.06141e-07
8.39835e-07
-1.01294e-07
8.87403e-07
-9.19757e-08
9.27778e-07
-7.177e-08
-2.45929e-08
9.61082e-07
-1.2647e-09
-1.53672e-08
-7.449e-09
-5.93953e-09
-1.58301e-08
3.9775e-09
-2.56092e-08
1.2843e-08
-3.65539e-08
2.08459e-08
-4.86588e-08
2.79983e-08
-6.19977e-08
3.42889e-08
-7.66372e-08
3.97443e-08
-9.25917e-08
4.4446e-08
-1.0982e-07
4.8515e-08
-1.28249e-07
5.20847e-08
-1.47796e-07
5.52794e-08
-1.68386e-07
5.82031e-08
-1.89955e-07
6.09366e-08
-2.12456e-07
6.3539e-08
-2.35859e-07
6.60525e-08
-2.60144e-07
6.85063e-08
-2.85303e-07
7.0921e-08
-3.11337e-07
7.33113e-08
-3.38253e-07
7.56885e-08
-3.66065e-07
7.8062e-08
-3.94793e-07
8.04403e-08
-4.24461e-07
8.28317e-08
-4.551e-07
8.52454e-08
-4.86742e-07
8.76914e-08
-5.19423e-07
9.01819e-08
-5.53171e-07
9.27319e-08
-5.87999e-07
9.53589e-08
-6.23882e-07
9.80785e-08
-6.60743e-07
1.0089e-07
-6.98468e-07
1.03752e-07
-7.3697e-07
1.06573e-07
-7.76252e-07
1.09239e-07
-8.16319e-07
1.11703e-07
-8.56825e-07
1.14031e-07
-8.97097e-07
1.16241e-07
-9.37425e-07
1.18179e-07
-9.78024e-07
1.19789e-07
-1.01792e-06
1.213e-07
-1.05664e-06
1.22575e-07
-1.09456e-06
1.23384e-07
-1.13208e-06
1.23631e-07
-1.16955e-06
1.23373e-07
-1.20776e-06
1.22834e-07
-1.24593e-06
1.22382e-07
-1.28338e-06
1.22075e-07
-1.32024e-06
1.21773e-07
-1.35664e-06
1.21436e-07
-1.39265e-06
1.21041e-07
-1.42833e-06
1.20576e-07
-1.46371e-06
1.20041e-07
-1.49882e-06
1.19437e-07
-1.53365e-06
1.18765e-07
-1.5682e-06
1.18029e-07
-1.60247e-06
1.17227e-07
-1.63645e-06
1.1636e-07
-1.67012e-06
1.15427e-07
-1.70346e-06
1.14425e-07
-1.73646e-06
1.13353e-07
-1.7691e-06
1.12206e-07
-1.80135e-06
1.10982e-07
-1.83319e-06
1.09678e-07
-1.8646e-06
1.08291e-07
-1.89554e-06
1.06816e-07
-1.92599e-06
1.05251e-07
-1.95593e-06
1.03594e-07
-1.98533e-06
1.01842e-07
-2.01414e-06
9.99929e-08
-2.04235e-06
9.80448e-08
-2.06993e-06
9.59964e-08
-2.09684e-06
9.38469e-08
-2.12305e-06
9.15954e-08
-2.14853e-06
8.92418e-08
-2.17325e-06
8.67861e-08
-2.19718e-06
8.42288e-08
-2.22029e-06
8.15707e-08
-2.24254e-06
7.88127e-08
-2.2639e-06
7.59561e-08
-2.28435e-06
7.30025e-08
-2.30386e-06
6.99535e-08
-2.3224e-06
6.68111e-08
-2.33993e-06
6.3577e-08
-2.35643e-06
6.02533e-08
-2.37188e-06
5.68422e-08
-2.38624e-06
5.33454e-08
-2.39949e-06
4.9765e-08
-2.41161e-06
4.61027e-08
-2.42258e-06
4.23602e-08
-2.43237e-06
3.8539e-08
-2.44096e-06
3.46405e-08
-2.44833e-06
3.06663e-08
-2.45447e-06
2.66181e-08
-2.45936e-06
2.24983e-08
-2.463e-06
1.83107e-08
-2.46538e-06
1.40607e-08
-2.4665e-06
9.75657e-09
-2.46637e-06
5.41097e-09
-2.46499e-06
1.04043e-09
-2.46232e-06
-3.33532e-09
-2.45833e-06
-7.72962e-09
-2.45294e-06
-1.21467e-08
-2.44612e-06
-1.66077e-08
-2.43785e-06
-2.1111e-08
-2.42811e-06
-2.5652e-08
-2.41689e-06
-3.02249e-08
-2.40417e-06
-3.48239e-08
-2.38996e-06
-3.94429e-08
-2.37424e-06
-4.40756e-08
-2.35701e-06
-4.87156e-08
-2.33828e-06
-5.33565e-08
-2.31804e-06
-5.79921e-08
-2.2963e-06
-6.26159e-08
-2.27307e-06
-6.72217e-08
-2.24834e-06
-7.18031e-08
-2.22214e-06
-7.63541e-08
-2.19447e-06
-8.08683e-08
-2.16535e-06
-8.53397e-08
-2.13479e-06
-8.97621e-08
-2.10281e-06
-9.41295e-08
-2.06944e-06
-9.84356e-08
-2.03469e-06
-1.02675e-07
-1.99858e-06
-1.06841e-07
-1.96115e-06
-1.10928e-07
-1.92242e-06
-1.14931e-07
-1.88241e-06
-1.18845e-07
-1.84117e-06
-1.22665e-07
-1.79871e-06
-1.26385e-07
-1.75509e-06
-1.3e-07
-1.71032e-06
-1.33507e-07
-1.66446e-06
-1.369e-07
-1.61753e-06
-1.40175e-07
-1.56958e-06
-1.43328e-07
-1.52064e-06
-1.46355e-07
-1.47077e-06
-1.49253e-07
-1.42e-06
-1.5202e-07
-1.36838e-06
-1.54652e-07
-1.31595e-06
-1.57146e-07
-1.26276e-06
-1.59501e-07
-1.20885e-06
-1.61715e-07
-1.15427e-06
-1.63787e-07
-1.09907e-06
-1.65715e-07
-1.0433e-06
-1.675e-07
-9.8699e-07
-1.69142e-07
-9.30202e-07
-1.70639e-07
-8.72979e-07
-1.71995e-07
-8.15366e-07
-1.7321e-07
-7.57408e-07
-1.74287e-07
-6.9915e-07
-1.75227e-07
-6.40636e-07
-1.76033e-07
-5.81908e-07
-1.7671e-07
-5.23007e-07
-1.7726e-07
-4.63973e-07
-1.77689e-07
-4.04843e-07
-1.78002e-07
-3.45655e-07
-1.78203e-07
-2.86442e-07
-1.78298e-07
-2.27236e-07
-1.78294e-07
-1.68069e-07
-1.78196e-07
-1.08969e-07
-1.78009e-07
-4.99605e-08
-1.7774e-07
8.93087e-09
-1.77393e-07
6.76812e-08
-1.76968e-07
1.26269e-07
-1.76466e-07
1.84676e-07
-1.75888e-07
2.42887e-07
-1.75237e-07
3.00899e-07
-1.74523e-07
3.58718e-07
-1.73771e-07
4.16352e-07
-1.72993e-07
4.73789e-07
-1.722e-07
5.31007e-07
-1.71405e-07
5.87988e-07
-1.70595e-07
6.44704e-07
-1.69734e-07
7.01111e-07
-1.68757e-07
7.57129e-07
-1.67553e-07
8.12621e-07
-1.65929e-07
8.6735e-07
-1.63534e-07
9.20914e-07
-1.59705e-07
9.72681e-07
-1.53061e-07
1.02175e-06
-1.41044e-07
1.06761e-06
-1.17635e-07
-7.14209e-08
1.11444e-06
-7.702e-09
-7.6652e-09
-1.89642e-08
5.32265e-09
-3.13109e-08
1.63242e-08
-4.432e-08
2.58521e-08
-5.79256e-08
3.44515e-08
-7.21894e-08
4.22621e-08
-8.72216e-08
4.93211e-08
-1.03134e-07
5.56562e-08
-1.20007e-07
6.13194e-08
-1.37883e-07
6.63909e-08
-1.56766e-07
7.09681e-08
-1.76638e-07
7.51514e-08
-1.97469e-07
7.90336e-08
-2.19225e-07
8.26933e-08
-2.4188e-07
8.61937e-08
-2.65411e-07
8.95835e-08
-2.89804e-07
9.2899e-08
-3.1505e-07
9.61671e-08
-3.41147e-07
9.94081e-08
-3.68095e-07
1.02637e-07
-3.95898e-07
1.05865e-07
-4.2456e-07
1.09102e-07
-4.54083e-07
1.12354e-07
-4.84465e-07
1.15627e-07
-5.15697e-07
1.18924e-07
-5.47759e-07
1.22244e-07
-5.80612e-07
1.25585e-07
-6.14193e-07
1.2894e-07
-6.48407e-07
1.32292e-07
-6.83126e-07
1.35609e-07
-7.18209e-07
1.38836e-07
-7.53535e-07
1.41899e-07
-7.89018e-07
1.44722e-07
-8.24577e-07
1.47261e-07
-8.60064e-07
1.49518e-07
-8.95305e-07
1.51483e-07
-9.30247e-07
1.53122e-07
-9.649e-07
1.54442e-07
-9.99086e-07
1.55486e-07
-1.03275e-06
1.56235e-07
-1.066e-06
1.5664e-07
-1.09905e-06
1.56677e-07
-1.13206e-06
1.56389e-07
-1.16514e-06
1.55907e-07
-1.19814e-06
1.55384e-07
-1.23093e-06
1.54866e-07
-1.26349e-06
1.54335e-07
-1.29583e-06
1.53774e-07
-1.32796e-06
1.5317e-07
-1.35989e-06
1.52511e-07
-1.39164e-06
1.51791e-07
-1.42321e-06
1.51007e-07
-1.4546e-06
1.50154e-07
-1.4858e-06
1.49229e-07
-1.51681e-06
1.4823e-07
-1.5476e-06
1.47152e-07
-1.57816e-06
1.45992e-07
-1.60848e-06
1.44745e-07
-1.63854e-06
1.43406e-07
-1.6683e-06
1.41972e-07
-1.69776e-06
1.40436e-07
-1.72687e-06
1.38795e-07
-1.75563e-06
1.37043e-07
-1.78399e-06
1.35178e-07
-1.81193e-06
1.33194e-07
-1.83942e-06
1.31088e-07
-1.86644e-06
1.28857e-07
-1.89294e-06
1.26499e-07
-1.91891e-06
1.2401e-07
-1.9443e-06
1.2139e-07
-1.96909e-06
1.18636e-07
-1.99324e-06
1.15749e-07
-2.01673e-06
1.12727e-07
-2.03952e-06
1.09571e-07
-2.06157e-06
1.06282e-07
-2.08286e-06
1.0286e-07
-2.10335e-06
9.93071e-08
-2.12302e-06
9.56242e-08
-2.14183e-06
9.18137e-08
-2.15976e-06
8.78778e-08
-2.17676e-06
8.38191e-08
-2.19283e-06
7.964e-08
-2.20792e-06
7.53434e-08
-2.22201e-06
7.09322e-08
-2.23507e-06
6.64092e-08
-2.24708e-06
6.17774e-08
-2.25802e-06
5.70395e-08
-2.26786e-06
5.21985e-08
-2.27658e-06
4.7257e-08
-2.28415e-06
4.22179e-08
-2.29057e-06
3.70844e-08
-2.29581e-06
3.18597e-08
-2.29986e-06
2.65481e-08
-2.30271e-06
2.11546e-08
-2.30433e-06
1.56859e-08
-2.30473e-06
1.01497e-08
-2.30387e-06
4.55562e-09
-2.30174e-06
-1.08704e-09
-2.29831e-06
-6.7721e-09
-2.29353e-06
-1.25049e-08
-2.28738e-06
-1.8294e-08
-2.27985e-06
-2.41455e-08
-2.2709e-06
-3.00549e-08
-2.26054e-06
-3.60158e-08
-2.24874e-06
-4.20201e-08
-2.23551e-06
-4.80596e-08
-2.22082e-06
-5.4126e-08
-2.20469e-06
-6.02106e-08
-2.1871e-06
-6.63051e-08
-2.16805e-06
-7.24011e-08
-2.14756e-06
-7.84901e-08
-2.12561e-06
-8.45638e-08
-2.10222e-06
-9.06138e-08
-2.07739e-06
-9.6632e-08
-2.05113e-06
-1.0261e-07
-2.02346e-06
-1.0854e-07
-1.99439e-06
-1.14414e-07
-1.96392e-06