/*--------------------------------*- C++ -*----------------------------------*\
  =========                 |
  \\      /  F ield         | OpenFOAM: The Open Source CFD Toolbox
   \\    /   O peration     | Website:  https://openfoam.org
    \\  /    A nd           | Version:  12
     \\/     M anipulation  |
\*---------------------------------------------------------------------------*/
FoamFile
{
    format      ascii;
    class       volVectorField;
    location    "0.21";
    object      U;
}
// * * * * * * * * * * * * * * * * * * * * * * * * * * * * * * * * * * * * * //

dimensions      [0 1 -1 0 0 0 0];

internalField   nonuniform List<vector> 
12225
(
(9.86107 -0.874318 0)
(9.67248 -0.700192 0)
(9.45896 -0.387592 0)
(9.22465 -0.188477 0)
(9.00347 -0.084393 0)
(8.81037 -0.0328751 0)
(8.64508 -0.00754974 0)
(8.50407 0.00502598 0)
(8.38388 0.0113381 0)
(8.28099 0.0144745 0)
(8.192 0.0159703 0)
(8.11405 0.0166405 0)
(8.04475 0.0169281 0)
(7.98228 0.0171249 0)
(7.92372 0.0174233 0)
(7.87004 0.0185344 0)
(7.80063 0.0215041 0)
(7.77428 0.0299877 0)
(10.0547 0.263069 0)
(10.1201 0.36074 0)
(10.118 0.273821 0)
(10.0826 0.187088 0)
(10.0405 0.131162 0)
(9.99391 0.0969277 0)
(9.9401 0.0755582 0)
(9.88037 0.0617512 0)
(9.8178 0.0523459 0)
(9.75487 0.0455294 0)
(9.69303 0.0403586 0)
(9.63309 0.0363728 0)
(9.57543 0.0333161 0)
(9.52043 0.0311696 0)
(9.46732 0.0297678 0)
(9.41854 0.0308765 0)
(9.36714 0.0319681 0)
(9.3419 0.0523608 0)
(9.99919 0.0460868 0)
(10.0244 0.0342095 0)
(10.0538 0.0149498 0)
(10.0708 0.0218106 0)
(10.0778 0.0366724 0)
(10.0783 0.0460087 0)
(10.0722 0.0499492 0)
(10.0602 0.0511402 0)
(10.0439 0.0510469 0)
(10.0245 0.0503306 0)
(10.003 0.0493626 0)
(9.97994 0.0483889 0)
(9.95579 0.0475599 0)
(9.93099 0.0471093 0)
(9.90549 0.0471105 0)
(9.88034 0.048898 0)
(9.85477 0.0516463 0)
(9.83484 0.0630235 0)
(9.9968 0.00642781 0)
(10.0085 0.0250181 0)
(10.0342 0.0389374 0)
(10.0528 0.0503015 0)
(10.0644 0.0571063 0)
(10.0731 0.059162 0)
(10.079 0.0588496 0)
(10.0816 0.0579291 0)
(10.0816 0.0569221 0)
(10.0795 0.0559042 0)
(10.0757 0.0549282 0)
(10.0706 0.0540806 0)
(10.0644 0.053452 0)
(10.0572 0.0532361 0)
(10.0492 0.0535668 0)
(10.041 0.0553188 0)
(10.033 0.0581578 0)
(10.0275 0.0645798 0)
(9.99922 0.00673726 0)
(10.0081 0.0335733 0)
(10.0271 0.0460422 0)
(10.0418 0.0508433 0)
(10.0524 0.0539112 0)
(10.0622 0.055499 0)
(10.0708 0.0558449 0)
(10.0774 0.05566 0)
(10.0823 0.0552906 0)
(10.0857 0.0548278 0)
(10.088 0.054346 0)
(10.0894 0.0539499 0)
(10.0899 0.053749 0)
(10.0897 0.0539173 0)
(10.089 0.0546055 0)
(10.0883 0.056303 0)
(10.0881 0.0588226 0)
(10.0897 0.0626502 0)
(10.0002 0.00907378 0)
(10.0078 0.0321239 0)
(10.0225 0.0419098 0)
(10.035 0.0456631 0)
(10.0448 0.0491219 0)
(10.0542 0.0516575 0)
(10.063 0.0527956 0)
(10.0705 0.0531467 0)
(10.0767 0.0531862 0)
(10.0819 0.0530782 0)
(10.0863 0.0529143 0)
(10.09 0.0528024 0)
(10.0931 0.0528531 0)
(10.0958 0.0532093 0)
(10.0981 0.0539939 0)
(10.1005 0.0554474 0)
(10.1035 0.0574113 0)
(10.1079 0.0597335 0)
(10.0003 0.00880016 0)
(10.0068 0.0275171 0)
(10.0189 0.0370811 0)
(10.0303 0.041738 0)
(10.0395 0.0456576 0)
(10.0482 0.0484813 0)
(10.0566 0.0498905 0)
(10.0641 0.050483 0)
(10.0705 0.0507447 0)
(10.0763 0.0508478 0)
(10.0815 0.050879 0)
(10.0861 0.0509381 0)
(10.0903 0.0511263 0)
(10.0942 0.0515529 0)
(10.0979 0.0523003 0)
(10.1017 0.0534601 0)
(10.1061 0.0548715 0)
(10.1114 0.0562161 0)
(10.0004 0.00783715 0)
(10.0057 0.023694 0)
(10.016 0.0333672 0)
(10.0264 0.0385841 0)
(10.0351 0.0424779 0)
(10.0433 0.0452703 0)
(10.0512 0.0468233 0)
(10.0584 0.047602 0)
(10.0649 0.0480316 0)
(10.0708 0.0482854 0)
(10.0762 0.0484506 0)
(10.0812 0.0486188 0)
(10.0859 0.0488781 0)
(10.0903 0.0493073 0)
(10.0947 0.0499505 0)
(10.0992 0.0508156 0)
(10.1041 0.0517425 0)
(10.1096 0.0524233 0)
(10.0004 0.00695117 0)
(10.0049 0.0207071 0)
(10.0136 0.0300333 0)
(10.023 0.0353978 0)
(10.0312 0.0391809 0)
(10.0389 0.0419398 0)
(10.0464 0.0436286 0)
(10.0534 0.0445728 0)
(10.0597 0.0451368 0)
(10.0656 0.045502 0)
(10.0711 0.0457601 0)
(10.0762 0.0459939 0)
(10.0811 0.0462769 0)
(10.0858 0.0466629 0)
(10.0905 0.0471672 0)
(10.0953 0.047756 0)
(10.1003 0.0482834 0)
(10.1058 0.0485098 0)
(10.0004 0.00616444 0)
(10.0042 0.0181218 0)
(10.0116 0.0267962 0)
(10.0199 0.0321354 0)
(10.0277 0.0358426 0)
(10.035 0.0385708 0)
(10.0421 0.0403527 0)
(10.0488 0.0414221 0)
(10.055 0.0420886 0)
(10.0608 0.0425351 0)
(10.0662 0.0428556 0)
(10.0714 0.043123 0)
(10.0764 0.0433969 0)
(10.0812 0.0437125 0)
(10.086 0.0440672 0)
(10.0909 0.0444123 0)
(10.0959 0.0446255 0)
(10.1012 0.0445416 0)
(10.0003 0.00542772 0)
(10.0036 0.0157994 0)
(10.0099 0.0237105 0)
(10.0173 0.0289066 0)
(10.0245 0.0325223 0)
(10.0314 0.035184 0)
(10.0381 0.0369999 0)
(10.0446 0.0381505 0)
(10.0506 0.0388907 0)
(10.0563 0.0393936 0)
(10.0617 0.039752 0)
(10.0668 0.0400295 0)
(10.0718 0.0402737 0)
(10.0767 0.040507 0)
(10.0815 0.0407183 0)
(10.0863 0.0408595 0)
(10.0912 0.0408358 0)
(10.0963 0.0405437 0)
(10.0003 0.00477535 0)
(10.0031 0.0138545 0)
(10.0086 0.0210367 0)
(10.0152 0.0259999 0)
(10.0219 0.0294885 0)
(10.0284 0.0320555 0)
(10.0348 0.0338576 0)
(10.041 0.0350453 0)
(10.0469 0.0358268 0)
(10.0525 0.0363596 0)
(10.0578 0.0367326 0)
(10.0629 0.0370023 0)
(10.0679 0.037207 0)
(10.0727 0.0373623 0)
(10.0775 0.0374551 0)
(10.0822 0.0374448 0)
(10.087 0.0372611 0)
(10.0918 0.0368448 0)
(10.0003 0.00416897 0)
(10.0028 0.0120877 0)
(10.0075 0.0185229 0)
(10.0134 0.0231628 0)
(10.0197 0.0264815 0)
(10.0258 0.0289301 0)
(10.0319 0.0306844 0)
(10.0378 0.0318771 0)
(10.0435 0.0326768 0)
(10.049 0.0332216 0)
(10.0542 0.0335945 0)
(10.0593 0.0338459 0)
(10.0642 0.0340073 0)
(10.0689 0.03409 0)
(10.0736 0.0340829 0)
(10.0783 0.033955 0)
(10.0829 0.0336561 0)
(10.0874 0.0331596 0)
(10.0003 0.00353721 0)
(10.0024 0.0102497 0)
(10.0064 0.015831 0)
(10.0117 0.0200165 0)
(10.0174 0.0230776 0)
(10.0232 0.0253492 0)
(10.0289 0.0270041 0)
(10.0346 0.0281598 0)
(10.0401 0.0289478 0)
(10.0454 0.0294818 0)
(10.0505 0.029836 0)
(10.0554 0.0300545 0)
(10.0602 0.0301632 0)
(10.0649 0.0301714 0)
(10.0695 0.0300718 0)
(10.074 0.0298446 0)
(10.0784 0.0294588 0)
(10.0827 0.0289119 0)
(10.0002 0.00287846 0)
(10.002 0.00833968 0)
(10.0055 0.0129713 0)
(10.0101 0.0165675 0)
(10.0153 0.0192616 0)
(10.0206 0.0212789 0)
(10.026 0.0227681 0)
(10.0314 0.0238297 0)
(10.0366 0.0245621 0)
(10.0417 0.0250531 0)
(10.0467 0.0253642 0)
(10.0515 0.025533 0)
(10.0562 0.0255809 0)
(10.0608 0.0255166 0)
(10.0652 0.025338 0)
(10.0696 0.0250362 0)
(10.0738 0.0245954 0)
(10.0778 0.0240293 0)
(10.0002 0.00219301 0)
(10.0017 0.00635827 0)
(10.0047 0.00994877 0)
(10.0088 0.0128172 0)
(10.0134 0.0150163 0)
(10.0183 0.0166812 0)
(10.0233 0.0179223 0)
(10.0284 0.0188175 0)
(10.0334 0.0194367 0)
(10.0383 0.019842 0)
(10.0431 0.02008 0)
(10.0478 0.0201805 0)
(10.0523 0.0201608 0)
(10.0567 0.02003 0)
(10.061 0.0197903 0)
(10.0651 0.019441 0)
(10.0691 0.0189768 0)
(10.073 0.0184202 0)
(10.0002 0.00147775 0)
(10.0015 0.00428891 0)
(10.0041 0.00674113 0)
(10.0077 0.00874182 0)
(10.0119 0.0103055 0)
(10.0164 0.0115017 0)
(10.0211 0.0123971 0)
(10.0258 0.0130423 0)
(10.0306 0.0134805 0)
(10.0353 0.0137503 0)
(10.0399 0.0138815 0)
(10.0444 0.0138947 0)
(10.0487 0.0138028 0)
(10.053 0.0136135 0)
(10.0571 0.0133315 0)
(10.061 0.0129605 0)
(10.0648 0.0125009 0)
(10.0684 0.0119776 0)
(10.0001 0.000715055 0)
(10.0013 0.00207575 0)
(10.0037 0.00326903 0)
(10.0069 0.00425343 0)
(10.0108 0.0050313 0)
(10.015 0.00562727 0)
(10.0194 0.00606626 0)
(10.0239 0.00636832 0)
(10.0285 0.00655119 0)
(10.033 0.00663071 0)
(10.0374 0.00661941 0)
(10.0417 0.00652622 0)
(10.0459 0.00635727 0)
(10.05 0.00611715 0)
(10.0539 0.00580959 0)
(10.0577 0.00543879 0)
(10.0613 0.0050066 0)
(10.0647 0.00453572 0)
(10.0001 -0.000141736 0)
(10.0013 -0.000413175 0)
(10.0035 -0.000656391 0)
(10.0067 -0.000858931 0)
(10.0104 -0.0010182 0)
(10.0145 -0.00114801 0)
(10.0188 -0.00126756 0)
(10.0232 -0.00139072 0)
(10.0276 -0.00152617 0)
(10.032 -0.00168111 0)
(10.0363 -0.00186209 0)
(10.0405 -0.00207411 0)
(10.0446 -0.00232042 0)
(10.0485 -0.00260278 0)
(10.0522 -0.00292169 0)
(10.0558 -0.00327602 0)
(10.0593 -0.00366568 0)
(10.0626 -0.00407374 0)
(10.0001 -0.000965464 0)
(10.0014 -0.00281274 0)
(10.0037 -0.00444699 0)
(10.0071 -0.00578628 0)
(10.0111 -0.00682426 0)
(10.0153 -0.00762244 0)
(10.0197 -0.00824775 0)
(10.0242 -0.00874544 0)
(10.0287 -0.00915006 0)
(10.0331 -0.00949364 0)
(10.0374 -0.00980269 0)
(10.0415 -0.0100958 0)
(10.0455 -0.0103856 0)
(10.0494 -0.0106806 0)
(10.0531 -0.0109866 0)
(10.0566 -0.0113066 0)
(10.06 -0.0116434 0)
(10.0632 -0.0119859 0)
(10.0002 -0.00167911 0)
(10.0015 -0.00491526 0)
(10.0042 -0.00776852 0)
(10.0079 -0.0100357 0)
(10.0123 -0.0117321 0)
(10.0168 -0.0130145 0)
(10.0215 -0.0140006 0)
(10.0261 -0.0147497 0)
(10.0307 -0.0153162 0)
(10.0352 -0.0157588 0)
(10.0396 -0.0161247 0)
(10.0437 -0.0164441 0)
(10.0478 -0.0167365 0)
(10.0516 -0.0170159 0)
(10.0553 -0.017292 0)
(10.0588 -0.0175706 0)
(10.0621 -0.0178559 0)
(10.0652 -0.0181406 0)
(10.0002 -0.00236077 0)
(10.0017 -0.00700314 0)
(10.0048 -0.0111032 0)
(10.0092 -0.014203 0)
(10.0141 -0.0163964 0)
(10.019 -0.0180211 0)
(10.0239 -0.0192572 0)
(10.0289 -0.0201692 0)
(10.0337 -0.020829 0)
(10.0383 -0.0213194 0)
(10.0427 -0.0217016 0)
(10.0469 -0.022014 0)
(10.051 -0.0222826 0)
(10.0548 -0.0225266 0)
(10.0585 -0.0227594 0)
(10.062 -0.0229885 0)
(10.0653 -0.0232191 0)
(10.0684 -0.0234465 0)
(10.0002 -0.0029961 0)
(10.0018 -0.00911129 0)
(10.0056 -0.0144837 0)
(10.0108 -0.0183281 0)
(10.0163 -0.0209473 0)
(10.0217 -0.0228414 0)
(10.027 -0.0242049 0)
(10.0322 -0.0251437 0)
(10.0372 -0.0257954 0)
(10.0419 -0.0262714 0)
(10.0465 -0.026632 0)
(10.0507 -0.0269121 0)
(10.0548 -0.0271404 0)
(10.0587 -0.0273395 0)
(10.0624 -0.0275244 0)
(10.0658 -0.0277034 0)
(10.0691 -0.0278818 0)
(10.0722 -0.0280564 0)
(10.0001 -0.00357191 0)
(10.0019 -0.0115415 0)
(10.0064 -0.0179358 0)
(10.0127 -0.022063 0)
(10.0189 -0.025046 0)
(10.0248 -0.0273459 0)
(10.0304 -0.0288874 0)
(10.0359 -0.0297999 0)
(10.0411 -0.0303601 0)
(10.046 -0.0307461 0)
(10.0506 -0.031024 0)
(10.055 -0.0312258 0)
(10.0591 -0.031381 0)
(10.063 -0.0315129 0)
(10.0666 -0.0316354 0)
(10.0701 -0.0317553 0)
(10.0733 -0.0318761 0)
(10.0764 -0.0319937 0)
(9.99997 -0.0036915 0)
(10.0018 -0.0151846 0)
(10.0076 -0.0226576 0)
(10.0148 -0.0259887 0)
(10.0214 -0.028552 0)
(10.0277 -0.0310143 0)
(10.034 -0.0327929 0)
(10.04 -0.0338321 0)
(10.0454 -0.0344333 0)
(10.0505 -0.0348051 0)
(10.0552 -0.0350311 0)
(10.0596 -0.03516 0)
(10.0637 -0.035234 0)
(10.0675 -0.0352827 0)
(10.0711 -0.0353224 0)
(10.0744 -0.0353616 0)
(10.0774 -0.0354038 0)
(10.0803 -0.0354465 0)
(9.99898 -0.00131043 0)
(9.99999 -0.0179776 0)
(10.0085 -0.029075 0)
(10.0174 -0.0327007 0)
(10.0244 -0.0341247 0)
(10.0312 -0.0353508 0)
(10.0382 -0.0362975 0)
(10.0448 -0.0369397 0)
(10.0507 -0.03739 0)
(10.0559 -0.0376887 0)
(10.0605 -0.0378504 0)
(10.0647 -0.037911 0)
(10.0684 -0.0379118 0)
(10.0716 -0.0378822 0)
(10.0745 -0.0378406 0)
(10.0771 -0.0377981 0)
(10.0793 -0.0377582 0)
(10.0813 -0.0377202 0)
(9.99528 0.00386806 0)
(9.99333 -0.0103139 0)
(10.007 -0.0271067 0)
(10.0212 -0.0389302 0)
(10.0311 -0.0448686 0)
(10.0391 -0.0464753 0)
(10.0466 -0.0459918 0)
(10.0529 -0.0450349 0)
(10.058 -0.0441596 0)
(10.062 -0.0433872 0)
(10.0651 -0.0426741 0)
(10.0674 -0.0420175 0)
(10.069 -0.0414237 0)
(10.0699 -0.0408926 0)
(10.0703 -0.0404215 0)
(10.0703 -0.0400096 0)
(10.0699 -0.0396474 0)
(10.0692 -0.0393078 0)
(9.99144 -0.017294 0)
(9.99188 0.000364034 0)
(10.01 0.0176631 0)
(10.0295 0.0115848 0)
(10.0441 -0.00511366 0)
(10.0541 -0.0188308 0)
(10.06 -0.0271782 0)
(10.0622 -0.0320564 0)
(10.0616 -0.034939 0)
(10.059 -0.0365456 0)
(10.0548 -0.0373238 0)
(10.0494 -0.0375986 0)
(10.0431 -0.0375829 0)
(10.036 -0.0374063 0)
(10.0284 -0.0371525 0)
(10.0205 -0.0368827 0)
(10.0124 -0.0366522 0)
(10.0042 -0.0364301 0)
(10.0236 -0.206008 0)
(10.0684 -0.31234 0)
(10.0788 -0.255594 0)
(10.0704 -0.184179 0)
(10.0605 -0.134904 0)
(10.0498 -0.10273 0)
(10.0342 -0.0811699 0)
(10.0129 -0.0666243 0)
(9.98775 -0.0566333 0)
(9.96051 -0.0494783 0)
(9.93228 -0.0441218 0)
(9.90377 -0.0399741 0)
(9.87546 -0.0366771 0)
(9.8477 -0.033998 0)
(9.8207 -0.0317888 0)
(9.79462 -0.0299859 0)
(9.76967 -0.0285592 0)
(9.74588 -0.027825 0)
(9.94226 0.671595 0)
(9.87995 0.567454 0)
(9.77443 0.338466 0)
(9.63236 0.183318 0)
(9.48761 0.0949045 0)
(9.35648 0.0470814 0)
(9.2409 0.0212962 0)
(9.13938 0.00707438 0)
(9.05042 -0.00098535 0)
(8.97241 -0.00562688 0)
(8.90363 -0.00831633 0)
(8.84254 -0.00987883 0)
(8.78788 -0.0107846 0)
(8.73868 -0.0113024 0)
(8.69411 -0.0115931 0)
(8.65346 -0.0117814 0)
(8.61589 -0.0119611 0)
(8.58101 -0.0124931 0)
(0.00444552 -0.0107541 -3.50219e-20)
(0.0145835 -0.0152529 3.45692e-20)
(0.0225832 -0.0120139 0)
(0.0269072 -0.00590952 0)
(0.026804 0.000492653 0)
(0.0226792 0.00581218 -3.23692e-20)
(0.0154626 0.0096239 0)
(0.00589667 0.0121125 0)
(-0.00538777 0.0136987 0)
(-0.0179559 0.0147604 0)
(-0.0315803 0.0155436 2.95834e-20)
(-0.046096 0.0161927 0)
(-0.0614122 0.016783 0)
(-0.0774793 0.0173502 0)
(-0.0942679 0.0179079 0)
(-0.111758 0.0184594 2.6432e-20)
(-0.129934 0.0190037 0)
(-0.148781 0.0195378 0)
(-0.168284 0.0200584 0)
(-0.188426 0.0205617 0)
(-0.209188 0.0210433 0)
(-0.23055 0.0214974 0)
(-0.252488 0.0219171 0)
(-0.274974 0.0222939 2.26261e-20)
(-0.297976 0.0226184 -2.22602e-20)
(-0.321457 0.0228836 2.19185e-20)
(-0.345379 0.0230983 2.16011e-20)
(-0.369708 0.0233191 0)
(-0.394449 0.0236988 0)
(-0.419708 0.0244909 -2.07984e-20)
(-0.445683 0.025834 -2.05794e-20)
(-0.472472 0.0272963 0)
(-0.499804 0.0278513 0)
(-0.527312 0.0272073 -2.0031e-20)
(-0.555327 0.0290628 0)
(-0.584141 0.0371816 0)
(-0.614407 0.0342869 1.95854e-20)
(-0.645592 0.0304038 0)
(-0.676458 0.0404647 1.92453e-20)
(-0.71088 0.0549736 3.91589e-20)
(-0.748949 0.0592363 0)
(-0.789521 0.0588746 0)
(-0.828358 0.0532686 0)
(-0.866343 0.0331521 0)
(-0.901846 0.0276721 0)
(-0.938013 0.0319972 4.00707e-20)
(-0.97703 0.0330325 3.96239e-20)
(-1.01671 0.0337673 3.91836e-20)
(-1.0571 0.03412 0)
(-1.09787 0.0342561 -3.83323e-20)
(-1.13888 0.0342493 0)
(-1.18003 0.0341468 3.75257e-20)
(-1.22124 0.0339774 3.7139e-20)
(-1.26245 0.0337592 0)
(-1.30361 0.0335034 0)
(-1.34469 0.0332175 0)
(-1.38565 0.0329059 3.56913e-20)
(-1.42647 0.0325713 0)
(-1.46711 0.0322156 0)
(-1.50754 0.0318393 0)
(-1.54774 0.0314431 0)
(-1.58767 0.0310267 0)
(-1.62731 0.03059 0)
(-1.66662 0.0301328 0)
(-1.70558 0.0296547 0)
(-1.74414 0.0291555 -3.28393e-20)
(-1.78228 0.0286347 0)
(-1.81996 0.0280924 0)
(-1.85714 0.0275283 3.19524e-20)
(-1.89379 0.0269426 3.16587e-20)
(-1.92987 0.0263354 0)
(-1.96534 0.0257068 -3.10704e-20)
(-2.00016 0.0250574 3.07747e-20)
(-2.0343 0.0243875 0)
(-2.06771 0.0236978 -3.01775e-20)
(-2.10037 0.0229887 0)
(-2.13222 0.0222612 0)
(-2.16324 0.0215158 2.92589e-20)
(-2.19339 0.0207535 0)
(-2.22262 0.019975 -2.86252e-20)
(-2.25091 0.0191811 0)
(-2.27822 0.0183727 2.79697e-20)
(-2.30451 0.0175503 2.76325e-20)
(-2.32975 0.0167147 2.72886e-20)
(-2.3539 0.0158662 5.38746e-20)
(-2.37693 0.0150049 -5.31565e-20)
(-2.39882 0.0141308 0)
(-2.41952 0.0132431 0)
(-2.43899 0.0123407 0)
(-2.45722 0.0114216 -5.0114e-20)
(-2.47416 0.010483 -4.93071e-20)
(-2.48976 0.00952092 4.84804e-20)
(-2.50401 0.00853066 0)
(-2.51683 0.00750676 -4.67653e-20)
(-2.52819 0.00644247 -4.58761e-20)
(-2.53801 0.00533154 -4.49653e-20)
(-2.54623 0.00417406 0)
(-2.55276 0.00298856 0)
(-2.55749 0.00182037 0)
(-2.56029 0.000727823 -4.11019e-20)
(-2.56133 -0.000239327 0)
(-2.56098 -0.00108845 0)
(-2.55913 -0.00190779 3.79317e-20)
(-2.55583 -0.00271359 0)
(-2.55106 -0.00351307 0)
(-2.54481 -0.00430748 3.45257e-20)
(-2.53707 -0.00509684 0)
(-2.52784 -0.00588052 0)
(-2.5171 -0.00665775 -3.08799e-20)
(-2.50485 -0.00742766 -2.96114e-20)
(-2.49109 -0.00818938 0)
(-2.4758 -0.00894205 2.69958e-20)
(-2.459 -0.00968482 0)
(-2.44068 -0.0104169 -2.4277e-20)
(-2.42084 -0.0111374 0)
(-2.3995 -0.0118455 -2.1458e-20)
(-2.37666 -0.0125406 -2.00121e-20)
(-2.35232 -0.0132217 0)
(-2.32651 -0.0138883 0)
(-2.29923 -0.0145395 0)
(-2.2705 -0.0151746 0)
(-2.24033 -0.0157932 0)
(-2.20875 -0.0163944 0)
(-2.17577 -0.0169778 0)
(-2.14143 -0.0175428 -7.66022e-21)
(-2.10574 -0.0180889 6.03057e-21)
(-2.06872 -0.0186156 0)
(-2.03042 -0.0191224 0)
(-1.99085 -0.0196089 0)
(-1.95005 -0.0200747 0)
(-1.90804 -0.0205194 -4.66434e-21)
(-1.86488 -0.0209426 0)
(-1.82058 -0.0213443 1.15104e-20)
(-1.77519 -0.0217241 -1.49567e-20)
(-1.72874 -0.0220819 0)
(-1.68128 -0.0224175 0)
(-1.63284 -0.0227308 0)
(-1.58347 -0.0230218 2.88341e-20)
(-1.5332 -0.0232905 3.23126e-20)
(-1.48207 -0.0235369 0)
(-1.43014 -0.0237613 3.9261e-20)
(-1.37745 -0.0239638 4.27253e-20)
(-1.32403 -0.0241446 -4.61791e-20)
(-1.26993 -0.024304 0)
(-1.2152 -0.0244424 0)
(-1.15987 -0.0245602 -5.64499e-20)
(-1.104 -0.0246579 0)
(-1.04762 -0.0247361 0)
(-0.990774 -0.0247953 0)
(-0.933506 -0.0248362 0)
(-0.875854 -0.0248596 7.31044e-20)
(-0.817856 -0.0248661 7.63426e-20)
(-0.75955 -0.0248567 0)
(-0.700971 -0.0248323 8.27073e-20)
(-0.642154 -0.0247937 0)
(-0.58313 -0.0247418 0)
(-0.523929 -0.0246777 9.19428e-20)
(-0.464582 -0.024602 0)
(-0.405114 -0.0245155 9.78692e-20)
(-0.345551 -0.0244182 0)
(-0.28592 -0.0243102 0)
(-0.226248 -0.0241887 1.06378e-19)
(-0.166562 -0.0240467 0)
(-0.106894 -0.0238801 1.1178e-19)
(-0.0472641 -0.0236826 0)
(0.0122818 -0.0234005 0)
(0.071622 -0.0230197 0)
(0.130851 -0.0226359 -1.1844e-19)
(0.189965 -0.0222763 0)
(0.248977 -0.0219344 1.19935e-19)
(0.307892 -0.0215998 0)
(0.366697 -0.0212621 0)
(0.425346 -0.0209066 0)
(0.483733 -0.0205098 0)
(0.54168 -0.0200261 0)
(0.598683 -0.0193631 0)
(0.654322 -0.0182742 0)
(0.70451 -0.0161291 -2.47077e-19)
(0.753306 -0.0113011 0)
(0.755408 0.00631784 0)
(0.00369211 -0.0291408 1.04055e-19)
(0.00737506 -0.026361 -9.9822e-20)
(0.00619865 -0.014375 0)
(0.00260592 -0.00206838 6.02872e-20)
(-0.00301892 0.00918315 0)
(-0.0105419 0.0187283 2.82895e-20)
(-0.0199185 0.026355 -5.51392e-20)
(-0.0310416 0.0322096 -5.38254e-20)
(-0.0437655 0.0366407 0)
(-0.057913 0.040051 -5.13237e-20)
(-0.0733045 0.0427766 -2.50715e-20)
(-0.0897865 0.0450586 0)
(-0.107241 0.0470559 0)
(-0.125585 0.0488664 0)
(-0.144759 0.0505467 0)
(-0.164726 0.0521279 -2.23425e-20)
(-0.185462 0.0536261 0)
(-0.206954 0.0550493 4.27814e-20)
(-0.229196 0.056401 0)
(-0.252186 0.0576823 0)
(-0.275928 0.0588931 -4.03277e-20)
(-0.300432 0.0600325 0)
(-0.325712 0.0610991 3.89209e-20)
(-0.351789 0.0620922 -1.91653e-20)
(-0.378695 0.0630122 1.88717e-20)
(-0.406471 0.0638641 -1.86017e-20)
(-0.435177 0.0646662 -1.83565e-20)
(-0.464884 0.0654634 0)
(-0.495667 0.0663354 0)
(-0.527566 0.0673688 1.77893e-20)
(-0.560554 0.0685653 -1.76002e-20)
(-0.594606 0.0697368 0)
(-0.629937 0.0705662 0)
(-0.666965 0.0709331 1.74168e-20)
(-0.70528 0.0714297 0)
(-0.743824 0.073146 0)
(-0.783854 0.0751147 -1.72199e-20)
(-0.825173 0.0758619 0)
(-0.867244 0.0768829 1.68127e-20)
(-0.908044 0.0784076 -3.36676e-20)
(-0.94787 0.0803506 0)
(-0.986369 0.0819714 0)
(-1.02586 0.0835251 -6.57753e-20)
(-1.06707 0.084508 -6.50415e-20)
(-1.10913 0.085728 -6.42585e-20)
(-1.15019 0.0871256 3.16599e-20)
(-1.18973 0.0877885 -3.14519e-20)
(-1.22854 0.0879287 -9.3137e-20)
(-1.26687 0.0877276 6.13546e-20)
(-1.30486 0.0872813 3.04186e-20)
(-1.34253 0.0866623 0)
(-1.37993 0.0859171 -2.97815e-20)
(-1.41706 0.0850777 2.93286e-20)
(-1.45391 0.0841651 0)
(-1.49048 0.0831931 0)
(-1.52674 0.0821707 0)
(-1.5627 0.0811036 -2.83339e-20)
(-1.59832 0.079995 0)
(-1.63361 0.0788465 5.54522e-20)
(-1.66853 0.077659 0)
(-1.70306 0.0764324 5.44255e-20)
(-1.73719 0.0751663 0)
(-1.77089 0.0738601 -5.343e-20)
(-1.80414 0.0725131 0)
(-1.83691 0.0711247 5.24577e-20)
(-1.86918 0.0696944 -2.59175e-20)
(-1.90092 0.0682217 0)
(-1.9321 0.0667066 -5.10257e-20)
(-1.9627 0.0651491 -2.53441e-20)
(-1.99269 0.0635494 -2.51059e-20)
(-2.02204 0.0619082 0)
(-2.05071 0.0602261 -2.44988e-20)
(-2.07869 0.0585041 -2.43862e-20)
(-2.10594 0.0567435 0)
(-2.13244 0.0549455 2.38978e-20)
(-2.15814 0.0531117 -4.71851e-20)
(-2.18304 0.0512437 0)
(-2.20708 0.0493434 -2.31441e-20)
(-2.23026 0.0474126 0)
(-2.25254 0.0454532 6.77718e-20)
(-2.27389 0.0434671 0)
(-2.29428 0.0414563 -6.61627e-20)
(-2.3137 0.0394226 -2.18056e-20)
(-2.3321 0.0373678 2.14461e-20)
(-2.34947 0.0352935 4.2325e-20)
(-2.36578 0.0332012 -4.17456e-20)
(-2.38101 0.0310919 0)
(-2.39512 0.0289665 0)
(-2.4081 0.0268255 0)
(-2.41992 0.0246689 1.18039e-19)
(-2.43056 0.022496 3.87099e-20)
(-2.43999 0.0203055 -3.80316e-20)
(-2.4482 0.0180954 0)
(-2.45517 0.0158634 -3.6605e-20)
(-2.46089 0.0136065 3.58987e-20)
(-2.46536 0.0113203 3.51539e-20)
(-2.4686 0.0090019 0)
(-2.47067 0.00666185 0)
(-2.47165 0.0043415 0)
(-2.47165 0.00210271 3.19894e-20)
(-2.47057 -3.00706e-05 0)
(-2.46811 -0.0020716 -6.06594e-20)
(-2.46427 -0.00407564 -8.83211e-20)
(-2.45901 -0.0060553 5.7136e-20)
(-2.45231 -0.00801697 0)
(-2.44415 -0.00996102 2.681e-20)
(-2.43452 -0.0118862 0)
(-2.42341 -0.0137904 4.96508e-20)
(-2.41082 -0.0156714 -2.39451e-20)
(-2.39673 -0.0175267 -2.29542e-20)
(-2.38114 -0.0193543 0)
(-2.36405 -0.0211517 -6.22614e-20)
(-2.34546 -0.0229168 3.94888e-20)
(-2.32537 -0.0246476 1.85373e-20)
(-2.30379 -0.0263421 0)
(-2.28071 -0.0279983 1.6339e-20)
(-2.25616 -0.0296144 4.59736e-20)
(-2.23013 -0.0311886 0)
(-2.20264 -0.0327191 2.62087e-20)
(-2.1737 -0.0342044 2.38929e-20)
(-2.14333 -0.0356428 2.15508e-20)
(-2.11154 -0.0370331 0)
(-2.07835 -0.0383738 0)
(-2.04379 -0.0396638 0)
(-2.00788 -0.0409021 -6.18729e-21)
(-1.97063 -0.0420877 -4.52866e-21)
(-1.93208 -0.0432196 0)
(-1.89226 -0.0442971 -4.54042e-21)
(-1.85119 -0.0453194 -2.04097e-21)
(-1.8089 -0.0462858 0)
(-1.76543 -0.0471958 3.47938e-21)
(-1.72081 -0.0480491 1.10484e-20)
(-1.67507 -0.0488455 -8.56402e-21)
(-1.62826 -0.049585 -1.00963e-20)
(-1.5804 -0.0502675 0)
(-1.53154 -0.0508931 0)
(-1.48172 -0.0514621 0)
(-1.43098 -0.0519746 -2.1321e-20)
(-1.37935 -0.0524314 2.27942e-20)
(-1.32689 -0.052833 5.17262e-20)
(-1.27363 -0.0531804 -2.89304e-20)
(-1.21962 -0.0534743 3.03589e-20)
(-1.1649 -0.0537158 3.39532e-20)
(-1.10951 -0.053906 0)
(-1.05349 -0.0540463 0)
(-0.996896 -0.0541383 -4.02771e-20)
(-0.939761 -0.0541833 0)
(-0.88213 -0.0541831 0)
(-0.824043 -0.0541396 9.61496e-20)
(-0.765541 -0.0540547 0)
(-0.706664 -0.0539304 5.22459e-20)
(-0.64745 -0.053769 -5.56495e-20)
(-0.587935 -0.0535726 0)
(-0.528154 -0.0533437 5.91207e-20)
(-0.468141 -0.0530845 0)
(-0.407928 -0.0527976 0)
(-0.347544 -0.0524851 -6.67679e-20)
(-0.287018 -0.0521491 1.36741e-19)
(-0.226375 -0.0517913 -7.0978e-20)
(-0.165641 -0.0514125 0)
(-0.104838 -0.0510117 0)
(-0.0439913 -0.0505873 7.60097e-20)
(0.0168779 -0.0501352 0)
(0.0777444 -0.0496534 7.88489e-20)
(0.138591 -0.0491496 0)
(0.199403 -0.0486214 0)
(0.260163 -0.0480585 0)
(0.320901 -0.0474884 8.3794e-20)
(0.381605 -0.046934 0)
(0.442268 -0.0463932 -8.55365e-20)
(0.50288 -0.0458531 0)
(0.563415 -0.0452941 0)
(0.623817 -0.0446857 1.74734e-19)
(0.683977 -0.0439759 -1.7605e-19)
(0.743705 -0.0430644 0)
(0.802569 -0.0417564 0)
(0.860117 -0.0395512 0)
(0.913808 -0.0354941 5.43323e-19)
(0.96621 -0.0263367 0)
(0.996697 -0.00414819 -3.69623e-19)
(0.000434176 -0.0330362 -4.53966e-23)
(-0.00334483 -0.0191834 1.29231e-19)
(-0.010137 -0.00215693 0)
(-0.0181002 0.013278 -1.1078e-19)
(-0.0272853 0.0270303 0)
(-0.0375375 0.0390146 0)
(-0.0488605 0.0491913 1.15483e-23)
(-0.0613215 0.0576423 4.77727e-20)
(-0.0749638 0.064579 4.6575e-20)
(-0.0897765 0.0702858 4.54794e-20)
(-0.105707 0.0750536 0)
(-0.122683 0.079136 0)
(-0.140635 0.0827316 -4.24332e-20)
(-0.159502 0.0859852 -8.30066e-20)
(-0.179236 0.0889966 8.12276e-20)
(-0.199804 0.0918323 0)
(-0.221186 0.094536 7.79146e-20)
(-0.243373 0.0971366 -3.82046e-20)
(-0.266361 0.0996541 0)
(-0.290157 0.102103 7.35501e-20)
(-0.314772 0.104497 3.61415e-20)
(-0.340222 0.106847 -7.1031e-20)
(-0.366529 0.109166 -3.49581e-20)
(-0.393719 0.111469 0)
(-0.421824 0.113776 6.78119e-20)
(-0.450874 0.116112 6.68829e-20)
(-0.480904 0.118514 0)
(-0.511937 0.121031 6.52346e-20)
(-0.543975 0.123717 0)
(-0.576975 0.126603 6.38569e-20)
(-0.610838 0.129645 3.16464e-20)
(-0.645455 0.132687 0)
(-0.680813 0.135528 0)
(-0.717 0.138135 0)
(-0.753799 0.140701 0)
(-0.790632 0.143238 0)
(-0.827482 0.14524 0)
(-0.864543 0.146776 5.91509e-20)
(-0.901496 0.148518 -8.76982e-20)
(-0.937574 0.149962 0)
(-0.972734 0.150331 0)
(-1.00724 0.149525 0)
(-1.04171 0.147689 2.28958e-23)
(-1.07672 0.145348 5.50212e-20)
(-1.11211 0.143587 1.08589e-19)
(-1.14712 0.14237 -1.07204e-19)
(-1.18152 0.141204 -5.2893e-20)
(-1.21549 0.139994 5.23148e-20)
(-1.24914 0.138695 -7.81089e-23)
(-1.28252 0.137297 5.09856e-20)
(-1.31567 0.135807 0)
(-1.34861 0.134235 4.98008e-20)
(-1.38134 0.132592 -8.58924e-23)
(-1.41388 0.130886 0)
(-1.44621 0.129123 0)
(-1.47833 0.127306 -4.76096e-20)
(-1.51023 0.125438 0)
(-1.54189 0.123519 0)
(-1.5733 0.121548 4.6e-20)
(-1.60444 0.119525 9.1217e-20)
(-1.63528 0.117448 -4.52266e-20)
(-1.66582 0.115316 0)
(-1.69601 0.113127 4.42941e-20)
(-1.72585 0.11088 0)
(-1.75531 0.108573 4.31935e-20)
(-1.78436 0.106206 4.29353e-20)
(-1.81297 0.103778 -8.47921e-20)
(-1.84111 0.101289 -4.18613e-20)
(-1.86877 0.0987391 0)
(-1.89591 0.0961283 8.21504e-20)
(-1.92249 0.0934577 0)
(-1.9485 0.0907285 1.20681e-19)
(-1.97391 0.0879421 7.95174e-20)
(-1.99867 0.0851005 7.8635e-20)
(-2.02277 0.0822056 -7.77481e-20)
(-2.04617 0.0792598 1.1536e-19)
(-2.06884 0.0762656 0)
(-2.09075 0.0732256 0)
(-2.11188 0.0701427 -7.4129e-20)
(-2.13219 0.0670198 -1.09865e-19)
(-2.15166 0.0638597 0)
(-2.17025 0.0606655 3.57108e-20)
(-2.18795 0.0574399 0)
(-2.20471 0.0541857 -1.04083e-19)
(-2.22052 0.0509056 -9.19585e-23)
(-2.23535 0.047602 8.34122e-23)
(-2.24917 0.0442772 6.63055e-20)
(-2.26196 0.040933 0)
(-2.27369 0.0375713 -6.41796e-20)
(-2.28435 0.0341937 -4.6555e-23)
(-2.2939 0.0308016 0)
(-2.30235 0.0273968 0)
(-2.30965 0.0239812 0)
(-2.31581 0.0205582 5.85015e-20)
(-2.32081 0.017133 0)
(-2.32466 0.0137142 0)
(-2.32734 0.0103146 0)
(-2.32886 0.00695215 0)
(-2.32921 0.00364541 0)
(-2.32836 0.000401842 5.08621e-20)
(-2.32623 -0.00280674 0)
(-2.32277 -0.00600539 4.80082e-20)
(-2.31794 -0.00918661 4.65739e-20)
(-2.31174 -0.0123469 -4.5114e-20)
(-2.30414 -0.0154829 0)
(-2.29512 -0.0185909 -4.21176e-20)
(-2.28467 -0.0216672 0)
(-2.27279 -0.0247078 -3.90203e-20)
(-2.25947 -0.0277086 3.74345e-20)
(-2.24469 -0.0306659 1.07828e-19)
(-2.22846 -0.0335759 0)
(-2.21078 -0.036435 9.80002e-20)
(-2.19163 -0.0392396 3.12764e-20)
(-2.17103 -0.0419865 0)
(-2.14897 -0.0446725 5.53225e-20)
(-2.12546 -0.0472945 5.18558e-20)
(-2.10052 -0.0498496 -7.22684e-20)
(-2.07414 -0.0523349 0)
(-2.04634 -0.0547478 -2.03356e-20)
(-2.01713 -0.0570856 -1.85175e-20)
(-1.98653 -0.0593461 -5.06398e-20)
(-1.95455 -0.0615268 0)
(-1.92121 -0.0636258 0)
(-1.88654 -0.0656414 0)
(-1.85054 -0.0675717 -9.86821e-21)
(-1.81325 -0.0694155 0)
(-1.7747 -0.0711713 0)
(-1.7349 -0.072838 3.48769e-21)
(-1.69388 -0.0744145 1.56607e-21)
(-1.65168 -0.0758997 0)
(-1.60833 -0.077293 0)
(-1.56387 -0.078594 -8.45079e-21)
(-1.51831 -0.0798024 0)
(-1.4717 -0.0809183 1.61902e-20)
(-1.42409 -0.0819419 1.92686e-20)
(-1.37549 -0.0828735 0)
(-1.32596 -0.0837134 0)
(-1.27553 -0.0844624 -3.0802e-20)
(-1.22424 -0.0851214 -8.17466e-22)
(-1.17213 -0.0856918 -8.22682e-22)
(-1.11925 -0.0861749 0)
(-1.06564 -0.0865725 -9.28075e-20)
(-1.01133 -0.086886 0)
(-0.956372 -0.0871176 0)
(-0.900807 -0.0872697 0)
(-0.844675 -0.0873447 6.1642e-20)
(-0.788019 -0.0873453 0)
(-0.730878 -0.0872741 -1.36051e-19)
(-0.673294 -0.0871343 -7.24158e-20)
(-0.615305 -0.0869293 0)
(-0.556951 -0.0866624 -7.94021e-20)
(-0.498267 -0.086337 0)
(-0.439289 -0.0859571 0)
(-0.380053 -0.0855264 -2.6701e-19)
(-0.320589 -0.0850486 1.84044e-19)
(-0.260929 -0.0845278 0)
(-0.201102 -0.0839677 1.96903e-19)
(-0.141134 -0.0833714 -1.02382e-19)
(-0.0810501 -0.0827418 0)
(-0.0208736 -0.0820816 0)
(0.039374 -0.0813924 0)
(0.0996723 -0.0806736 -3.37322e-19)
(0.160003 -0.079924 0)
(0.220351 -0.0791444 -1.16793e-19)
(0.280708 -0.0783417 0)
(0.341075 -0.0775288 0)
(0.401475 -0.076716 0)
(0.461904 -0.0759097 0)
(0.522343 -0.0751162 0)
(0.582777 -0.07433 0)
(0.643185 -0.0735344 -2.55425e-19)
(0.703536 -0.0727012 0)
(0.763771 -0.0717838 -1.31063e-19)
(0.823785 -0.0707015 3.95727e-19)
(0.883402 -0.0693059 0)
(0.942259 -0.067314 0)
(1.00001 -0.0641099 -2.70511e-19)
(1.05497 -0.0585197 -2.74034e-19)
(1.10978 -0.0476035 2.7603e-19)
(1.15243 -0.0250774 2.80832e-19)
(-0.00330355 -0.0235053 -2.05286e-19)
(-0.0120443 -0.00218873 -1.89061e-19)
(-0.0223329 0.017542 -1.13249e-19)
(-0.0333752 0.034649 -5.20207e-20)
(-0.0451863 0.049835 0)
(-0.0575877 0.0632829 9.35747e-20)
(-0.0706193 0.0750588 -4.51232e-20)
(-0.0843911 0.0852461 0)
(-0.0989994 0.0939922 -4.26383e-20)
(-0.114502 0.1015 0)
(-0.130918 0.107996 8.12497e-20)
(-0.148242 0.113701 0)
(-0.16645 0.118805 3.88527e-20)
(-0.185515 0.123462 7.60554e-20)
(-0.20541 0.12779 -7.44821e-20)
(-0.226115 0.131875 0)
(-0.247615 0.135781 -7.15563e-20)
(-0.269902 0.139552 0)
(-0.292971 0.143221 0)
(-0.316825 0.146814 -6.76916e-20)
(-0.341466 0.150351 0)
(-0.3669 0.153848 4.59613e-24)
(-0.393132 0.157322 0)
(-0.420164 0.160787 0)
(-0.447993 0.164254 -4.52991e-24)
(-0.47661 0.167735 -6.16184e-20)
(-0.50599 0.17124 -6.07809e-20)
(-0.536092 0.174774 -5.99938e-20)
(-0.566846 0.178327 0)
(-0.598153 0.181865 -1.1702e-19)
(-0.629885 0.185307 0)
(-0.66192 0.188526 -5.71148e-20)
(-0.694169 0.191385 0)
(-0.726572 0.193817 0)
(-0.759029 0.195868 5.50288e-20)
(-0.791365 0.197532 0)
(-0.823479 0.198672 -5.3604e-20)
(-0.855379 0.199328 -1.11676e-23)
(-0.886981 0.199666 1.04331e-19)
(-0.918151 0.19962 -1.02885e-19)
(-0.948915 0.199014 0)
(-0.979426 0.197787 0)
(-1.00988 0.195997 -4.93209e-20)
(-1.04044 0.193843 0)
(-1.07105 0.191715 -4.79923e-20)
(-1.10156 0.189713 4.73415e-20)
(-1.1319 0.187746 4.67096e-20)
(-1.16207 0.185773 0)
(-1.19209 0.183766 -4.55002e-20)
(-1.22197 0.181709 -4.49212e-20)
(-1.25173 0.179595 8.86523e-20)
(-1.28136 0.177423 -4.38107e-20)
(-1.31088 0.175191 -4.32776e-20)
(-1.34027 0.1729 0)
(-1.36954 0.170549 0)
(-1.39866 0.168137 4.17568e-20)