/*--------------------------------*- C++ -*----------------------------------*\
  =========                 |
  \\      /  F ield         | OpenFOAM: The Open Source CFD Toolbox
   \\    /   O peration     | Website:  https://openfoam.org
    \\  /    A nd           | Version:  12
     \\/     M anipulation  |
\*---------------------------------------------------------------------------*/
FoamFile
{
    format      ascii;
    class       surfaceScalarField;
    location    "13.98";
    object      phi;
}
// * * * * * * * * * * * * * * * * * * * * * * * * * * * * * * * * * * * * * //

dimensions      [1 0 -1 0 0 0 0];

internalField   nonuniform List<scalar> 
7429
(
0.000172373
-0.000172372
0.000349273
-0.0001769
0.000528734
-0.00017946
0.000710917
-0.000182182
0.000896048
-0.000185131
0.00108432
-0.000188267
0.00127589
-0.000191575
0.00147091
-0.000195018
0.0016695
-0.000198587
0.00187175
-0.000202248
0.0020777
-0.000205949
0.00228734
-0.000209641
0.00250072
-0.000213384
0.00271772
-0.000216996
0.00293827
-0.000220553
0.00316221
-0.00022394
0.00338934
-0.000227131
0.00361941
-0.000230062
0.00385208
-0.000232668
0.00408695
-0.000234868
0.00432355
-0.0002366
0.00456131
-0.000237761
0.00479959
-0.000238284
0.00503763
-0.000238042
0.00527462
-0.000236985
0.00550957
-0.000234946
0.00574146
-0.000231893
0.00596918
-0.000227718
0.00619152
-0.000222342
0.00640723
-0.000215712
0.00661503
-0.000207794
0.00681354
-0.000198514
0.00700146
-0.000187914
0.00717732
-0.000175865
0.00733977
-0.000162446
0.0074874
-0.000147632
0.00761906
-0.000131657
0.00773381
-0.000114754
0.00783068
-9.68725e-05
0.00790849
-7.78088e-05
0.00796572
-5.72296e-05
0.00800045
-3.47302e-05
0.00801152
-1.10712e-05
0.00799623
1.52938e-05
0.00795362
4.26151e-05
0.00788264
7.09718e-05
0.00778246
0.000100181
0.0076524
0.000130068
0.00749212
0.000160274
0.00730146
0.000190656
0.00708058
0.000220888
0.00682976
0.000250816
0.00654992
0.000279843
0.00624167
0.000308243
0.00590654
0.000335133
0.00554552
0.000361019
0.00516081
0.000384717
0.00475377
0.000407031
0.00432716
0.000426614
0.00388301
0.00044415
0.00342488
0.000458133
0.00295577
0.00046911
0.00247957
0.000476199
0.00200012
0.00047945
0.00152169
0.000478426
0.00104864
0.000473049
0.000585679
0.000462964
0.000137468
0.000448211
-0.000290861
0.000428328
-0.000694518
0.000403658
-0.00106882
0.0003743
-0.00140897
0.000340147
-0.0017105
0.000301532
-0.00196943
0.00025893
-0.0021822
0.000212769
-0.0023453
0.000163107
-0.00245673
0.000111428
-0.00251469
5.79625e-05
-0.00251715
2.45416e-06
-0.00245793
-5.92189e-05
-0.00234253
-0.000115401
-0.0021735
-0.000169027
-0.00195449
-0.00021901
-0.00168888
-0.000265613
-0.00138168
-0.000307199
-0.00103797
-0.000343713
-0.000664903
-0.000373063
-0.000269839
-0.000395064
0.000138641
-0.00040848
0.000551585
-0.000412944
0.000959327
-0.000407742
0.00135187
-0.000392543
0.00171922
-0.000367353
0.00205168
-0.000332453
0.00233972
-0.000288045
0.00257464
-0.000234921
0.00274884
-0.000174194
0.00285621
-0.00010737
0.00289251
-3.63003e-05
0.00284534
4.71727e-05
0.00271808
0.000127255
0.00251445
0.000203631
0.00223887
0.000275577
0.00189738
0.000341489
0.0014975
0.000399888
0.00104953
0.000447966
0.000565521
0.000484009
5.96499e-05
0.000505871
-0.000452031
0.000511681
-0.000953133
0.000501102
-0.00142609
0.000472961
-0.00185412
0.00042803
-0.00222101
0.00036689
-0.00251194
0.000290923
-0.00271475
0.000202809
-0.00282037
0.000105621
-0.00281952
-8.4502e-07
-0.00270375
-0.000115774
-0.0024815
-0.000222247
-0.00216187
-0.000319629
-0.00175601
-0.000405862
-0.00127858
-0.000477429
-0.000748455
-0.000530125
-0.000188467
-0.000559988
0.000375852
-0.000564319
0.000918967
-0.000543114
0.00141392
-0.000494957
0.00183628
-0.000422354
0.00216363
-0.000327352
0.00237836
-0.000214734
0.00246825
-8.98875e-05
0.00241746
5.0795e-05
0.00223056
0.000186895
0.00192118
0.000309382
0.0015047
0.000416484
0.0010036
0.000501097
0.000446115
0.000557484
-0.000134297
0.000580412
-0.0007019
0.000567602
-0.00122067
0.000518769
-0.00165659
0.000435924
-0.00198072
0.000324126
-0.00217119
0.000190468
-0.00221609
4.49033e-05
-0.00209866
-0.000117433
-0.00183799
-0.000260669
-0.00145511
-0.000382882
-0.000978228
-0.000476877
-0.000443277
-0.000534951
0.000106034
-0.000549311
0.000624787
-0.000518753
0.00107027
-0.00044548
0.00140515
-0.000334885
0.0016024
-0.000197244
0.00164771
-4.53144e-05
0.0015274
0.000120312
0.00126612
0.000261278
0.000891911
0.000374209
0.000444168
0.000447742
-3.01497e-05
0.000474318
-0.000477199
0.000447049
-0.000848842
0.000371643
-0.00110332
0.000254474
-0.00121323
0.000109915
-0.00115899
-5.42387e-05
-0.00095128
-0.000207711
-0.000617895
-0.000333386
-0.000198582
-0.000419312
0.000254759
-0.000453341
0.000683078
-0.000428319
0.00103154
-0.000348457
0.00125529
-0.000223752
0.00132574
-7.04524e-05
0.00122596
9.97814e-05
0.000975872
0.000250087
0.000608384
0.000367488
0.000171361
0.000437023
-0.000277785
0.000449145
-0.000680258
0.000402474
-0.00098728
0.000307022
-0.00116611
0.000178834
-0.00120569
3.95805e-05
-0.00111194
-9.3752e-05
-0.000917011
-0.000194932
-0.000662694
-0.000254317
-0.000396461
-0.000266233
-0.000162717
-0.000233744
6.85842e-06
-0.000169576
9.54951e-05
-8.86367e-05
0.000104356
-8.86044e-06
4.85145e-05
5.5841e-05
-4.54383e-05
9.39528e-05
-0.000149183
0.000103745
-0.000236366
8.71823e-05
-0.000289629
5.32629e-05
-0.000299996
1.03671e-05
-0.000266754
-3.3242e-05
-0.000198733
-6.80209e-05
-0.00010599
-9.27431e-05
-0.00010599
0.000207669
-0.00038004
0.00042468
-0.000393911
0.000644712
-0.000399491
0.00086792
-0.000405388
0.00109452
-0.000411729
0.00132482
-0.000418572
0.00155903
-0.000425784
0.00179743
-0.00043341
0.00204016
-0.000441323
0.00228739
-0.000449477
0.00253913
-0.000457684
0.00279547
-0.000465983
0.00305651
-0.000474419
0.00332193
-0.000482416
0.00359109
-0.000489713
0.00386326
-0.000496109
0.0041377
-0.000501568
0.00441369
-0.00050606
0.00469046
-0.000509433
0.00496724
-0.000511648
0.00524317
-0.000512534
0.00551734
-0.000511926
0.00578866
-0.000509602
0.00605598
-0.000505367
0.00631795
-0.000498949
0.00657325
-0.000490243
0.00682021
-0.000478856
0.00705746
-0.000464972
0.00728365
-0.000448527
0.00749803
-0.000430091
0.00769983
-0.00040959
0.00788841
-0.000387093
0.00806295
-0.000362462
0.00822273
-0.000335639
0.0083669
-0.000306614
0.00849461
-0.000275343
0.00860454
-0.000241586
0.0086954
-0.000205617
0.00876588
-0.000167349
0.00881498
-0.000126914
0.00884244
-8.4689e-05
0.00884872
-4.10079e-05
0.00882405
1.35995e-05
0.008766
7.33407e-05
0.00867639
0.000132232
0.00855576
0.000191594
0.00840435
0.000251594
0.00822243
0.000311989
0.00801011
0.000372589
0.00776771
0.000433056
0.00749557
0.000493033
0.00719439
0.000552001
0.00686464
0.000609589
0.00650745
0.000665428
0.0061237
0.000718883
0.00571515
0.000769568
0.00528317
0.000816703
0.00482978
0.000860424
0.00435744
0.000898948
0.00386865
0.000932945
0.00336645
0.000960326
0.00285443
0.000981129
0.00233642
0.000994214
0.00181677
0.000999102
0.00129974
0.000995452
0.000790372
0.000982417
0.000293332
0.000960004
-0.000186043
0.000927587
-0.000642463
0.000884748
-0.00107074
0.000831938
-0.001466
0.00076956
-0.00182293
0.000697072
-0.00213705
0.000615657
-0.00240388
0.000525757
-0.0026196
0.000428488
-0.00278102
0.000324525
-0.00288612
0.000216531
-0.00293227
0.000104108
-0.00291318
-1.66324e-05
-0.00283287
-0.000139526
-0.00269277
-0.0002555
-0.00249504
-0.000366764
-0.00224268
-0.000471364
-0.00193978
-0.000568521
-0.00159137
-0.000655606
-0.00120391
-0.000731168
-0.000784899
-0.000792077
-0.000342764
-0.0008372
0.000113604
-0.000864847
0.000573773
-0.000873114
0.00102708
-0.000861043
0.00146279
-0.000828262
0.00186996
-0.000774525
0.00223796
-0.000700449
0.00255614
-0.000606225
0.00281516
-0.000493942
0.00300681
-0.000365845
0.00312409
-0.00022465
0.00316129
-7.35009e-05
0.00310963
9.88406e-05
0.00297201
0.000264868
0.00275099
0.000424656
0.00245085
0.000575711
0.00207756
0.000714785
0.00163993
0.000837516
0.00114908
0.000938819
0.000619274
0.00101381
6.61817e-05
0.00105896
-0.00049294
0.0010708
-0.00103974
0.0010479
-0.00155526
0.000988476
-0.00202119
0.000893962
-0.0024196
0.000765299
-0.00273429
0.000605613
-0.0029523
0.000420822
-0.00306294
0.000216265
-0.00305489
-8.89703e-06
-0.00292582
-0.000244851
-0.00268233
-0.000465736
-0.00233208
-0.000669876
-0.00188686
-0.000851082
-0.00136383
-0.00100045
-0.000785237
-0.00110872
-0.000174553
-0.00117067
0.000440942
-0.00117981
0.00103112
-0.0011333
0.0015679
-0.00103173
0.00202359
-0.000878042
0.00237369
-0.000677455
0.00260023
-0.000441272
0.00268883
-0.000178483
0.002626
0.000113617
0.00241833
0.000394573
0.00207732
0.000650392
0.00161985
0.000873952
0.00107124
0.0010497
0.000463269
0.00116546
-0.000168273
0.00121195
-0.000783381
0.00118271
-0.00134285
0.00107823
-0.00181002
0.000903102
-0.00215365
0.000667748
-0.00234987
0.000386689
-0.00238436
7.9397e-05
-0.00224797
-0.000253825
-0.00195738
-0.000551257
-0.00153403
-0.000806234
-0.00101001
-0.0010009
-0.000426595
-0.00111837
0.000170822
-0.00114673
0.000731131
-0.00107906
0.0012079
-0.000922248
0.00156171
-0.000688695
0.00176252
-0.000398057
0.00179472
-7.75127e-05
0.00165192
0.000263117
0.00135642
0.000556771
0.000938981
0.00079165
0.000443658
0.000943066
-7.69576e-05
0.000994933
-0.000564976
0.000935068
-0.000967119
0.000773786
-0.00123923
0.000526588
-0.00135134
0.000222023
-0.00128534
-0.000120239
-0.00105477
-0.000438281
-0.00068772
-0.000700437
-0.000229379
-0.000877653
0.000263372
-0.000946092
0.000726244
-0.000891191
0.00110004
-0.000722258
0.00133694
-0.000460652
0.00140705
-0.00014056
0.00129636
0.000210471
0.0010258
0.000520648
0.000631733
0.000761557
0.000167727
0.000901029
-0.000304102
0.000920973
-0.000720536
0.000818908
-0.00103061
0.000617097
-0.00120105
0.000349274
-0.00122142
5.995e-05
-0.00110333
-0.000211844
-0.000881759
-0.000416501
-0.000603632
-0.000532444
-0.000320609
-0.000549256
-7.91347e-05
-0.000475218
8.83274e-05
-0.000337038
0.000165644
-0.000165953
0.000156665
1.18288e-07
8.22347e-05
0.000130272
-2.86846e-05
0.000204872
-0.000144976
0.000220036
-0.000239009
0.000181215
-0.000294001
0.000108256
-0.000302615
1.89807e-05
-0.000267362
-6.84951e-05
-0.000197767
-0.000137615
-0.000104915
-0.000185596
-0.000210905
9.46335e-05
-0.000474673
0.000191667
-0.000490944
0.000289634
-0.000497457
0.000388678
-0.000504431
0.000488862
-0.000511912
0.000590794
-0.000520503
0.000694853
-0.000529842
0.000802751
-0.000541306
0.000915574
-0.000554145
0.00103396
-0.000567861
0.00115722
-0.000580945
0.00128546
-0.000594218
0.00141827
-0.000607232
0.00155628
-0.000620422
0.0017015
-0.000634933
0.00185533
-0.000649943
0.00201888
-0.000665114
0.00219278
-0.00067996
0.00237749
-0.000694142
0.00257324
-0.000707399
0.00278009
-0.00071938
0.00299791
-0.000729742
0.00322614
-0.000737828
0.00346433
-0.000743559
0.00371127
-0.000745894
0.00396609
-0.000745057
0.00422716
-0.000739931
0.00449319
-0.000731
0.00476168
-0.000717009
0.00503004
-0.00069845
0.00529532
-0.000674876
0.00555489
-0.000646662
0.00580615
-0.000613722
0.00604663
-0.000576116
0.0062739
-0.000533881
0.00648731
-0.000488761
0.0066875
-0.000441767
0.00687264
-0.000390761
0.0070396
-0.000334305
0.00718713
-0.000274444
0.00731067
-0.000208233
0.00740504
-0.000135376
0.00747804
-5.93973e-05
0.0075243
2.70726e-05
0.00754031
0.000116226
0.00752322
0.000208686
0.00747084
0.000303972
0.00738163
0.000401196
0.0072545
0.000499718
0.00708865
0.000598912
0.00688401
0.000697669
0.00664046
0.000795554
0.00635833
0.000891711
0.00603839
0.000985375
0.00568162
0.00107565
0.00528926
0.00116193
0.00486337
0.00124259
0.00440672
0.00131707
0.00392241
0.00138326
0.00341414
0.00144122
0.00288575
0.00148871
0.00234195
0.00152493
0.00178745
0.00154871
0.00122771
0.00155885
0.000668101
0.00155506
0.000114624
0.00153589
-0.00042653
0.00150116
-0.000948829
0.00144989
-0.00144615
0.00138207
-0.00191178
0.00129757
-0.00233966
0.00119744
-0.00272386
0.00108127
-0.00305801
0.000949806
-0.00333784
0.000805585
-0.00355821
0.000648863
-0.00371517
0.000481484
-0.00380494
0.000306307
-0.0038265
0.000125665
-0.00376931
-7.38271e-05
-0.00364241
-0.000266426
-0.00344561
-0.000452298
-0.00318185
-0.000630527
-0.00285368
-0.000799526
-0.00246656
-0.000955641
-0.00202582
-0.00109635
-0.00154002
-0.00121697
-0.00101793
-0.00131417
-0.000469804
-0.00138533
9.24472e-05
-0.0014271
0.000657567
-0.00143823
0.00121297
-0.00141645
0.00174569
-0.00136098
0.00224223
-0.00127106
0.00268945
-0.00114767
0.00307534
-0.000992112
0.00338882
-0.000807425
0.0036199
-0.000596924
0.00375969
-0.000364439
0.0038017
-0.000115512
0.00373841
0.000162125
0.00357276
0.000430521
0.00330685
0.000690568
0.0029452
0.000937357
0.00249464
0.00116535
0.00196692
0.00136524
0.00137621
0.00152953
0.000738834
0.00165119
7.34404e-05
0.00172436
-0.000597892
0.00174214
-0.00125317
0.00170318
-0.00187091
0.00160622
-0.00242648
0.00144953
-0.00289981
0.00123863
-0.00327259
0.000978388
-0.00352693
0.000675167
-0.00365163
0.000340966
-0.003633
-2.75331e-05
-0.0034729
-0.000404947
-0.0031761
-0.000762533
-0.00275131
-0.00109467
-0.00221336
-0.00138903
-0.00158286
-0.00163095
-0.000886201
-0.00180538
-0.000152687
-0.00190419
0.000582008
-0.00191451
0.00128446
-0.00183575
0.00192012
-0.00166739
0.00245722
-0.00141515
0.00286768
-0.00108791
0.00312577
-0.000699368
0.00321695
-0.000269653
0.00313035
0.000200215
0.00287285
0.000652072
0.00245639
0.00106685
0.00190195
0.00142839
0.00124137
0.00171028
0.000511708
0.00189512
-0.000242409
0.00196607
-0.00097276
0.00191306
-0.00163244
0.00173791
-0.00217808
0.00144875
-0.00257246
0.00106212
-0.00278879
0.000603014
-0.00281188
0.000102493
-0.00263291
-0.0004328
-0.00227217
-0.000911995
-0.00175472
-0.00132368
-0.00112062
-0.001635
-0.000419682
-0.0018193
0.000290806
-0.00185722
0.00095151
-0.00173977
0.0015079
-0.00147864
0.00191219
-0.00109298
0.00213139
-0.000617265
0.00214736
-9.34823e-05
0.00195621
0.000454266
0.00158453
0.000928454
0.00107021
0.00130597
0.000466896
0.00154638
-0.000160692
0.00162252
-0.00074383
0.00151821
-0.00121955
0.00124951
-0.00153544
0.00084248
-0.00165663
0.000343211
-0.00156632
-0.000210544
-0.00128187
-0.000722732
-0.000836312
-0.001146
-0.000285518
-0.00142845
0.000301822
-0.00153343
0.000848668
-0.00143804
0.00128552
-0.00115911
0.00155652
-0.000731657
0.00162874
-0.000212775
0.00149144
0.000347765
0.00116815
0.000843942
0.000705194
0.00122451
0.000166995
0.00143923
-0.000371497
0.00145947
-0.000837305
0.00128472
-0.00117158
0.000951373
-0.00133852
0.000516212
-0.00132975
5.1177e-05
-0.00116478
-0.000376812
-0.000886818
-0.000694463
-0.000553355
-0.000865906
-0.000225841
-0.000876771
4.21923e-05
-0.000743251
0.000214385
-0.00050923
0.000277767
-0.000229335
0.000241458
3.6427e-05
0.000132686
0.000239043
-1.13094e-05
0.000348868
-0.000153029
0.000361756
-0.000262423
0.00029061
-0.000321788
0.00016762
-0.000327222
2.44148e-05
-0.000285144
-0.000110573
-0.000208125
-0.000214634
-0.000109302
-0.000284418
-0.000320207
0.000141737
-0.000616409
0.000296136
-0.000645342
0.000458465
-0.000659786
0.000631588
-0.000677553
0.000817023
-0.000697345
0.00101774
-0.000721222
0.00123271
-0.000744806
0.00146454
-0.000773142
0.00170796
-0.000797564
0.00196335
-0.000823249
0.0022276
-0.000845187
0.0024998
-0.00086642
0.00277626
-0.000883687
0.0030558
-0.000899962
0.00333724
-0.00091638
0.00362122
-0.000933921
0.00390848
-0.000952375
0.00420011
-0.000971584
0.00449704
-0.000991071
0.00480115
-0.00101151
0.00511273
-0.00103096
0.00543201
-0.00104902
0.00575719
-0.00106301
0.00608778
-0.00107416
0.00641952
-0.00107763
0.0067508
-0.00107634
0.00707378
-0.00106291
0.0073871
-0.00104431
0.0076807
-0.00101061
0.00795823
-0.000975987
0.008218
-0.000934647
0.00846279
-0.000891451
0.00869175
-0.000842676
0.00890485
-0.00078922
0.0091013
-0.000730324
0.00927838
-0.000665842
0.0094325
-0.000595892
0.0095619
-0.000520156
0.00966621
-0.00043862
0.00974328
-0.000351508
0.00979402
-0.000258979
0.0098196
-0.000160957
0.00982011
-5.99016e-05
0.00976544
8.17443e-05
0.00966871
0.000212957
0.00953325
0.000344139
0.00935998
0.000477248
0.00914951
0.000611666
0.00890088
0.000748342
0.00861444
0.000885356
0.00828925
0.00102286
0.00792528
0.00115953
0.0075224
0.00129459
0.00708036
0.00142741
0.00660104
0.00155497
0.00608537
0.00167761
0.00553594
0.00179202
0.00495462
0.00189839
0.00434489
0.00199299
0.00371035
0.00207576
0.00305633
0.00214273
0.00238732
0.00219394
0.00170923
0.0022268
0.00102826
0.00223982
0.000350802
0.00223251
-0.000316128
0.00220282
-0.000965572
0.0021506
-0.0015902
0.00207451
-0.0021822
0.00197407
-0.0027336
0.00184897
-0.00323792
0.00170176
-0.00368713
0.00153048
-0.00407408
0.00133676
-0.00439382
0.00112532
-0.00463976
0.000894805
-0.0048062
0.000647928
-0.00488972
0.000389824
-0.00488701
0.000122953
-0.0047958
-0.000165035
-0.00462048
-0.000441745
-0.00436022
-0.000712563
-0.0040175
-0.000973239
-0.0035965
-0.00122053
-0.00310364
-0.0014485
-0.00254765
-0.00165233
-0.00193704
-0.00182758
-0.00128386
-0.00196735
-0.000600667
-0.00206852
9.96295e-05
-0.00212739
0.000801727
-0.00214033
0.00149004
-0.00210476
0.00214809
-0.00201903
0.00275953
-0.00188251
0.00330996
-0.0016981
0.00378388
-0.00146603
0.00416762
-0.00119117
0.00444862
-0.000877921
0.00461645
-0.000532273
0.00466366
-0.000162716
0.00458365
0.000242127
0.00437876
0.00063541
0.00405045
0.00101888
0.00360427
0.00138354
0.00304995
0.00171966
0.00240084
0.00201435
0.00167449
0.00225588
0.000892258
0.00243342
7.66423e-05
0.00253997
-0.000745506
0.00256428
-0.00154759
0.00250526
-0.00229951
0.00235814
-0.00297628
0.0021263
-0.00355106
0.00181341
-0.0039983
0.00142563
-0.00429987
0.000976741
-0.00444081
0.000481905
-0.0044091
-5.92425e-05
-0.00420623
-0.000607821
-0.00383682
-0.00113195
-0.00331058
-0.00162091
-0.00264681
-0.0020528
-0.00187283
-0.00240493
-0.00101827
-0.00265994
-0.000123998
-0.00279846
0.000771147
-0.00280965
0.00162419
-0.00268879
0.00239373
-0.00243694
0.00303758
-0.002059
0.00352393
-0.00157426
0.00382548
-0.00100092
0.00392419
-0.000368357
0.00380343
0.000320966
0.00347708
0.000978428
0.00295751
0.00158642
0.0022718
0.0021141
0.00145776
0.00252432
0.000565984
0.0027869
-0.000349778
0.00288183
-0.00123265
0.00279594
-0.00202569
0.00253095
-0.0026757
0.00209875
-0.00313826
0.00152469
-0.00338042
0.000845175
-0.00338291
0.000104982
-0.00314913
-0.000666577
-0.00269377
-0.00136736
-0.0020506
-0.00196685
-0.00126942
-0.00241617
-0.000412667
-0.00267606
0.000449631
-0.00271951
0.00124571
-0.00253585
0.00190854
-0.00214147
0.00238091
-0.00156534
0.0026229
-0.000859263
0.00261502
-8.55929e-05
0.00235995
0.000709331
0.00188679
0.00140161
0.00124311
0.00194966
0.000497289
0.00229219
-0.000272476
0.00239229
-0.000981525
0.00222725
-0.00155352
0.0018215
-0.00192563
0.00121459
-0.00205867
0.000476256
-0.00193536
-0.00033386
-0.00157607
-0.00108202
-0.00102491
-0.00169715
-0.00035078
-0.00210258
0.000361967
-0.00224618
0.00101992
-0.00209599
0.00153976
-0.00167895
0.00185595
-0.00104784
0.00192915
-0.000285981
0.00175333
0.000523585
0.00135761
0.00123967
0.00080024
0.00178187
0.00016085
0.00207862
-0.000468306
0.00208862
-0.00100072
0.00181713
-0.0013693
0.00131995
-0.00153458
0.000681489
-0.0014868
3.39902e-06
-0.00126054
-0.000603065
-0.000908047
-0.00104696
-0.000501476
-0.00127248
-0.000115347
-0.0012629
0.000186996
-0.00104559
0.000366397
-0.00068863
0.000411748
-0.000274687
0.000339656
0.000108519
0.000186904
0.000391795
1.13074e-07
0.000535659
-0.000172615
0.000534483
-0.000299439
0.000417435
-0.000362927
0.000231108
-0.000362068
2.35552e-05
-0.000309899
-0.000162742
-0.000222344
-0.000302189
-0.000115323
-0.000391439
-0.000435529
9.3396e-05
-0.000709804
0.000195095
-0.000747041
0.000296455
-0.000761145
0.00039722
-0.000778317
0.000496444
-0.000796568
0.000604134
-0.000828912
0.000696926
-0.000837597
0.000771485
-0.000847701
0.000794659
-0.000820737
0.00078496
-0.000813549
0.000751111
-0.000811337
0.000712797
-0.000828106
0.000680864
-0.000851753
0.000667086
-0.000886183
0.000678357
-0.000927651
0.00072067
-0.000976233
0.000797489
-0.00102919
0.000911446
-0.00108554
0.00106279
-0.00114241
0.00124988
-0.00119861
0.00147052
-0.00125159
0.00172714
-0.00130564
0.00201704
-0.0013529
0.00234116
-0.00139828
0.00269312
-0.00142959
0.00307431
-0.00145753
0.00347011
-0.00145872
0.0038841
-0.0014583
0.0042947
-0.00142121
0.00470432
-0.0013856
0.00510609
-0.00133642
0.00549847
-0.00128383
0.00587978
-0.00122399
0.00624904
-0.00115848
0.00660564
-0.00108692
0.00694774
-0.00100795
0.00727316
-0.000921312
0.00757798
-0.000824973
0.00785937
-0.000720005
0.00811245
-0.000604591
0.00833173
-0.000478259
0.00851109
-0.00034032
0.00864563
-0.00019444
0.00875715
-2.97733e-05
0.00882674
0.000143367
0.00884898
0.000321899
0.00882027
0.000505952
0.00873795
0.000693993
0.00860049
0.000885801
0.00840626
0.00107958
0.00815511
0.00127401
0.00784604
0.0014686
0.00748023
0.0016604
0.00705868
0.00184897
0.00658232
0.00203132
0.00605397
0.00220597
0.00547754
0.00236845
0.00485691
0.00251901
0.00419691
0.00265299
0.00350169
0.00277098
0.00277819
0.00286623
0.00203227
0.00293986
0.00127123
0.00298784
0.000503062
0.00300799
-0.000264073
0.00299965
-0.00102094
0.00295969
-0.00175906
0.00288873
-0.00246884
0.0027843
-0.00314151
0.00264674
-0.00376756
0.00247502
-0.00433775
0.00227195
-0.0048428
0.00203553
-0.00527435
0.0017683
-0.0056257
0.00147667
-0.00588753
0.00115663
-0.00605828
0.00081868
-0.00613234
0.000463887
-0.00610182
9.24345e-05
-0.00596528
-0.000301579
-0.0057271
-0.000679929
-0.00538816
-0.0010515
-0.00495127
-0.00141013
-0.00442229
-0.00174951
-0.00380825
-0.00206254
-0.00311894
-0.00234164
-0.00236687
-0.00257965
-0.00156496
-0.00276926
-0.000728109
-0.00290537
0.000127557
-0.00298306
0.00098279
-0.00299557
0.00181936
-0.00294132
0.00261761
-0.00281728
0.00335909
-0.00262399
0.00402491
-0.00236392
0.00459688
-0.002038
0.00505761
-0.00165189
0.00539288
-0.00121319
0.00559047
-0.000729864
0.00564253
-0.000214775
0.00554213
0.00034253
0.00529021
0.000887329
0.00488833
0.00142076
0.00434393
0.00192793
0.00366906
0.00239454
0.00288123
0.00280217
0.00200165
0.00313546
0.001053
0.00338207
6.84574e-05
0.00352451
-0.000922925
0.00355567
-0.00188748
0.00346981
-0.00279289
0.00326356
-0.00360233
0.00293574
-0.00428865
0.00249973
-0.00482112
0.0019581
-0.00517851
0.00133414
-0.00534128
0.000644671
-0.00529258
-0.000107945
-0.00503926
-0.000861143
-0.00458419
-0.00158701
-0.00394125
-0.00226384
-0.00313325
-0.0028608
-0.00219327
-0.00334492
-0.00116321
-0.00368999
-8.2383e-05
-0.00387929
0.000994137
-0.00388617
0.00201569
-0.00371034
0.00293408
-0.00335533
0.00370096
-0.00282588
0.00427301
-0.00214631
0.00461906
-0.00134697
0.00471547
-0.000464761
0.00455861
0.000477827
0.0041515
0.00138554
0.00351259
0.00222533
0.00267771
0.00294898
0.00169582
0.00350621
0.000622518
0.00386021
-0.000478858
0.00398321
-0.00153493
0.00385201
-0.00247703
0.00347304
-0.00324349
0.00286521
-0.00378079
0.00206199
-0.004052
0.00111638
-0.00403307
8.60509e-05
-0.00372946
-0.000970184
-0.00316308
-0.00193375
-0.00237505
-0.00275487
-0.00142699
-0.00336423
-0.000393969
-0.00370908
0.000638148
-0.00375163
0.00158382
-0.00348152
0.00236398
-0.00292163
0.00291261
-0.00211396
0.0031796
-0.00112626
0.00313848
-4.44765e-05
0.00281025
0.00103757
0.002221
0.00199085
0.00143091
0.00273975
0.000523999
0.00319911
-0.000405497
0.00332178
-0.00125476
0.00307651
-0.00193371
0.00250045
-0.00236702
0.00164789
-0.00250757
0.000616809
-0.00234468
-0.000496748
-0.00189947
-0.00152724
-0.0012278
-0.00236881
-0.00041322
-0.00291717
0.000440379
-0.00309978
0.00122179
-0.00287739
0.00183232
-0.00228948
0.00219529
-0.00141081
0.00226555
-0.000356241
0.00204324
0.000745896
0.00156289
0.00172001
0.000897342
0.00244743
0.000144541
0.00283142
-0.000586075
0.00281924
-0.00119254
0.0024236
-0.00159639
0.0017238
-0.00175477
0.000839867
-0.00166502
-8.63541e-05
-0.00136716
-0.000900925
-0.000930289
-0.00148383
-0.000441917
-0.00176085
7.64829e-06
-0.00171247
0.000346132
-0.00138408
0.00053017
-0.000872668
0.000552765
-0.000297282
0.000438904
0.00022238
0.000236624
0.000594076
3.76974e-06
0.000768513
-0.000201648
0.000739901
-0.00034522
0.000561006
-0.000410301
0.00029619
-0.000400351
1.36045e-05
-0.00033492
-0.000228173
-0.000235426
-0.000401683
-0.000120343
-0.000506523
-0.000555872
-0.000180654
-0.00052915
-0.000342398
-0.000585296
-0.000457775
-0.000645767
-0.000499498
-0.000736594
-0.000448766
-0.000847299
-0.00028253
-0.000995147
-1.8911e-05
-0.00110122
0.000401286
-0.0012679
0.000818854
-0.0012383
0.00125929
-0.00125398
0.00166269
-0.00121474
0.00202366
-0.00118907
0.00233069
-0.00115878
0.00258703
-0.00114252
0.00279944
-0.00114006
0.00297878
-0.00115558
0.00313811
-0.00118852
0.00329332
-0.00124074
0.00345894
-0.00130803
0.0036555
-0.00139517
0.00389945
-0.00149553
0.00420653
-0.00161273
0.0045749
-0.00172127
0.00501471
-0.00183809
0.00549741
-0.00191228
0.0060378
-0.00199792
0.00656524
-0.00198616
0.00714323
-0.00203629
0.00763008
-0.00190806
0.00809905
-0.00185457
0.00850881
-0.00174618
0.00888731
-0.00166233
0.00922899
-0.00156567
0.00953983
-0.00146932
0.00982
-0.00136708
0.0100703
-0.00125824
0.010291
-0.00114198
0.0104837
-0.0010177
0.0106453
-0.000881628
0.0107763
-0.000735553
0.0108785
-0.000580494
0.0109464
-0.00040822
0.0109827
-0.000230731
0.0109713
-1.83822e-05
0.0109023
0.000212389
0.0107873
0.00043689
0.0106268
0.000666396
0.0104181
0.00090275
0.0101595
0.00114438
0.00984751
0.00139158
0.00948016
0.00164136
0.00905719
0.00189158
0.00857642
0.00214116
0.00803956
0.00238583
0.00744714
0.00262374
0.00680094
0.00285216
0.00610413
0.00306527
0.00535968
0.00326346
0.00457346
0.00343922
0.00375089
0.00359355
0.00289824
0.00371888
0.00202269
0.00381541
0.00113284
0.00387768
0.000237473
0.00390336
-0.000654274
0.0038914
-0.00153311
0.00383853
-0.00238815
0.00374377
-0.00320984
0.00360598
-0.00398498
0.00342187
-0.00470343
0.00319347
-0.00535528
0.00292381
-0.0059317
0.00261194
-0.00642182
0.00225843
-0.0068134
0.00186825
-0.00710657
0.00144981
-0.00728387
0.000995973
-0.00734903
0.000529054
-0.00728664
3.00402e-05
-0.00711129
-0.000476928
-0.00681567
-0.00097555
-0.00640096
-0.00146621
-0.00587122
-0.00193988
-0.00523382
-0.0023869
-0.00449805
-0.00279832
-0.00367473
-0.00316496
-0.00277795
-0.00347644
-0.00182424
-0.00372297
-0.000830606
-0.003899
0.000182826
-0.00399649
0.00119391
-0.00400665
0.00218134
-0.00392876
0.00312296
-0.0037589
0.00399586
-0.00349689
0.0047781
-0.00314615
0.00544801
-0.00270792
0.00598571
-0.00218959
0.00637446
-0.00160194
0.00660075
-0.000956147
0.0066565
-0.000270523
0.00653276
0.000466261
0.00622989
0.0011902
0.00575133
0.00189933
0.00510503
0.00257423
0.00430551
0.00319406
0.0033712
0.00373649
0.00232909
0.00417757
0.00121331
0.00449785
5.26572e-05
0.00468517
-0.00111595
0.00472428
-0.00225104
0.0046049
-0.00331196
0.00432447
-0.00426357
0.00388734
-0.00506282
0.00329898
-0.00567974
0.00257502
-0.00608734
0.00174173
-0.00626347
0.000820801
-0.00619754
-0.000173879
-0.0058901
-0.00116858
-0.00534469
-0.00213243
-0.0045788
-0.00302973
-0.00362259
-0.00381701
-0.0025145
-0.004453
-0.00129547
-0.00490903
-2.80839e-05
-0.00514667
0.00123357
-0.00514783
0.00243056
-0.00490733
0.00349794
-0.0044227
0.00438587
-0.00371381
0.00504519
-0.00280563
0.0054345
-0.00173628
0.00553522
-0.000565478
0.00533312
0.000679919
0.004839
0.00187966
0.00407547
0.00298887
0.00308611
0.00393834
0.00192299
0.00466933
0.000656345
0.00512685
-0.000630401
0.00526995
-0.00186204
0.00508365
-0.00295481
0.00456582
-0.00383733
0.00374773
-0.0044474
0.00267206
-0.00474142
0.00141041
-0.00469289
3.75192e-05
-0.00432034
-0.00134273
-0.00363723
-0.00261686
-0.0026989
-0.0036932
-0.0015776
-0.00448553
-0.000364361
-0.00492232
0.000842766
-0.00495876
0.00194185
-0.00458061
0.00283939
-0.00381918
0.00345954
-0.00273411
0.00375038
-0.0014171
0.00367781
2.80941e-05
0.00326866
0.00144671
0.00255502
0.0027045
0.00161244
0.00368233
0.000539981
0.00427157
-0.00055307
0.00441483
-0.00154446
0.0040679
-0.00232836
0.00328435
-0.00282121
0.00214075
-0.00296935
0.000764941
-0.00276071
-0.000705384
-0.00222256
-0.00206539
-0.00142453
-0.00316685
-0.00046708
-0.00387461
0.000529984
-0.00409684
0.00143567
-0.00378307
0.00213579
-0.00298961
0.00254183
-0.00181684
0.00260846
-0.000422875
0.00233364
0.00102071
0.00176362
0.00229003
0.000985943
0.00322511
0.000115903
0.00370146
-0.000715923
0.00365106
-0.00139451
0.00310218
-0.00183203
0.00216132
-0.00198019
0.000988031
-0.00184278
-0.000223766
-0.0014689
-0.00127481
-0.000944347
-0.00200838
-0.000374022
-0.00233117
0.000138294
-0.00222478
0.000510014
-0.0017558
0.000695009
-0.00105766
0.000690239
-0.000292512
0.000530908
0.000381711
0.000277294
0.00084769
-7.63319e-07
0.00104657
-0.000237567
0.000976705
-0.000395128
0.000718566
-0.00045828
0.000359342
-0.000436539
-8.13647e-06
-0.000356048
-0.000308664
-0.000244298
-0.000513433
-0.000122596
-0.000628225
-0.000678468
-1.71793e-05
-0.00051197
1.71297e-05
-0.000619604
0.000154078
-0.000782715
0.000463365
-0.00104588
0.00102575
-0.00140968
0.0018861
-0.0018555
0.00286478
-0.00207989
0.00368073
-0.00208384
0.0034228
-0.000980375
0.0027089
-0.000540086
0.00181307
-0.000318903
0.000935628
-0.000311633
0.000133284
-0.00035644
-0.000553548
-0.000455688
-0.00109922
-0.00059439
-0.00148707
-0.000767729
-0.00171212
-0.000963468
-0.00178349
-0.00116937
-0.00171548
-0.00137605
-0.00153127
-0.00157938
-0.00126395
-0.00176285
-0.000899891
-0.00197679
-0.000463213
-0.00215795
7.32297e-05
-0.00237453
0.00068909
-0.00252814
0.00145786
-0.0027667
0.00231868
-0.00284697
0.00338393
-0.00310154
0.00424126
-0.00276539
0.00496253
-0.00257584
0.00558588
-0.00236953
0.00614188
-0.00221833
0.0066521
-0.00207589
0.00712718
-0.00194439
0.00757893
-0.00181884
0.00801075
-0.00169006
0.00842414
-0.00155537
0.00881667
-0.00141022
0.00918312
-0.00124808
0.00951855
-0.00107098
0.00981421
-0.000876155
0.0100686
-0.000662645
0.0102662
-0.000428335
0.010421
-0.000173161
0.0105328
0.000100628
0.0105819
0.000387809
0.010563
0.000685302
0.0104709
0.000994803
0.0103061