/*--------------------------------*- C++ -*----------------------------------*\
  =========                 |
  \\      /  F ield         | OpenFOAM: The Open Source CFD Toolbox
   \\    /   O peration     | Website:  https://openfoam.org
    \\  /    A nd           | Version:  12
     \\/     M anipulation  |
\*---------------------------------------------------------------------------*/
FoamFile
{
    format      ascii;
    class       volScalarField;
    location    "50";
    object      epsilon;
}
// * * * * * * * * * * * * * * * * * * * * * * * * * * * * * * * * * * * * * //

dimensions      [0 2 -3 0 0 0 0];

internalField   nonuniform List<scalar> 
5000
(
0.124499
0.106975
0.0933186
0.0824546
0.0736492
0.0664504
0.0603792
0.0556613
0.0513569
0.0465052
0.0444638
0.040706
0.0391925
0.036117
0.035038
0.0327561
0.0303571
0.0292481
0.0273169
0.026449
0.0248592
0.0242078
0.0235089
0.0222015
0.0214824
0.124511
0.10696
0.0933304
0.0824405
0.0736615
0.066406
0.06051
0.0550532
0.0505319
0.0461163
0.0439286
0.0403196
0.0388999
0.0358971
0.0347389
0.0322467
0.031051
0.0296688
0.0276374
0.0266283
0.0249836
0.0242109
0.0228507
0.0222297
0.0210749
0.124515
0.106953
0.0933356
0.0824322
0.0736822
0.0663588
0.060505
0.0552119
0.0507278
0.0469827
0.0428266
0.0411203
0.0378723
0.0365905
0.033895
0.0328257
0.0305626
0.0294559
0.0282416
0.0263829
0.025451
0.0239316
0.0232036
0.0219358
0.0212196
0.124517
0.106953
0.0933407
0.0824483
0.0736464
0.0664613
0.0602873
0.0554162
0.0510732
0.0465078
0.044322
0.0406444
0.0392187
0.0362148
0.0350338
0.0324918
0.0314209
0.0297177
0.0276786
0.0266625
0.0250117
0.0242163
0.0228454
0.0222126
0.0210572
0.124514
0.106956
0.0933374
0.0824432
0.073647
0.0664446
0.0604416
0.0558935
0.0505306
0.0471599
0.0431015
0.0415002
0.0381452
0.0368358
0.0340826
0.0329283
0.0312147
0.0290121
0.0279234
0.0261348
0.0252859
0.0238022
0.023126
0.0218792
0.0213159
0.124511
0.106963
0.0933278
0.0824595
0.0736354
0.0664766
0.0602768
0.055529
0.0509078
0.0473614
0.0431698
0.0414961
0.0381666
0.0368368
0.0340885
0.0330235
0.0307072
0.0295691
0.0283394
0.0264472
0.0255115
0.0239785
0.0232361
0.0219592
0.0212386
0.124512
0.106956
0.0933411
0.0824176
0.0736919
0.0663581
0.0604236
0.0552693
0.0510674
0.0478119
0.0447234
0.0421517
0.0389114
0.0357566
0.0343104
0.0318273
0.0307477
0.0286892
0.0278006
0.0260667
0.0253241
0.0245079
0.0230774
0.0223738
0.0212189
0.124508
0.106962
0.0933367
0.0824311
0.0736686
0.0663944
0.0604391
0.0552891
0.0515136
0.0480763
0.0442024
0.0425683
0.0389547
0.0373687
0.0346511
0.0320067
0.0308058
0.0286992
0.0277652
0.0260352
0.0252787
0.0244617
0.0230358
0.0223382
0.0211883
0.124498
0.10698
0.0933102
0.0824724
0.0736217
0.0664464
0.0604052
0.0552249
0.0510831
0.0476977
0.0440843
0.0402893
0.038689
0.0357059
0.0343718
0.031885
0.0308397
0.0287523
0.0278523
0.0268677
0.0251833
0.0243694
0.0229599
0.0222817
0.0211107
0.124508
0.106964
0.0933382
0.0824291
0.0736718
0.0663917
0.0604527
0.0552706
0.0515754
0.0481342
0.043767
0.0420771
0.0386312
0.0372177
0.0346013
0.03198
0.0307819
0.0286869
0.0277408
0.026019
0.0252626
0.0244498
0.0230269
0.0223361
0.0212235
0.124517
0.106948
0.0933486
0.0824262
0.0736814
0.0664397
0.060448
0.0558944
0.0515837
0.0463952
0.044738
0.04101
0.0396069
0.0364709
0.0351784
0.0327741
0.0303692
0.029246
0.027316
0.0264339
0.0248364
0.0241299
0.0227858
0.0222154
0.021477
0.124516
0.106948
0.093348
0.0824244
0.0736843
0.066434
0.0604518
0.0558873
0.0515774
0.046376
0.0445747
0.0408717
0.0395115
0.0363844
0.035152
0.0327837
0.0303854
0.0292592
0.0273219
0.0264311
0.024827
0.0241154
0.0227709
0.0222014
0.0214692
0.124484
0.107001
0.0932895
0.0824891
0.073611
0.0664569
0.0603963
0.0552263
0.0510771
0.0476868
0.044094
0.0402593
0.03865
0.035653
0.0343862
0.0319411
0.0307741
0.0294885
0.0275001
0.0265359
0.0249121
0.0241605
0.022805
0.0222037
0.0210546
0.124472
0.10702
0.0932683
0.0825166
0.0735874
0.0664758
0.0603486
0.0553471
0.0511992
0.0474544
0.0449252
0.0413902
0.0378916
0.0363489
0.0336142
0.0324691
0.0301919
0.0292014
0.0281168
0.0262946
0.0254144
0.0239015
0.0231896
0.02192
0.0212092
0.124497
0.106977
0.0933185
0.0824494
0.073661
0.0663885
0.0603997
0.0553046
0.0509408
0.0474365
0.0447941
0.041331
0.0378694
0.0363052
0.0335606
0.0324072
0.0301555
0.0292121
0.0273264
0.026512
0.0256193
0.0240644
0.0233146
0.0220125
0.0212789
0.124486
0.106998
0.0933059
0.0824686
0.0736548
0.0663925
0.0604177
0.0552783
0.0511264
0.0476033
0.0452603
0.0416946
0.0397573
0.0367258
0.033789
0.032477
0.0301818
0.0291617
0.027269
0.0264609
0.0255779
0.0240349
0.0232952
0.021995
0.0212725
0.124495
0.106983
0.0933061
0.0824684
0.0736421
0.0664112
0.0604208
0.0552182
0.0510538
0.0476791
0.0448468
0.0413903
0.0379172
0.0363753
0.0336524
0.03245
0.0301923
0.0292283
0.0273311
0.0265177
0.0256246
0.024075
0.0233227
0.0220187
0.0212975
0.124474
0.107017
0.0932723
0.0825117
0.0735869
0.0664889
0.0603648
0.0552617
0.0511113
0.0477703
0.0447187
0.0408642
0.0389795
0.0358549
0.0345113
0.0319638
0.030813
0.0295746
0.0275738
0.0266139
0.0249762
0.0242047
0.0228349
0.0222094
0.0210499
0.124505
0.106969
0.0933421
0.0824207
0.0736959
0.0663595
0.06043
0.0552582
0.0510049
0.0477875
0.0449053
0.042081
0.0388601
0.0356986
0.0343283
0.0318548
0.0307783
0.0287257
0.0278337
0.0268581
0.0251756
0.0243635
0.0229616
0.022301
0.0211247
0.124503
0.106977
0.0933135
0.082476
0.0736156
0.0664808
0.060274
0.0554503
0.0508979
0.0473531
0.0431389
0.041451
0.0381182
0.0367647
0.0339886
0.0328879
0.0305614
0.0294844
0.0283138
0.0264403
0.0255001
0.0239638
0.0232197
0.0219391
0.0212177
0.119804
0.0961403
0.0788299
0.0659245
0.0558821
0.0481274
0.0419615
0.0369517
0.0330013
0.0293221
0.0261911
0.0237697
0.0211286
0.0194328
0.0179675
0.016664
0.0154447
0.014349
0.0133628
0.0124814
0.0116844
0.0109698
0.0103234
0.00973439
0.00919877
0.119799
0.0961489
0.0788196
0.0659377
0.055872
0.0481397
0.0420084
0.036925
0.0329777
0.0295203
0.0258678
0.0237597
0.0212908
0.0194766
0.0179807
0.016649
0.0154397
0.0143581
0.0133815
0.0125048
0.0117088
0.0109911
0.0103356
0.00974263
0.00919982
0.119808
0.0961303
0.078844
0.065905
0.0559047
0.0480982
0.0419373
0.0370355
0.0327917
0.0295083
0.0266204
0.0230702
0.0209905
0.0194196
0.0179399
0.0166159
0.0154307
0.0143676
0.013405
0.0125282
0.0117336
0.0110096
0.0103525
0.00975299
0.00920906
0.119803
0.0961397
0.0788356
0.0659298
0.0558753
0.0481566
0.041929
0.0370113
0.0329871
0.0290525
0.0264615
0.0238011
0.0209506
0.0193515
0.0178997
0.0165772
0.0154069
0.0143516
0.0133908
0.0125217
0.0117278
0.011009
0.0103509
0.0097551
0.00920981
0.119806
0.0961407
0.0788326
0.0659439
0.0558555
0.0481864
0.0419317
0.0370759
0.0328649
0.0291449
0.0268886
0.0233717
0.0210154
0.0194309
0.0179502
0.0166167
0.015429
0.0143559
0.013388
0.0125087
0.0117137
0.0109905
0.010335
0.00973796
0.00919675
0.119798
0.096151
0.0788173
0.0659395
0.055874
0.0481315
0.0420047
0.0369775
0.0328409
0.0297063
0.0260686
0.0237636
0.0213938
0.0195037
0.0179804
0.016647
0.0154494
0.0143781
0.0134128
0.0125365
0.0117439
0.0110221
0.0103665
0.00976793
0.009223
0.119801
0.0961505
0.0788178
0.0659511
0.0558472
0.0481757
0.0420021
0.0369939
0.0327859
0.0298649
0.0259115
0.023397
0.0215828
0.0195679
0.0179934
0.0166276
0.0154073
0.0143111
0.0133378
0.0124637
0.0116802
0.0109739
0.0103274
0.00974103
0.00920255
0.119803
0.0961449
0.0788273
0.0659446
0.0558582
0.0481858
0.0419789
0.0370472
0.0327065
0.0298822
0.0260494
0.0230883
0.0216084
0.0196033
0.0180557
0.0167014
0.0154736
0.0143601
0.0133714
0.0124849
0.0116917
0.0109783
0.0103272
0.00973738
0.00919776
0.1198
0.0961498
0.0788185
0.0659416
0.0558635
0.0481457
0.0419936
0.0370049
0.0328449
0.0295106
0.0262355
0.0233984
0.0215074
0.019613
0.0180301
0.0166554
0.0154452
0.0143515
0.0133747
0.0124982
0.0117024
0.010985
0.0103297
0.0097364
0.00919385
0.119806
0.0961381
0.0788353
0.0659319
0.0558738
0.0481684
0.0419798
0.0370375
0.0327327
0.0297423
0.0262
0.0230069
0.021632
0.0195751
0.0180311
0.016681
0.0154639
0.0143564
0.0133709
0.0124859
0.0116931
0.0109797
0.0103282
0.00973819
0.00919861
0.119805
0.0961357
0.0788396
0.0659155
0.0558938
0.0481276
0.0419446
0.0370487
0.0327499
0.0297018
0.0263603
0.0230752
0.0213917
0.0195841
0.0180488
0.0167001
0.0154925
0.0143945
0.0134005
0.0125104
0.0117048
0.0109817
0.0103238
0.00973135
0.00919282
0.119804
0.096137
0.0788387
0.0659173
0.0558912
0.0481316
0.0419575
0.0370364
0.0327582
0.0297062
0.0263292
0.0230738
0.0213494
0.0195686
0.0180335
0.0166843
0.0154789
0.0143863
0.0133954
0.0125068
0.0117018
0.0109785
0.0103202
0.0097274
0.00918862
0.119804
0.0961365
0.0788417
0.0659113
0.0558994
0.0481157
0.0419823
0.0369748
0.0328527
0.0295488
0.0261493
0.0233898
0.0214751
0.0195955
0.0180109
0.0166365
0.0154294
0.0143431
0.0133612
0.0124813
0.0116839
0.0109666
0.0103127
0.00972237
0.00918252
0.1198
0.0961475
0.0788231
0.0659393
0.0558628
0.048147
0.0420185
0.0369394
0.0329039
0.0297032
0.0255535
0.0237906
0.0216543
0.019544
0.0180175
0.016677
0.0154437
0.0143515
0.013377
0.0124985
0.0117079
0.0109897
0.0103385
0.00974399
0.00920268
0.119799
0.0961503
0.0788202
0.0659473
0.0558527
0.0481658
0.0419966
0.0369598
0.0328848
0.0297032
0.0256424
0.0237053
0.0216562
0.0195476
0.018
0.0166483
0.015417
0.0143279
0.0133521
0.0124823
0.0116994
0.0109876
0.0103411
0.00974995
0.00921074
0.119794
0.0961557
0.0788143
0.0659432
0.0558613
0.0481479
0.0419791
0.0370394
0.0327404
0.0297873
0.0261873
0.0231454
0.0215409
0.0196229
0.0180436
0.0166678
0.0154406
0.0143471
0.0133648
0.0124886
0.0117005
0.010985
0.0103364
0.00974391
0.00920516
0.119807
0.0961323
0.0788436
0.0659041
0.0559083
0.0480963
0.0419815
0.0369082
0.0331053
0.0290805
0.0260167
0.0238619
0.0211393
0.0194532
0.0179635
0.0166062
0.0153793
0.0142998
0.0133331
0.0124698
0.0116907
0.0109804
0.0103341
0.0097421
0.00920293
0.119804
0.0961416
0.0788312
0.0659333
0.0558696
0.0481474
0.0420033
0.0369045
0.0331182
0.0291041
0.0260168
0.0238603
0.0212166
0.0195051
0.0180236
0.0166544
0.0154282
0.0143425
0.0133664
0.0124918
0.0116974
0.0109807
0.0103254
0.0097319
0.00918938
0.119801
0.0961429
0.0788308
0.0659265
0.0558808
0.0481444
0.0420058
0.0368991
0.0330151
0.0295905
0.0257945
0.0237928
0.0212093
0.0194534
0.0179678
0.016606
0.0153872
0.0143042
0.0133419
0.01248
0.0116964
0.0109881
0.0103391
0.00974972
0.00920946
0.119792
0.0961567
0.0788203
0.0659342
0.0558856
0.0481155
0.0419707
0.0370048
0.0327905
0.0297442
0.0260248
0.0233303
0.0215131
0.0195158
0.0179855
0.0166501
0.0154526
0.0143806
0.0134141
0.0125361
0.011742
0.0110191
0.0103631
0.00976427
0.00922046
0.119798
0.0960413
0.0786284
0.0656024
0.0554752
0.04762
0.0414444
0.0364589
0.0322651
0.0287924
0.0257892
0.0232932
0.0210534
0.01921
0.0174987
0.0161169
0.0147601
0.0137104
0.0126006
0.0118095
0.0108701
0.0102894
0.00945334
0.00908896
0.00812143
0.119798
0.0960408
0.0786286
0.0656018
0.0554755
0.0476172
0.041449
0.0364568
0.0322692
0.0287934
0.0257876
0.0232929
0.0210565
0.0192095
0.0174978
0.0161145
0.0147588
0.0137115
0.0126019
0.0118122
0.0108717
0.0102917
0.00945456
0.00908977
0.00812452
0.119798
0.0960411
0.0786285
0.0656019
0.0554752
0.047619
0.0414472
0.03646
0.0322629
0.0287976
0.0257941
0.0232861
0.0210538
0.0192095
0.0174973
0.0161136
0.0147604
0.0137137
0.0126046
0.011814
0.0108735
0.0102898
0.00946771
0.00902484
0.00821593
0.119794
0.096047
0.0786232
0.0656079
0.0554697
0.0476251
0.0414469
0.0364632
0.0322663
0.0287921
0.0257982
0.0232923
0.0210541
0.0192083
0.0174974
0.0161133
0.0147603
0.0137133
0.0126047
0.0118142
0.0108736
0.0102926
0.00945511
0.00909019
0.00812455
0.119795
0.0960451
0.0786245
0.0656075
0.0554695
0.047626
0.0414478
0.0364643
0.0322629
0.0287957
0.0257995
0.0232884
0.0210527
0.0192103
0.0174973
0.0161144
0.0147591
0.0137129
0.0126027
0.0118138
0.0108716
0.0102926
0.00945365
0.0090887
0.00812802
0.119795
0.096047
0.0786214
0.0656098
0.0554659
0.0476248
0.0414506
0.0364597
0.0322678
0.0287996
0.0257889
0.0232874
0.0210562
0.0192094
0.0174984
0.0161146
0.0147597
0.0137129
0.0126035
0.011815
0.0108732
0.0102946
0.00945563
0.00909061
0.00813024
0.119795
0.0960472
0.0786211
0.065611
0.0554646
0.0476276
0.0414513
0.0364594
0.0322677
0.0288017
0.0257857
0.0232875
0.0210592
0.0192104
0.0174977
0.0161123
0.0147572
0.01371
0.0126023
0.0118139
0.0108736
0.0102941
0.00945578
0.0090908
0.00812708
0.119791
0.0960509
0.078619
0.0656126
0.0554647
0.0476286
0.0414511
0.0364616
0.0322656
0.0288035
0.0257898
0.0232864
0.0210573
0.0192104
0.0174992
0.0161144
0.0147593
0.013711
0.0126029
0.0118134
0.0108737
0.0102905
0.00946771
0.00902487
0.00821526
0.119791
0.096052
0.0786172
0.065613
0.0554646
0.047626
0.0414517
0.0364613
0.0322669
0.0288005
0.0257918
0.0232888
0.0210586
0.0192114
0.0174984
0.0161136
0.0147592
0.0137107
0.0126021
0.0118116
0.0108719
0.010288
0.00946572
0.00902232
0.00821416
0.119793
0.0960488
0.0786212
0.0656113
0.0554659
0.0476294
0.0414509
0.0364622
0.0322642
0.0288035
0.0257906
0.0232867
0.0210569
0.0192103
0.0174987
0.0161141
0.0147594
0.0137109
0.0126027
0.0118126
0.0108731
0.0102895
0.0094669
0.00902334
0.00821502
0.119793
0.0960478
0.0786222
0.0656091
0.0554682
0.0476261
0.0414485
0.0364628
0.0322641
0.0288008
0.0257935
0.0232867
0.021056
0.0192115
0.0174997
0.0161166
0.0147616
0.0137135
0.012603
0.0118134
0.0108711
0.0102918
0.00945221
0.00908713
0.00812581
0.119793
0.0960492
0.0786196
0.0656118
0.0554638
0.0476293
0.0414489
0.036463
0.0322642
0.0288013
0.0257926
0.0232862
0.021056
0.0192107
0.0174997
0.0161154
0.0147619
0.0137127
0.0126038
0.0118123
0.0108719
0.0102904
0.00945263
0.00908746
0.00812045
0.119794
0.0960469
0.0786224
0.0656095
0.0554666
0.0476281
0.0414494
0.0364605
0.0322659
0.0287992
0.0257891
0.0232899
0.0210588
0.0192109
0.017498
0.016113
0.0147597
0.013711
0.0126026
0.0118117
0.0108718
0.0102907
0.00945373
0.00908881
0.00812179
0.119795
0.096047
0.0786216
0.0656121
0.0554632
0.0476316
0.0414504
0.0364611
0.032268
0.0287998
0.0257839
0.0232906
0.0210586
0.0192106
0.0174992
0.0161138
0.014759
0.0137108
0.012603
0.011813
0.0108732
0.0102924
0.00945513
0.00909004
0.00812342
0.119795
0.0960472
0.0786217
0.0656122
0.0554635
0.0476323
0.0414496
0.0364613
0.0322677
0.0287998
0.0257837
0.0232909
0.0210593
0.0192111
0.0174977
0.0161131
0.0147571
0.0137112
0.0126026
0.0118151
0.0108737
0.0102952
0.00945583
0.00909072
0.00812994
0.119791
0.0960526
0.0786164
0.0656151
0.055461
0.0476305
0.0414505
0.0364633
0.0322646
0.0288042
0.0257899
0.0232874
0.0210576
0.0192121
0.0174987
0.0161138
0.0147578
0.0137107
0.0126018
0.0118135
0.0108729
0.0102912
0.0094667
0.00902741
0.0082148
0.119797
0.0960436
0.0786248
0.0656059
0.05547
0.0476226
0.041448
0.0364603
0.0322682
0.0287911
0.0257921
0.0232941
0.021056
0.0192088
0.0174988
0.0161124
0.0147584
0.0137105
0.0126035
0.011813
0.010874
0.0102893
0.00946777
0.0090228
0.00821674
0.119795
0.0960463
0.0786227
0.0656102
0.0554658
0.0476289
0.0414492
0.0364619
0.0322702
0.0287916
0.0257906
0.0232946
0.0210571
0.0192098
0.0174997
0.0161131
0.0147586
0.0137105
0.0126024
0.0118118
0.0108723
0.0102881
0.00946689
0.00902215
0.00821616
0.119795
0.0960465
0.0786229
0.0656091
0.0554677
0.0476278
0.041449
0.0364599
0.0322707
0.0287943
0.0257863
0.0232927
0.0210556
0.0192092
0.0174968
0.0161128
0.0147566
0.0137114
0.0126018
0.0118141
0.0108725
0.0102914
0.00946604
0.00902772
0.00821369
0.119791
0.0960508
0.0786187
0.0656113
0.0554659
0.0476251
0.0414425
0.0364564
0.0322621
0.028799
0.0257877
0.0232854
0.0210549
0.0192091
0.0174983
0.0161142
0.0147606
0.0137121
0.0126037
0.0118131
0.0108737
0.0102902
0.00946866
0.00902482
0.00821755
0.1198
0.0960358
0.0786279
0.065589
0.0554694
0.0475991
0.0414266
0.0364373
0.0322394
0.0287708
0.0257614
0.0232673
0.02103
0.0191896
0.0174722
0.0160902
0.0147297
0.0136836
0.0125701
0.0117816
0.0108376
0.010258
0.00941813
0.00905375
0.00808075
0.119797
0.0960406
0.0786223
0.0655955
0.0554613
0.0476061
0.0414293
0.0364412
0.0322414
0.0287723
0.025763
0.0232676
0.021031
0.0191899
0.0174723
0.0160909
0.0147292
0.0136846
0.0125696
0.0117825
0.0108371
0.0102585
0.00941785
0.00905342
0.00808287
0.1198
0.0960365
0.0786266
0.0655914
0.0554658
0.0476031
0.0414286
0.0364402
0.0322404
0.0287719
0.0257621
0.0232674
0.0210302
0.0191901
0.0174716
0.016091
0.0147288
0.0136847
0.0125694
0.0117827
0.0108374
0.0102565
0.00943049
0.00898777
0.00817547
0.119798
0.096039
0.0786234
0.0655951
0.0554613
0.0476067
0.041429
0.0364414
0.032241
0.0287722
0.0257626
0.0232675
0.0210303
0.01919
0.0174715
0.016091
0.0147287
0.0136848
0.0125695
0.011783
0.0108373
0.0102594
0.00941817
0.00905391
0.00808594
0.119799
0.0960381
0.0786248
0.0655928
0.0554642
0.0476032
0.0414291
0.0364403
0.0322409
0.028772
0.0257619
0.0232681
0.0210293
0.0191909
0.0174706
0.0160917
0.0147281
0.0136854
0.0125691
0.0117839
0.0108375
0.0102584
0.00943031
0.0089917
0.00817487
0.119799
0.0960395
0.0786223
0.0655964
0.0554591
0.0476081
0.0414292
0.0364418
0.0322411
0.0287723
0.0257624
0.0232673
0.0210302
0.0191897
0.0174715
0.0160906
0.0147289
0.0136843
0.01257
0.0117826
0.0108386
0.0102567
0.00943253
0.008987
0.00817887
0.119798
0.0960394
0.0786233
0.0655951
0.0554616
0.047606
0.0414295
0.036441
0.0322415
0.028772
0.0257627
0.0232671
0.0210306
0.0191897
0.0174718
0.0160904
0.0147289
0.0136841
0.0125697
0.0117826
0.010838
0.0102566
0.00943129
0.00898736
0.00817688
0.119794
0.0960436
0.0786203
0.0655969
0.055461
0.0476054
0.0414301
0.0364411
0.0322425
0.0287723
0.025764
0.0232674
0.0210318
0.0191897
0.0174729
0.0160905
0.0147297
0.0136841
0.0125701
0.0117824
0.0108376
0.0102588
0.00941774
0.00905342
0.0080836
0.119789
0.0960516
0.0786122
0.0656056
0.0554514
0.0476136
0.0414305
0.0364442
0.0322427
0.0287743
0.0257638
0.0232687
0.0210313
0.0191905
0.0174722
0.0160909
0.0147293
0.0136843
0.0125699
0.0117826
0.0108375
0.010259
0.0094179
0.00905356
0.00808426
0.11979
0.0960514
0.0786119
0.0656074
0.055449
0.0476183
0.04143
0.0364462
0.0322415
0.0287757
0.0257627
0.0232696
0.0210306
0.0191911
0.0174718
0.0160912
0.014729
0.0136845
0.0125697
0.0117827
0.0108377
0.0102567
0.00943055
0.0089877
0.00817539
0.119788
0.0960531
0.0786102
0.0656086
0.0554477
0.0476185
0.0414303
0.0364462
0.032242
0.0287757
0.0257631
0.0232697
0.0210306
0.0191913
0.0174716
0.0160917
0.0147288
0.0136853
0.0125694
0.0117837
0.0108369
0.0102601
0.0094175
0.00905308
0.00808806
0.119791
0.0960499
0.0786124
0.0656069
0.0554484
0.047618
0.0414298
0.0364458
0.0322411
0.0287751
0.0257623
0.0232689
0.0210301
0.0191904
0.0174716
0.0160907
0.0147291
0.0136841
0.0125699
0.0117822
0.0108376
0.0102583
0.00941788
0.00905335
0.00808143
0.119793
0.0960481
0.0786142
0.0656057
0.0554496
0.0476181
0.0414294
0.0364459
0.0322406
0.0287752
0.0257618
0.0232689
0.0210299
0.0191903
0.0174714
0.0160905
0.0147289
0.013684
0.0125697
0.0117822
0.0108373
0.0102584
0.00941768
0.00905314
0.00808258
0.119796
0.0960427
0.07862
0.0656004
0.0554557
0.0476141
0.0414288
0.0364445
0.0322397
0.0287746
0.025761
0.0232687
0.0210294
0.0191902
0.0174711
0.0160905
0.0147286
0.0136838
0.0125696
0.0117821
0.0108372
0.0102584
0.00941766
0.0090532
0.00808264
0.119793
0.0960469
0.0786159
0.0656041
0.055452
0.0476166
0.0414294
0.0364454
0.0322405
0.028775
0.0257616
0.023269
0.0210298
0.0191904
0.0174712
0.0160906
0.0147285
0.013684
0.0125694
0.0117823
0.0108372
0.0102586
0.00941777
0.00905333
0.00808309
0.119792
0.096048
0.0786151
0.0656035
0.0554531
0.0476139
0.0414297
0.0364443
0.0322413
0.0287744
0.0257625
0.0232685
0.0210305
0.0191902
0.0174718
0.0160906
0.0147291
0.0136841
0.0125699
0.0117823
0.0108383
0.0102562
0.00943191
0.00898625
0.00817802
0.119795
0.0960427
0.0786208
0.065597
0.0554605
0.0476071
0.0414293
0.0364419
0.0322412
0.0287731
0.0257627
0.0232682
0.0210309
0.0191901
0.0174724
0.0160906
0.0147296
0.0136842
0.0125702
0.0117824
0.0108383
0.010256
0.00943159
0.00898538
0.00817806
0.119793
0.0960472
0.0786156
0.065603
0.0554533
0.0476136
0.0414297
0.0364444
0.0322414
0.0287746
0.0257626
0.0232693
0.0210304
0.0191911
0.0174716
0.0160917
0.0147286
0.0136854
0.012569
0.0117836
0.0108368
0.0102577
0.0094289
0.00899058
0.00817363
0.119796
0.0960422
0.0786208
0.0655983
0.0554585
0.0476109
0.041429
0.0364435
0.0322402
0.0287742
0.0257616
0.0232691
0.02103
0.0191909
0.0174716
0.0160913
0.0147288
0.0136847
0.0125693
0.0117826
0.0108367
0.0102587
0.00941709
0.00905283
0.00808438
0.119798
0.0960394
0.0786236
0.0655957
0.0554612
0.0476087
0.0414216
0.0364374
0.0322358
0.0287707
0.0257591
0.0232668
0.0210286
0.0191894
0.0174711
0.0160904
0.0147288
0.0136844
0.0125695
0.0117831
0.010837
0.0102597
0.00941772
0.00905339
0.00808683
0.119801
0.0960356
0.0786242
0.0655896
0.0554595
0.0476008
0.0414213
0.0364341
0.0322332
0.0287658
0.0257551
0.0232616
0.0210238
0.0191843
0.0174662
0.0160854
0.0147241
0.0136793
0.0125653
0.0117779
0.0108333
0.0102545
0.00941406
0.0090497
0.00807858
0.119798
0.0960387
0.0786211
0.0655934
0.0554555
0.0476049
0.0414238
0.0364371
0.0322349
0.0287673
0.0257566
0.0232621
0.021025
0.0191847
0.0174666
0.016086
0.0147238
0.0136802
0.0125643
0.0117788
0.010832
0.0102553
0.00941313
0.00904871
0.0080826
0.119798
0.0960385
0.0786218
0.0655923
0.0554572
0.0476031
0.0414238
0.0364366
0.0322352
0.028767
0.0257571
0.0232619
0.0210256
0.0191844
0.0174672
0.0160854
0.0147244
0.0136793
0.0125649
0.0117777
0.0108325
0.0102543
0.00941332
0.00904912
0.00808
0.119798
0.0960389
0.0786211
0.065593
0.0554562
0.0476039
0.0414237
0.0364369
0.032235
0.0287671
0.0257567
0.023262
0.0210251
0.0191844
0.0174668
0.0160856
0.0147242
0.0136795
0.012565
0.011778
0.0108333
0.0102521
0.00942659
0.00898297
0.00817148
0.119796
0.0960409
0.0786195
0.0655941
0.0554554
0.0476042
0.0414237
0.0364371
0.0322349
0.0287676
0.0257564
0.0232626
0.0210246
0.0191851
0.0174663
0.0160862
0.0147236
0.0136802
0.0125642
0.0117791
0.0108317
0.0102559
0.00941263
0.00904843
0.00808632
0.119797
0.0960408
0.0786195
0.0655949
0.0554545
0.0476057
0.0414239
0.0364378
0.0322348
0.0287681
0.025756
0.023263
0.021024
0.0191854
0.0174656
0.0160863
0.014723
0.01368
0.0125639
0.0117785
0.0108323
0.0102531
0.0094252
0.0089861
0.00817051
0.119794
0.0960441
0.078617
0.0655968
0.0554532
0.0476057
0.0414245
0.0364376
0.032236
0.0287678
0.0257574
0.0232626
0.0210254
0.0191849
0.0174666
0.0160859
0.0147238
0.0136798
0.0125645
0.0117785
0.0108327
0.0102532
0.00942536
0.0089859
0.00817104
0.11979
0.0960503
0.0786115
0.0656014
0.055449
0.0476076
0.0414257
0.0364384
0.0322378
0.0287683
0.0257593
0.0232625
0.0210271
0.0191844
0.0174683
0.0160853
0.0147251
0.0136792
0.0125654
0.0117778
0.0108328
0.0102542
0.00941312
0.00904871
0.00807928
0.119787
0.0960542
0.0786078
0.0656057
0.0554446
0.0476111
0.0414262
0.0364396
0.0322382
0.0287687
0.0257593
0.0232627
0.0210268
0.0191845
0.0174678
0.0160852
0.0147248
0.013679
0.0125656
0.0117777
0.0108335
0.0102544
0.00941433
0.00904995
0.00807795
0.119789
0.0960526
0.0786079
0.0656066
0.0554424
0.0476152
0.0414251
0.0364412
0.0322363
0.02877
0.0257573
0.0232637
0.0210251
0.0191853
0.0174665
0.0160858
0.0147239
0.0136795
0.0125648
0.0117781
0.0108328
0.010255
0.00941372
0.00904963
0.00808196
0.11979
0.0960519
0.0786081
0.0656073
0.0554409
0.0476178
0.0414249
0.0364424
0.0322357
0.0287707
0.0257568
0.0232642
0.0210247
0.0191857
0.0174661
0.0160862
0.0147234
0.0136801
0.0125643
0.0117788
0.0108326
0.0102535
0.00942542
0.00898685
0.00817013
0.119797
0.0960421
0.078617
0.0655994
0.0554482
0.0476128
0.0414239
0.0364403
0.0322343
0.0287691
0.0257555
0.0232631
0.0210238
0.019185
0.0174656
0.0160859
0.0147231
0.0136798
0.012564
0.0117786
0.0108317
0.0102555
0.00941272
0.00904844
0.0080852
0.119798
0.0960423
0.078616
0.0656009
0.0554458
0.0476151
0.0414237
0.0364412
0.032234
0.0287698
0.0257553
0.0232635
0.0210237
0.0191851
0.0174659
0.0160856
0.0147237
0.0136792
0.0125647
0.0117776
0.0108329
0.0102517
0.00942611
0.00898263
0.00817105
0.119798
0.0960418
0.078617
0.0655995
0.0554478
0.0476135
0.0414236
0.0364407
0.0322339
0.0287697
0.0257552
0.0232636
0.0210237
0.0191852
0.0174659
0.0160857
0.0147237
0.0136793
0.0125646
0.0117778
0.0108328
0.0102519
0.00942571
0.00898315
0.00817065
0.119793
0.0960474
0.0786122
0.0656039
0.0554441
0.0476158
0.0414245
0.0364415
0.0322351
0.02877
0.0257563
0.0232637
0.0210243
0.0191854
0.0174659
0.016086
0.0147233
0.0136798
0.0125641
0.0117785
0.0108319
0.0102553
0.0094129
0.0090486
0.00808372
0.119795
0.0960447
0.078615
0.0656
0.0554483
0.047611
0.0414242
0.0364394
0.0322352
0.0287686
0.0257566
0.0232626
0.0210249
0.0191846
0.0174665
0.0160856
0.0147239
0.0136797
0.0125646
0.0117787
0.0108327
0.0102534
0.00942535
0.0089863
0.00817049
0.119796
0.096043
0.0786167
0.0655983
0.05545
0.0476098
0.0414242
0.036439
0.0322353
0.0287683
0.0257569
0.0232624
0.0210253
0.0191844
0.0174669
0.0160855
0.0147241
0.0136796
0.0125646
0.0117784
0.0108326
0.0102531
0.00942543
0.00898581
0.0081712
0.119793
0.0960459
0.0786143
0.0655997
0.0554494
0.0476088
0.0414246
0.0364388
0.0322361
0.0287685
0.0257575
0.0232629
0.0210254
0.0191852
0.0174667
0.0160861
0.0147239
0.0136799
0.0125645
0.0117783
0.0108323
0.0102549
0.00941324
0.00904916
0.00808229
0.119793
0.0960453
0.0786156
0.0655988
0.055451
0.0476092
0.0414243
0.0364392
0.0322353
0.0287692
0.0257568
0.0232637
0.0210251
0.0191858
0.0174666
0.0160865
0.0147237
0.0136801
0.0125638
0.0117783
0.0108313
0.0102525
0.00942327
0.0089863
0.008167
0.119791
0.0960488
0.0786127
0.0656008
0.0554496
0.0476084
0.0414179
0.0364334
0.0322324
0.0287659
0.0257551
0.0232619
0.0210239
0.0191846
0.0174661
0.0160854
0.014724
0.0136792
0.012565
0.0117778
0.010833
0.0102546
0.00941389
0.00904972
0.00808004
0.119797
0.0960407
0.0786178
0.065592
0.0554535
0.0475983
0.0414197
0.0364306
0.0322325
0.0287618
0.0257543
0.0232576
0.0210224
0.0191809
0.0174641
0.0160825
0.0147216
0.0136771
0.0125625
0.0117761
0.0108308
0.0102505
0.00942386
0.00898265
0.00816944
0.119797
0.0960402
0.0786189
0.0655921
0.0554537
0.0476009
0.0414214
0.0364337
0.0322326
0.0287639
0.0257543
0.0232588
0.0210228
0.0191814
0.0174645
0.0160829
0.0147216
0.0136774
0.012562
0.0117763
0.0108298
0.0102509
0.00942196
0.00898455
0.00816646
0.119795
0.0960429
0.0786159
0.0655954
0.05545
0.0476039
0.0414217
0.0364348
0.0322331
0.0287643
0.0257549
0.0232589
0.0210232
0.0191813
0.0174648
0.0160827
0.014722
0.0136769
0.0125626
0.0117756
0.0108302
0.0102524
0.00941105
0.00904682
0.00807916
0.119798
0.0960385
0.0786201
0.065592
0.0554534
0.0476023
0.0414213
0.0364341
0.0322324
0.0287639
0.025754
0.0232587
0.0210224
0.0191813
0.0174641
0.0160826
0.0147216
0.0136767
0.0125626
0.0117754
0.0108313
0.0102495
0.00942522
0.00897964
0.00817154
0.119795
0.0960436
0.0786158
0.0655961
0.0554497
0.0476056
0.0414215
0.0364355
0.0322326
0.0287649
0.0257545
0.023259
0.0210231
0.019181
0.0174648
0.0160821
0.014722
0.0136763
0.0125628
0.0117751
0.0108312
0.0102497
0.00942494
0.00898076
0.00817102
0.119792
0.096047
0.0786127
0.0655991
0.055447
0.0476074
0.041422
0.0364363
0.0322331
0.0287656
0.0257546
0.0232597
0.0210227
0.0191818
0.0174641
0.0160828
0.0147212
0.0136771
0.0125619
0.0117763
0.0108298
0.0102536
0.00941098
0.0090469
0.00808331
0.119795
0.0960424
0.0786169
0.0655941
0.0554517
0.0476023
0.0414214
0.0364341
0.0322326
0.0287641
0.0257541
0.0232588
0.0210225
0.0191813
0.0174641
0.0160827
0.0147216
0.0136773
0.0125625
0.0117765
0.0108307
0.0102514
0.00942326
0.00898427
0.00816845
0.119792
0.0960463
0.0786132
0.0655981
0.0554478
0.0476056
0.0414222
0.0364353
0.0322336
0.0287646
0.0257552
0.0232589
0.0210234
0.0191811
0.017465
0.0160824
0.0147222
0.0136768
0.012563
0.0117759
0.0108311
0.0102503
0.00942395
0.00898145
0.00816899
0.119789
0.0960508
0.0786093
0.0656013
0.0554452
0.047607
0.0414228
0.036436
0.0322345
0.0287651
0.0257559
0.0232592
0.0210239
0.0191811
0.0174653
0.016082
0.0147224
0.0136764
0.0125631
0.0117756
0.010831
0.0102527
0.00941191
0.00904766
0.00807848
0.119787
0.0960552
0.0786044
0.0656075
0.055438
0.0476142
0.0414231
0.0364387
0.0322344
0.0287667
0.0257557
0.02326
0.0210236
0.0191815
0.017465
0.0160822
0.0147222
0.0136764
0.012563
0.0117753
0.0108316
0.0102498
0.00942548
0.00898058
0.00817135
0.119786
0.0960557
0.0786036
0.0656088
0.0554363
0.0476165
0.0414231
0.0364398
0.0322342
0.0287676
0.0257553
0.0232606
0.0210232
0.0191819
0.0174648
0.0160823
0.0147221
0.013676
0.0125629
0.0117747
0.0108313
0.0102491
0.0094252
0.00897902
0.00817226
0.119791
0.0960496
0.0786091
0.0656043
0.0554404
0.0476145
0.0414224
0.036439
0.0322332
0.0287669
0.0257547
0.0232602
0.021023
0.0191818
0.0174647
0.0160826
0.0147219
0.0136765
0.0125624
0.0117751
0.0108304
0.0102494
0.00942334
0.00898076
0.00816858
0.119796
0.0960435
0.0786148
0.0655993
0.0554452
0.0476116
0.0414216
0.0364379
0.032232
0.0287663
0.0257535
0.0232599
0.0210222
0.0191816
0.0174643
0.0160822
0.0147218
0.0136761
0.0125626
0.011775
0.0108305
0.0102519
0.00941109
0.00904687
0.00807722
0.119797
0.0960417
0.0786169
0.0655966
0.0554485
0.0476084
0.0414215
0.0364367
0.0322319
0.0287659
0.0257533
0.02326
0.0210221
0.0191817
0.0174644
0.0160823
0.0147221
0.0136762
0.0125629
0.011775
0.0108306
0.0102518
0.00941113
0.00904672
0.00807601
0.119789
0.0960519
0.0786072
0.0656059
0.0554392
0.0476149
0.041423
0.0364392
0.032234
0.0287672
0.0257554
0.0232605
0.0210235
0.0191821
0.0174651
0.0160826
0.0147222
0.0136763
0.0125626
0.0117749
0.0108302
0.0102514
0.00941089
0.00904629
0.00807609
0.119795
0.0960424
0.0786172
0.0655944
0.055452
0.0476033
0.0414216
0.0364348
0.0322326
0.0287649
0.0257541
0.0232594
0.0210227
0.0191814
0.0174647
0.0160824
0.014722
0.0136766
0.0125626
0.0117755
0.0108302
0.0102524
0.00941094
0.00904664
0.00807901
0.119796
0.0960415
0.0786179
0.0655947
0.0554513
0.0476046
0.0414219
0.0364351
0.032233
0.0287644
0.0257549
0.0232587
0.0210236
0.0191809
0.0174652
0.0160821
0.0147222
0.0136763
0.0125626
0.011775
0.0108307
0.0102492
0.00942416
0.00898008
0.00817009
0.119793
0.0960462
0.0786128
0.0655995
0.0554459
0.0476081
0.0414226
0.0364364
0.032234
0.0287651
0.0257557
0.0232591
0.0210238
0.0191814
0.0174651
0.0160825
0.0147221
0.0136766
0.0125626
0.0117751
0.0108307
0.0102492
0.00942412
0.00898008
0.00816995
0.119794