/*--------------------------------*- C++ -*----------------------------------*\
  =========                 |
  \\      /  F ield         | OpenFOAM: The Open Source CFD Toolbox
   \\    /   O peration     | Website:  https://openfoam.org
    \\  /    A nd           | Version:  12
     \\/     M anipulation  |
\*---------------------------------------------------------------------------*/
FoamFile
{
    format      ascii;
    class       volScalarField;
    location    "50";
    object      k;
}
// * * * * * * * * * * * * * * * * * * * * * * * * * * * * * * * * * * * * * //

dimensions      [0 2 -2 0 0 0 0];

internalField   nonuniform List<scalar> 
5000
(
1.44048
1.33526
1.24711
1.17228
1.1078
1.05238
1.00206
0.963166
0.91055
0.88039
0.827653
0.806552
0.762252
0.743977
0.706463
0.692399
0.665637
0.633865
0.618609
0.59199
0.579673
0.556997
0.54748
0.536753
0.518486
1.44054
1.33516
1.24718
1.17218
1.10801
1.05164
1.00424
0.95789
0.91737
0.876701
0.823704
0.801675
0.758556
0.740605
0.703562
0.688812
0.656308
0.640995
0.624312
0.596627
0.582631
0.559171
0.547854
0.527763
0.516197
1.44056
1.33512
1.24723
1.17209
1.10817
1.05146
1.00406
0.95927
0.91949
0.882764
0.838104
0.789272
0.768565
0.729005
0.712525
0.678324
0.664456
0.634198
0.620326
0.60482
0.57902
0.565901
0.543886
0.532672
0.515133
1.44057
1.33512
1.2472
1.17224
1.10773
1.05247
1.00233
0.960818
0.920787
0.880415
0.827445
0.805629
0.761962
0.744393
0.707242
0.692158
0.659565
0.643424
0.625583
0.597699
0.583308
0.55972
0.548023
0.52777
0.516081
1.44056
1.33514
1.2472
1.1722
1.10786
1.05208
1.00367
0.955225
0.917702
0.861071
0.838066
0.791017
0.771614
0.731378
0.715269
0.680295
0.663713
0.645368
0.615813
0.60083
0.575708
0.563438
0.541882
0.531772
0.51309
1.44053
1.33518
1.24712
1.17232
1.10765
1.05259
1.00204
0.96145
0.92112
0.874306
0.843025
0.793922
0.77316
0.732544
0.715433
0.680733
0.666651
0.635995
0.621712
0.60604
0.579842
0.566754
0.544577
0.53335
0.51513
1.44055
1.33513
1.24727
1.172
1.10823
1.05165
1.00344
0.959543
0.922563
0.883992
0.854411
0.812554
0.784835
0.744202
0.704487
0.685624
0.653076
0.638268
0.610421
0.598017
0.573843
0.563384
0.551782
0.530855
0.518962
1.44053
1.33517
1.24724
1.17211
1.10807
1.05182
1.00365
0.958253
0.926585
0.871076
0.850184
0.801838
0.782417
0.74042
0.722637
0.689492
0.65525
0.639284
0.610848
0.59787
0.573678
0.562944
0.551239
0.530316
0.518475
1.44047
1.33529
1.24703
1.17241
1.10771
1.05213
1.00337
0.959096
0.922705
0.88515
0.849949
0.805522
0.760041
0.739847
0.702461
0.685286
0.652956
0.638814
0.610842
0.598708
0.585284
0.561533
0.549954
0.529253
0.517404
1.44053
1.33517
1.24725
1.1721
1.10809
1.05177
1.00377
0.958001
0.927141
0.869227
0.846301
0.798043
0.778206
0.737284
0.720397
0.689318
0.655313
0.639095
0.610785
0.597609
0.573509
0.562746
0.551066
0.530149
0.518548
1.44058
1.33509
1.24729
1.17208
1.10796
1.0523
1.00175
0.965181
0.90185
0.878965
0.828259
0.808918
0.765075
0.748139
0.71008
0.694288
0.666131
0.634212
0.618689
0.59205
0.579477
0.556668
0.546304
0.526508
0.517478
1.44058
1.33509
1.24729
1.17207
1.10799
1.05225
1.0018
0.965119
0.901874
0.878819
0.827859
0.807613
0.763737
0.746904
0.708915
0.693405
0.666398
0.634534
0.618918
0.592177
0.579476
0.556563
0.546112
0.526294
0.517283
1.44039
1.33542
1.24693
1.17251
1.10763
1.0522
1.0033
0.959171
0.922443
0.886042
0.84954
0.80543
0.759581
0.739212
0.701725
0.685444
0.653109
0.638163
0.621948
0.594703
0.581201
0.558006
0.546961
0.526938
0.51555
1.44032
1.33554
1.24678
1.17269
1.10745
1.05242
1.00287
0.960443
0.918339
0.889329
0.835081
0.813884
0.772741
0.730104
0.710708
0.675862
0.660413
0.630422
0.617314
0.602782
0.577464
0.565081
0.543213
0.532466
0.514377
1.44047
1.33527
1.24712
1.17222
1.10801
1.05189
1.00317
0.960074
0.921419
0.8873
0.842116
0.815534
0.773119
0.730644
0.710488
0.675429
0.659934
0.630033
0.617083
0.591296
0.580086
0.567676
0.545371
0.534373
0.51545
1.44041
1.33538
1.24704
1.17231
1.10796
1.05186
1.00338
0.959846
0.920263
0.890724
0.836569
0.81769
0.771465
0.752006
0.715657
0.678459
0.661388
0.630864
0.616937
0.590923
0.579672
0.567239
0.545039
0.534161
0.514965
1.44045
1.33531
1.24703
1.17235
1.10787
1.0519
1.0035
0.959325
0.921925
0.887651
0.848815
0.81683
0.774007
0.73129
0.711567
0.676642
0.660542
0.630613
0.617375
0.591417
0.580197
0.567755
0.545521
0.534474
0.51541
1.44033
1.33552
1.24681
1.17267
1.10745
1.05244
1.00304
0.959372
0.922384
0.887676
0.851642
0.813197
0.766169
0.743371
0.704726
0.687058
0.654032
0.639232
0.62296
0.595574
0.582223
0.558896
0.547677
0.527478
0.51594
1.44052
1.33518
1.24728
1.17202
1.10825
1.05166
1.00344
0.959661
0.921999
0.88603
0.853175
0.818937
0.783308
0.743286
0.703758
0.685638
0.653109
0.638499
0.610845
0.598699
0.585256
0.561485
0.549858
0.529285
0.517412
1.44048
1.33527
1.24703
1.17243
1.10755
1.05262
1.00221
0.960986
0.921031
0.882491
0.843423
0.793767
0.772763
0.732029
0.714567
0.679597
0.665026
0.634431
0.620674
0.605549
0.579632
0.566533
0.54433
0.533139
0.514753
1.41305
1.26583
1.14621
1.04821
0.965075
0.895513
0.834609
0.781791
0.736151
0.693897
0.652481
0.629414
0.590614
0.546299
0.5216
0.507189
0.485123
0.456978
0.439625
0.423729
0.409103
0.395626
0.38316
0.371564
0.360702
1.41302
1.26589
1.14614
1.0483
0.964987
0.895562
0.834636
0.781612
0.735865
0.695166
0.651063
0.62916
0.59569
0.551416
0.519575
0.503712
0.482363
0.462586
0.445137
0.428882
0.413719
0.399581
0.386354
0.373994
0.362456
1.41308
1.26577
1.14633
1.04805
0.965269
0.895342
0.834654
0.782175
0.735358
0.694334
0.659144
0.620083
0.579364
0.566314
0.5349
0.494825
0.477598
0.460859
0.444556
0.428849
0.413809
0.399622
0.386235
0.373747
0.362067
1.41305
1.26583
1.14623
1.04825
0.96493
0.895885
0.83396
0.782592
0.735727
0.693001
0.657703
0.628473
0.578933
0.550835
0.532845
0.501942
0.480598
0.462527
0.445483
0.429373
0.414161
0.399865
0.386444
0.373906
0.362234
1.41305
1.26584
1.14617
1.04836
0.96473
0.896162
0.833641
0.782685
0.735574
0.692234
0.661076
0.624122
0.573194
0.555328
0.536028
0.495308
0.47741
0.460322
0.443804
0.428058
0.413087
0.399021
0.385772
0.373417
0.361856
1.41301
1.26591
1.14613
1.04831
0.965004
0.895522
0.834638
0.78185
0.735043
0.696336
0.654684
0.61138
0.597129
0.560846
0.519544
0.497667
0.479318
0.461798
0.445232
0.429584
0.414755
0.400811
0.387621
0.37525
0.363596
1.41301
1.2659
1.14609
1.04842
0.964731
0.896062
0.833698
0.783012
0.734097
0.696226
0.657159
0.608458
0.598209
0.564858
0.520413
0.501514
0.482857
0.462072
0.444303
0.428097
0.413132
0.399335
0.386402
0.374253
0.362838
1.41303
1.26587
1.14615
1.04837
0.964752
0.896157
0.833434
0.783511
0.733541
0.696412
0.658906
0.604693
0.594298
0.565587
0.520783
0.502898
0.484947
0.460997
0.442607
0.426245
0.411293
0.397611
0.384848
0.372907
0.361668
1.41301
1.2659
1.14612
1.04834
0.964913
0.895712
0.834318
0.78221
0.735037
0.694744
0.65995
0.614507
0.587037
0.568673
0.525851
0.496689
0.479363
0.461232
0.444091
0.428124
0.413149
0.399141
0.385999
0.373702
0.362164
1.41306
1.26582
1.14622
1.04827
0.964888
0.895995
0.83361
0.783384
0.733743
0.696113
0.659483
0.605029
0.59322
0.567139
0.522736
0.502938
0.48507
0.46269
0.443838
0.427308
0.412186
0.398342
0.385435
0.373374
0.362043
1.41306
1.2658
1.14629
1.04814
0.965123
0.895615
0.834221
0.782623
0.735055
0.693221
0.662826
0.612486
0.578313
0.566482
0.524486
0.498084
0.480634
0.461637
0.44309
0.426273
0.410812
0.396618
0.383513
0.371417
0.360212
1.41306
1.26581
1.14628
1.04815
0.965098
0.895653
0.834175
0.782608
0.735055
0.693425
0.662435
0.612321
0.577601
0.565859
0.524139
0.497032
0.479673
0.461077
0.443099
0.426404
0.410964
0.396729
0.383557
0.371378
0.360132
1.41306
1.2658
1.14631
1.0481
0.965185
0.895504
0.834419
0.782269
0.735391
0.694635
0.658794
0.616938
0.592924
0.56927
0.525672
0.496606
0.479213
0.461162
0.443779
0.427473
0.412258
0.398118
0.384945
0.372691
0.361291
1.41302
1.26588
1.14614
1.04833
0.9649
0.895796
0.834094
0.782649
0.734083
0.697602
0.65116
0.619801
0.600754
0.560355
0.518922
0.504794
0.483072
0.459703
0.442959
0.42743
0.412866
0.399228
0.386332
0.374202
0.362767
1.41301
1.2659
1.14611
1.04839
0.964791
0.895971
0.833879
0.782758
0.734472
0.696683
0.65237
0.619844
0.600781
0.562372
0.518566
0.501508
0.481667
0.460451
0.44359
0.427964
0.413432
0.399822
0.386937
0.37481
0.363323
1.41299
1.26594
1.1461
1.04836
0.964895
0.895804
0.834071
0.782643
0.734686
0.694574
0.660648
0.610484
0.58437
0.56848
0.52823
0.495664
0.478003
0.460438
0.443787
0.428137
0.413502
0.399794
0.386851
0.374701
0.363254
1.41307
1.26578
1.14632
1.04804
0.965293
0.895324
0.834597
0.782412
0.734694
0.696186
0.653598
0.62952
0.589112
0.544153
0.534147
0.512501
0.475941
0.4565
0.440355
0.42535
0.411296
0.398031
0.385389
0.373441
0.362091
1.41304
1.26584
1.14619
1.04828
0.964932
0.895796
0.834131
0.782462
0.734821
0.696214
0.651824
0.630612
0.59104
0.544256
0.530172
0.511725
0.473707
0.456775
0.440851
0.425801
0.411522
0.397997
0.385165
0.373058
0.361636
1.41304
1.26585
1.14622
1.04822
0.965006
0.895772
0.833956
0.783018
0.734115
0.69708
0.650178
0.629293
0.594278
0.546561
0.529347
0.512217
0.474812
0.457723
0.441724
0.426787
0.41264
0.399229
0.386477
0.374393
0.362979
1.41299
1.26594
1.14615
1.04824
0.965104
0.895503
0.834414
0.782618
0.734199
0.696175
0.658269
0.607532
0.597116
0.564373
0.523423
0.496549
0.478393
0.461057
0.444592
0.428983
0.41417
0.40025
0.387109
0.374816
0.363255
1.41302
1.26518
1.14475
1.04565
0.961534
0.89088
0.828581
0.775387
0.726868
0.685578
0.646535
0.614084
0.581663
0.555118
0.52793
0.506687
0.483076
0.46521
0.444314
0.429916
0.411201
0.399757
0.382621
0.372847
0.355066
1.41302
1.26518
1.14475
1.04564
0.961542
0.890854
0.828629
0.7753
0.726945
0.685521
0.646531
0.614002
0.58184
0.555141
0.527971
0.506568
0.483032
0.465378
0.444555
0.430214
0.411433
0.399981
0.382749
0.373047
0.355144
1.41302
1.26518
1.14475
1.04564
0.961537
0.89087
0.828591
0.775362
0.726867
0.685564
0.646666
0.613746
0.581643
0.555433
0.528113
0.506373
0.482987
0.465428
0.444644
0.430251
0.41142
0.399995
0.382409
0.374607
0.352884
1.413
1.26522
1.14472
1.04569
0.961492
0.890928
0.828542
0.775384
0.726887
0.685456
0.6467
0.613889
0.581536
0.555181
0.528059
0.506361
0.482957
0.46537
0.444606
0.430225
0.411427
0.399935
0.382698
0.373007
0.355084
1.413
1.26521
1.14472
1.04569
0.961484
0.890936
0.828527
0.775388
0.726868
0.685478
0.646732
0.613831
0.581486
0.555328
0.528116
0.506427
0.482945
0.465401
0.44458
0.430251
0.411384
0.400013
0.382349
0.374541
0.352989
1.413
1.26522
1.1447
1.0457
0.961473
0.890919
0.828575
0.775312
0.726889
0.685571
0.64651
0.613765
0.58192
0.555269
0.527971
0.506408
0.482965
0.465375
0.444623
0.430349
0.411531
0.400197
0.38254
0.374727
0.353154
1.413
1.26522
1.14469
1.04571
0.961453
0.890951
0.828524
0.775365
0.72685
0.685563
0.646579
0.613698
0.581936
0.555317
0.528022
0.506506
0.483049
0.465383
0.444658
0.43036
0.411589
0.400138
0.382815
0.373165
0.355143
1.41298
1.26525
1.14469
1.04573
0.961455
0.890961
0.828516
0.775394
0.726823
0.68558
0.64659
0.613625
0.581863
0.555282
0.527981
0.506505
0.483077
0.465336
0.444584
0.430249
0.41148
0.400076
0.38243
0.374617
0.352875
1.41298
1.26525
1.14468
1.04573
0.961462
0.890928
0.828571
0.775327
0.726859
0.685541
0.646624
0.613653
0.581802
0.555401
0.528001
0.506403
0.483025
0.465345
0.444581
0.430192
0.411405
0.399968
0.382342
0.374524
0.352767
1.41299
1.26523
1.1447
1.04572
0.961459
0.890967
0.828497
0.775427
0.726794
0.685619
0.646586
0.613651
0.58184
0.555328
0.527991
0.506497
0.4831
0.465354
0.444585
0.430201
0.411427
0.399988
0.382349
0.374521
0.352714
1.41299
1.26523
1.14471
1.0457
0.961481
0.890937
0.828531
0.775399
0.726839
0.685528
0.646721
0.613635
0.581668
0.555373
0.527973
0.506417
0.483021
0.465335
0.444453
0.430084
0.411218
0.399858
0.382184
0.374373
0.352773
1.41299
1.26524
1.14469
1.04572
0.961447
0.890966
0.828494
0.775406
0.726818
0.685537
0.646689
0.61364
0.581678
0.555365
0.528002
0.506392
0.483066
0.46535
0.444534
0.430085
0.411292
0.399773
0.382521
0.372774
0.354888
1.413
1.26522
1.14471
1.0457
0.961464
0.890955
0.828502
0.775403
0.726835
0.685571
0.646577
0.613767
0.581863
0.555422
0.528008
0.506386
0.483072
0.465396
0.444615
0.430194
0.411424
0.39992
0.382696
0.372942
0.355091
1.413
1.26522
1.14469
1.04572
0.961433
0.890988
0.828469
0.775428
0.726775
0.685648
0.646458
0.613868
0.581939
0.555241
0.528039
0.50658
0.483094
0.465396
0.444663
0.430331
0.411569
0.400095
0.382816
0.373107
0.355185
1.413
1.26522
1.14469
1.04572
0.961432
0.890995
0.82846
0.775437
0.726792
0.685618
0.64648
0.613863
0.58194
0.555277
0.527983
0.506509
0.482982
0.465396
0.444644
0.430419
0.41158
0.40026
0.382541
0.37472
0.353208
1.41298
1.26526
1.14467
1.04575
0.961431
0.890978
0.828494
0.775411
0.72678
0.685582
0.646599
0.613673
0.581718
0.555394
0.528047
0.506442
0.482944
0.465364
0.44461
0.430378
0.411565
0.400194
0.382784
0.373314
0.3551
1.41301
1.2652
1.14472
1.04567
0.961498
0.890904
0.828558
0.775375
0.726847
0.685547
0.646618
0.613956
0.58168
0.555137
0.528302
0.506651
0.483012
0.465285
0.444586
0.430218
0.411457
0.400002
0.382382
0.374567
0.352795
1.413
1.26522
1.1447
1.04571
0.961456
0.890963
0.828505
0.775397
0.726843
0.685543
0.646565
0.614006
0.581687
0.5551
0.528233
0.506613
0.482993
0.465319
0.444577
0.430222
0.411415
0.399995
0.382373
0.374564
0.352841
1.413
1.26522
1.14471
1.0457
0.961471
0.890952
0.828505
0.775428
0.726822
0.685566
0.646537
0.614007
0.581711
0.555135
0.528144
0.506646
0.482944
0.465367
0.444554
0.430306
0.41145
0.400063
0.382679
0.373167
0.355005
1.41298
1.26525
1.14469
1.04572
0.961474
0.890927
0.828554
0.7754
0.726819
0.685651
0.646555
0.613719
0.581913
0.555377
0.528016
0.506404
0.483009
0.465345
0.444624
0.430269
0.411523
0.400137
0.382564
0.374766
0.35299
1.41303
1.26515
1.14475
1.04554
0.961476
0.890684
0.828419
0.775133
0.726518
0.685259
0.646059
0.613439
0.581036
0.554772
0.527439
0.506051
0.482492
0.464999
0.444215
0.429997
0.411238
0.399848
0.382654
0.372878
0.355107
1.41301
1.26518
1.14471
1.04559
0.961414
0.890749
0.828356
0.77515
0.726491
0.685227
0.646067
0.61339
0.581054
0.554751
0.527433
0.506067
0.482461
0.465041
0.444185
0.430038
0.411206
0.399874
0.382604
0.372943
0.355027
1.41303
1.26515
1.14473
1.04556
0.961443
0.890722
0.828373
0.77515
0.726495
0.685244
0.64607
0.613406
0.581046
0.55478
0.527425
0.506081
0.482459
0.465058
0.444202
0.430059
0.411219
0.399954
0.382334
0.374582
0.352846
1.41302
1.26517
1.14471
1.04559
0.961409
0.890755
0.828344
0.775157
0.726484
0.685231
0.646071
0.6134
0.581047
0.554778
0.527427
0.506088
0.482464
0.465066
0.444222
0.430075
0.411271
0.399925
0.382688
0.373009
0.355112
1.41302
1.26516
1.14472
1.04557
0.961435
0.890722
0.828382
0.77513
0.726504
0.685231
0.646053
0.61343
0.580999
0.554823
0.527379
0.506127
0.482432
0.465105
0.444206
0.430134
0.411264
0.400015
0.382657
0.373192
0.355044
1.41302
1.26517
1.1447
1.0456
0.961392
0.890769
0.828329
0.775157
0.726476
0.68523
0.646063
0.613402
0.581053
0.554787
0.527437
0.5061
0.482488
0.465079
0.444256
0.430108
0.411308
0.400033
0.38244
0.374698
0.352911
1.41302
1.26517
1.14471
1.04559
0.961413
0.890749
0.828356
0.775141
0.7265
0.685217
0.646078
0.613383
0.581055
0.554757
0.527428
0.506066
0.482469
0.465043
0.444227
0.430077
0.411265
0.399995
0.382376
0.374627
0.352894
1.413
1.2652
1.1447
1.0456
0.961416
0.890743
0.828376
0.775125
0.726516
0.68519
0.646087
0.61334
0.581063
0.554706
0.527436
0.506017
0.482472
0.464998
0.444213
0.430024
0.411247
0.399874
0.382638
0.372927
0.355053
1.41297
1.26525
1.14464
1.04567
0.961345
0.89082
0.8283
0.775172
0.726448
0.685214
0.646024
0.613356
0.581002
0.554726
0.527388
0.506034
0.482451
0.46502
0.444219
0.43005
0.411266
0.39991
0.38266
0.372975
0.355075
1.41297
1.26525
1.14463
1.04568
0.961316
0.890864
0.828238
0.775235
0.726383
0.685278
0.645975
0.613408
0.580975
0.554757
0.527375
0.506053
0.482442
0.465025
0.444209
0.430048
0.411243
0.399956
0.382338
0.37458
0.352799
1.41297
1.26526
1.14463
1.04569
0.96131
0.890866
0.828242
0.775223
0.726388
0.685262
0.645976
0.613399
0.580963
0.554764
0.527358
0.506073
0.482425
0.465063
0.444191
0.430094
0.41122
0.400005
0.382331
0.374574
0.352975
1.41298
1.26524
1.14464
1.04568
0.961311
0.890861
0.828234
0.775227
0.726379
0.685273
0.645974
0.613411
0.580983
0.554773
0.527397
0.506079
0.482474
0.465061
0.44424
0.430071
0.41127
0.399908
0.382645
0.372954
0.355058
1.41299
1.26523
1.14464
1.04567
0.961316
0.890862
0.828228
0.77524
0.72637
0.685292
0.645969
0.613426
0.580988
0.554777
0.527402
0.506073
0.482477
0.465055
0.444245
0.430068
0.411276
0.399909
0.382653
0.37295
0.355077
1.41301
1.26519
1.14468
1.04563
0.961357
0.890825
0.82826
0.775235
0.726388
0.685307
0.645984
0.613444
0.580999
0.55478
0.527404
0.506072
0.482465
0.465039
0.444229
0.430055
0.411267
0.399903
0.382648
0.372947
0.355077
1.41299
1.26522
1.14466
1.04566
0.961333
0.890848
0.828244
0.775237
0.72638
0.685296
0.645971
0.613433
0.580978
0.554776
0.527379
0.50607
0.48244
0.46504
0.444209
0.430064
0.411254
0.399921
0.382638
0.372996
0.355046
1.41299
1.26523
1.14466
1.04565
0.961349
0.890823
0.828279
0.775203
0.726413
0.685259
0.645997
0.613396
0.580994
0.554752
0.527396
0.506056
0.482455
0.465039
0.444224
0.430077
0.411273
0.400001
0.382385
0.374638
0.352885
1.41301
1.26519
1.1447
1.0456
0.961406
0.890759
0.828343
0.775168
0.726462
0.685248
0.646035
0.613401
0.581026
0.554752
0.527432
0.506057
0.482472
0.465032
0.444215
0.430056
0.411233
0.399956
0.382328
0.374568
0.352794
1.41299
1.26522
1.14466
1.04565
0.961351
0.89082
0.828283
0.775204
0.726415
0.685269
0.645996
0.613425
0.580991
0.554783
0.527398
0.506098
0.482446
0.465076
0.444194
0.430091
0.41122
0.399935
0.382592
0.373052
0.354968
1.41301
1.26519
1.14469
1.04561
0.961383
0.890795
0.828295
0.775218
0.726412
0.685303
0.645996
0.613457
0.581001
0.554799
0.52741
0.506092
0.482453
0.465047
0.44419
0.430035
0.41121
0.39986
0.382596
0.372898
0.355021
1.41302
1.26517
1.14471
1.04559
0.961402
0.890774
0.828314
0.775225
0.726441
0.685331
0.646031
0.613487
0.581048
0.554835
0.52746
0.506119
0.482514
0.465093
0.444248
0.430121
0.411254
0.400035
0.382365
0.37461
0.352993
1.41303
1.26515
1.14471
1.04554
0.961387
0.8907
0.828289
0.77512
0.726398
0.685212
0.645967
0.613375
0.580956
0.554726
0.527358
0.506013
0.482412
0.464977
0.444164
0.429992
0.411204
0.399844
0.382614
0.372886
0.355049
1.41302
1.26517
1.14469
1.04557
0.961356
0.890738
0.828253
0.775135
0.726378
0.685195
0.645969
0.613334
0.58096
0.554686
0.527337
0.505992
0.482356
0.464975
0.444079
0.430001
0.411092
0.399911
0.382213
0.374461
0.352938
1.41302
1.26516
1.1447
1.04556
0.96137
0.890722
0.828275
0.775119
0.726401
0.685178
0.645992
0.613312
0.580981
0.554657
0.527354
0.505948
0.482368
0.464909
0.444088
0.429914
0.411112
0.39977
0.38252
0.372859
0.354938
1.41302
1.26517
1.14469
1.04557
0.961362
0.890729
0.828265
0.775125
0.72639
0.685182
0.645979
0.61332
0.58097
0.554671
0.527353
0.50597
0.482383
0.464942
0.444124
0.429961
0.411154
0.399873
0.382256
0.374502
0.352717
1.41301
1.26518
1.14468
1.04558
0.961359
0.890732
0.828265
0.775126
0.726381
0.685188
0.645953
0.61333
0.580933
0.554684
0.527319
0.505986
0.482361
0.464965
0.44411
0.429998
0.411138
0.39992
0.382255
0.374501
0.352895
1.41301
1.26518
1.14468
1.04559
0.961349
0.890746
0.828249
0.775141
0.726363
0.685209
0.645933
0.613357
0.580904
0.554708
0.527278
0.505998
0.482316
0.464962
0.444073
0.429986
0.411125
0.399868
0.382523
0.373038
0.354918
1.413
1.2652
1.14467
1.0456
0.961346
0.890746
0.828263
0.775119
0.726389
0.685165
0.645962
0.613296
0.580931
0.554641
0.527298
0.505942
0.482334
0.464926
0.444094
0.429969
0.411149
0.399861
0.38255
0.373012
0.354974
1.41297
1.26524
1.14464
1.04564
0.961323
0.890764
0.828263
0.775102
0.7264
0.685122
0.645978
0.613235
0.580958
0.554572
0.527338
0.505878
0.482368
0.464872
0.444105
0.429911
0.411134
0.399772
0.382521
0.372827
0.354961
1.41296
1.26527
1.14461
1.04567
0.961289
0.890796
0.828235
0.775109
0.726384
0.685115
0.645963
0.613234
0.580936
0.554581
0.527314
0.505889
0.482356
0.464885
0.444123
0.429938
0.41119
0.399824
0.382623
0.372881
0.355089
1.41296
1.26526
1.14461
1.04568
0.961263
0.890834
0.828175
0.775169
0.726316
0.685188
0.645903
0.61331
0.580892
0.554653
0.527286
0.505947
0.482342
0.464921
0.444114
0.429957
0.411182
0.39984
0.382608
0.372937
0.355043
1.41297
1.26525
1.1446
1.04568
0.961245
0.890859
0.828138
0.775208
0.726274
0.685229
0.645874
0.613346
0.580879
0.554688
0.52728
0.505985
0.482333
0.464964
0.444097
0.430004
0.411151
0.3999
0.382547
0.373087
0.354945
1.41301
1.26519
1.14465
1.04562
0.961291
0.890812
0.828168
0.775194
0.726302
0.685241
0.645909
0.613375
0.580919
0.554722
0.527321
0.506013
0.482371
0.46498
0.444125
0.430001
0.411154
0.399918
0.382264
0.374513
0.352894
1.41301
1.26519
1.14464
1.04563
0.96127
0.890834
0.828139
0.775215
0.726274
0.685263
0.64589
0.613398
0.580917
0.55474
0.527338
0.506023
0.4824
0.464978
0.444152
0.429987
0.411172
0.399886
0.382259
0.3745
0.352731
1.41301
1.26519
1.14465
1.04562
0.961287
0.890818
0.828157
0.775209
0.726283
0.685265
0.645889
0.613399
0.58091
0.554735
0.527329
0.506013
0.482391
0.464966
0.444143
0.429977
0.411163
0.399879
0.382252
0.374492
0.352725
1.41299
1.26522
1.14463
1.04566
0.961265
0.890841
0.82815
0.775202
0.726288
0.685233
0.645891
0.613358
0.580894
0.5547
0.52729
0.505993
0.482337
0.464965
0.444092
0.429998
0.411125
0.399924
0.38225
0.374501
0.352948
1.413
1.26521
1.14465
1.04563
0.9613
0.890796
0.828196
0.775166
0.726329
0.685203
0.645928
0.61333
0.580933
0.554676
0.527336
0.505981
0.482386
0.464972
0.44414
0.43002
0.411188
0.399907
0.38258
0.373051
0.354979
1.413
1.26519
1.14466
1.04561
0.961312
0.890784
0.828208
0.775159
0.726344
0.685199
0.645949
0.613322
0.580957
0.554665
0.527353
0.505971
0.482387
0.46496
0.444122
0.429999
0.411156
0.399885
0.382548
0.373049
0.354953
1.41299
1.26521
1.14465
1.04562
0.961315
0.890775
0.828233
0.775133
0.726369
0.685172
0.645957
0.613308
0.580944
0.554666
0.527327
0.505973
0.48236
0.464944
0.444103
0.429954
0.411148
0.399808
0.382567
0.372877
0.355006
1.41299
1.26521
1.14466
1.04562
0.961323
0.890779
0.82822
0.775166
0.726339
0.685218
0.645921
0.613346
0.580911
0.554684
0.527301
0.505967
0.48233
0.464918
0.44405
0.429912
0.411052
0.399756
0.382406
0.37288
0.354821
1.41298
1.26523
1.14464
1.04563
0.961321
0.890771
0.828245
0.775152
0.726379
0.68521
0.645945
0.613356
0.58092
0.5547
0.527319
0.50598
0.482382
0.464945
0.444147
0.429975
0.411201
0.39985
0.382626
0.372936
0.355059
1.41301
1.26518
1.14467
1.04556
0.961353
0.890677
0.828289
0.775029
0.726424
0.685077
0.645993
0.613238
0.580961
0.55462
0.527341
0.505945
0.482379
0.464942
0.444116
0.429981
0.411139
0.399847
0.382508
0.37297
0.354914
1.41301
1.26518
1.14468
1.04556
0.961345
0.890701
0.828249
0.775079
0.726369
0.685125
0.645954
0.613253
0.580947
0.554599
0.527332
0.505908
0.482352
0.464893
0.444064
0.429912
0.411066
0.39976
0.382424
0.372877
0.354834
1.413
1.26519
1.14466
1.04559
0.961319
0.89073
0.828226
0.775086
0.72636
0.685115
0.645954
0.61324
0.580946
0.554592
0.527328
0.505901
0.482351
0.464879
0.444071
0.429892
0.411085
0.399743
0.382469
0.372819
0.354893
1.41302
1.26516
1.14468
1.04556
0.961338
0.890714
0.828234
0.77509
0.726362
0.685135
0.645954
0.613268
0.580941
0.554617
0.527312
0.505917
0.48233
0.464892
0.444065
0.429915
0.4111
0.399834
0.382221
0.374467
0.352686
1.413
1.2652
1.14466
1.0456
0.961312
0.890745
0.828205
0.775113
0.726333
0.68514
0.64593
0.613244
0.580929
0.554571
0.527316
0.505867
0.482348
0.464849
0.44409
0.429889
0.41113
0.399827
0.382258
0.37451
0.352665
1.41299
1.26522
1.14464
1.04562
0.961296
0.890762
0.828196
0.775116
0.72632
0.685142
0.645903
0.613252
0.580887
0.554585
0.527263
0.505886
0.482291
0.464879
0.444041
0.429938
0.411086
0.39989
0.382227
0.374483
0.352926
1.413
1.26519
1.14467
1.04558
0.961332
0.890714
0.828238
0.775081
0.726356
0.685123
0.645934
0.613251
0.580918
0.554599
0.527303
0.505914
0.482346
0.464919
0.444103
0.42998
0.411146
0.399873
0.382518
0.373014
0.354915
1.41299
1.26522
1.14464
1.04561
0.961304
0.890745
0.828217
0.775086
0.726353
0.685106
0.645941
0.61322
0.580928
0.554556
0.527313
0.505864
0.482351
0.46487
0.444101
0.429927
0.411125
0.39985
0.382209
0.37445
0.352713
1.41297
1.26525
1.14462
1.04564
0.961289
0.890758
0.828214
0.775084
0.726348
0.685092
0.64593
0.613198
0.580915
0.554531
0.527302
0.505837
0.482344
0.464846
0.4441
0.429916
0.411156
0.399812
0.382575
0.372894
0.355005
1.41295
1.26527
1.14458
1.04569
0.961231
0.890825
0.828143
0.775133
0.726289
0.685123
0.645887
0.613221
0.580885
0.554551
0.527279
0.505851
0.482323
0.464849
0.444082
0.429914
0.411132
0.399866
0.382262
0.374521
0.352776
1.41295
1.26528
1.14458
1.0457
0.961215
0.890847
0.828117
0.775159
0.726261
0.685151
0.64586
0.613248
0.580865
0.554572
0.527267
0.505855
0.482315
0.464827
0.444065
0.429868
0.411101
0.399807
0.382223
0.374477
0.352658
1.41298
1.26524
1.14461
1.04566
0.961237
0.890828
0.828121
0.775168
0.726264
0.685172
0.645881
0.61327
0.580898
0.554596
0.527297
0.505879
0.482328
0.46484
0.444054
0.429857
0.411063
0.399765
0.382157
0.374399
0.352606
1.413
1.2652
1.14464
1.04562
0.961267
0.890801
0.828136
0.775171
0.726267
0.685202
0.64588
0.613312
0.580899
0.554629
0.527301
0.505893
0.482335
0.464847
0.444068
0.429872
0.411101
0.399741
0.382509
0.3728
0.35493
1.41301
1.26519
1.14466
1.0456
0.961293
0.890771
0.828167
0.775152
0.726287
0.685199
0.645883
0.613321
0.580895
0.554638
0.527303
0.505899
0.482347
0.464852
0.444078
0.429873
0.411101
0.39973
0.38249
0.372762
0.354921
1.41297
1.26525
1.1446
1.04567
0.961233
0.890832
0.828129
0.775154
0.72628
0.685151
0.645891
0.613247
0.580896
0.554569
0.527281
0.505848
0.482303
0.464807
0.444026
0.429821
0.41105
0.399678
0.38245
0.372728
0.354899
1.413
1.26519
1.14467
1.04558
0.96133
0.890724
0.828228
0.775103
0.726339
0.685152
0.645915
0.613271
0.580911
0.554594
0.527309
0.505876
0.482343
0.464853
0.444077
0.429886
0.411108
0.399754
0.382502
0.372813
0.35494
1.41301
1.26518
1.14467
1.04558
0.961322
0.890736
0.828217
0.775103
0.726353
0.685133
0.645956
0.613239
0.580955
0.554562
0.527331
0.505851
0.482338
0.464829
0.444048
0.429855
0.411056
0.399774
0.382161
0.374414
0.352679
1.41299
1.26522
1.14463
1.04562
0.961285
0.890769
0.828194
0.775103
0.726346
0.685112
0.645955
0.613225
0.58095
0.554569
0.527323
0.505869
0.482333
0.464839
0.444043
0.429852
0.411045
0.399757
0.382146
0.374396
0.352629
1.41299
1.26521
1.14464
1.04561
0.961288
0.890773
0.82818
0.77513
0.726319
0.685152
0.645928
0.613263
0.58093
0.554597
0.52731
0.505884
0.482318
0.464843
0.444012
0.429849
0.410986
0.399744
0.382077
0.37432
0.352721
1.41295
1.26527
1.14458
1.0457
0.961206
0.890865
0.82809
0.775215
0.726236
0.685236
0.645838
0.613348
0.580851
0.554662
0.527273
0.505916
0.482338
0.46486
0.444092
0.429881
0.411122
0.399811
0.382239
0.374496
0.35267
1.41299
1.26522
1.14463
1.04562
0.961273
0.89076
0.828159
0.775118
0.726278
0.685149
0.645859
0.613271
0.580848
0.554605
0.527247
0.505885
0.4823
0.464853
0.444056
0.429884
0.411092
0.399805
0.382203
0.374454
0.352657
1.41299
1.26522
1.14463
1.04561
0.961283
0.89074
0.828185
0.775078
0.726311
0.685096
0.645897
0.613214
0.580889
0.554562
0.527282
0.505874
0.482324
0.464865
0.444067
0.429895
0.411094
0.399746
0.382478
0.372797
0.354891
1.41301
1.26518
1.14466
1.04557
0.961314
0.890713
0.828206
0.775076
0.726327
0.68511
0.645918
0.61323
0.580911
0.554565
0.527286
0.505857
0.482301
0.464826
0.444021
0.429847
0.411039
0.399768
0.382156
0.374411
0.352669
1.41303
1.26515
1.14468
1.04555
0.961326
0.890704
0.828202
0.775086
0.726321
0.68513
0.645918
0.613258
0.580917
0.554605
0.527292
0.505905
0.482301
0.464877
0.444016
0.429901
0.41104
0.399781
0.382434
0.372952
0.354825
1.413
1.2652
1.14465
1.04559
0.961299
0.890729
0.828194
0.775079
0.726324
0.685097
0.645919
0.613205
0.580913
0.55454
0.527292
0.50584
0.482308
0.464819
0.444026
0.429847
0.411039
0.39977
0.382151
0.374402
0.352676
1.41299
1.26522
1.14464
1.04561
0.961292
0.890736
0.828197
0.775072
0.726328
0.685083
0.645917
0.613186
0.580905
0.554512
0.527283
0.50581
0.482306
0.464799
0.444038
0.429836
0.411067
0.3997
0.382462
0.372753
0.354889
1.41301
1.26519
1.14466
1.04557
0.961313
0.890708
0.828209
0.775061
0.726334
0.685087
0.645926
0.6132
0.580927
0.554541
0.527324
0.50586
0.482367
0.464875
0.444113
0.429931
0.411144
0.399791
0.382519
0.372817
0.35494
1.413
1.2652
1.14466
1.04557
0.961325
0.890692
0.828229
0.775052
0.726333
0.685088
0.645901
0.613202
0.580894
0.554538
0.527294
0.505859
0.482336
0.464886
0.444079
0.429954
0.411095
0.399876
0.382189
0.374423
0.352817
1.41295
1.26528
1.14458
1.04567
0.961241
0.890783
0.828156
0.775085
0.726284
0.685067
0.645867
0.613149
0.580861
0.55448
0.527265
0.505804
0.482326
0.464832
0.444089
0.429897
0.411129
0.399762
0.382517
0.372792
0.354948
1.41296
1.26527
1.14459
1.04567
0.961229
0.890793
0.828138
0.775096
0.726273
0.685088
0.64586
0.613194
0.580855
0.554542
0.527255
0.505868
0.482309
0.464889
0.444068
0.429962
0.411112
0.399862
0.382486
0.373026
0.354867
1.41299
1.26521
1.14464
1.0456
0.961301
0.890719
0.828215
0.775055
0.726337
0.685076
0.64591
0.613193
0.580893
0.554532
0.527278
0.505833
0.482314
0.464824
0.444056
0.429876
0.411088
0.399813
0.382211
0.374462
0.352686
1.41299
1.26521
1.14463
1.04562
0.961267
0.890768
0.828147
0.775116
0.726274
0.685128
0.645873
0.613227
0.580875
0.554554
0.527266
0.505852
0.482299
0.464845
0.444035
0.429899
0.411058
0.399832
0.382184
0.37443
0.352799
1.413
1.2652
1.14464
1.0456
0.96128
0.890757
0.828152
0.775122
0.726267
0.685146
0.645861
0.613244
0.580872
0.554559
0.527277
0.505842
0.482317
0.464821
0.444053
0.42986
0.411084
0.399731
0.382484
0.372801
0.354916
1.413
1.26519
1.14466
1.04558
0.961304
0.890735
0.828177
0.775115
0.726283
0.685159
0.645864
0.61327
0.580864
0.554576
0.527263
0.505834
0.4823
0.464792
0.444033
0.429823
0.411063
0.399691
0.382462
0.372727
0.354915
1.413
1.2652
1.14466
1.04559
0.961306
0.890735
0.828183
0.775109
0.726296
0.685138
0.645881
0.613232
0.580871
0.554538
0.527249
0.505814
0.482272
0.464796
0.444002
0.429851