/*--------------------------------*- C++ -*----------------------------------*\
  =========                 |
  \\      /  F ield         | OpenFOAM: The Open Source CFD Toolbox
   \\    /   O peration     | Website:  https://openfoam.org
    \\  /    A nd           | Version:  12
     \\/     M anipulation  |
\*---------------------------------------------------------------------------*/
FoamFile
{
    format      ascii;
    class       volScalarField;
    location    "50";
    object      nut;
}
// * * * * * * * * * * * * * * * * * * * * * * * * * * * * * * * * * * * * * //

dimensions      [0 2 -1 0 0 0 0];

internalField   nonuniform List<scalar> 
5000
(
1.5
1.5
1.49998
1.5
1.49967
1.5
1.49672
1.5
1.45295
1.5
1.38654
1.4383
1.33425
1.37927
1.28198
1.31724
1.31358
1.23634
1.26079
1.19251
1.21652
1.15343
1.14749
1.16791
1.12625
1.49998
1.5
1.49995
1.49999
1.5
1.4989
1.5
1.5
1.49888
1.5
1.39007
1.43458
1.33128
1.37517
1.28242
1.32422
1.24848
1.24639
1.26925
1.20311
1.22285
1.16231
1.18215
1.12768
1.13791
1.49998
1.5
1.49998
1.49991
1.5
1.49944
1.4996
1.5
1.5
1.49277
1.47613
1.36345
1.40372
1.30718
1.34805
1.26154
1.30012
1.22891
1.22629
1.24788
1.18556
1.20435
1.14737
1.16415
1.1255
1.49997
1.5
1.49983
1.5
1.49954
1.5
1.49982
1.4993
1.49406
1.5
1.39028
1.43719
1.33234
1.37709
1.28497
1.32702
1.24606
1.25378
1.27253
1.20589
1.22432
1.16433
1.18316
1.12858
1.13836
1.49998
1.5
1.49988
1.5
1.49988
1.49926
1.5
1.46924
1.5
1.41497
1.46658
1.35695
1.40476
1.30694
1.35098
1.26493
1.27012
1.29204
1.22228
1.24316
1.17969
1.20038
1.14275
1.16322
1.11154
1.49996
1.5
1.49985
1.5
1.49954
1.5
1.4992
1.49822
1.5
1.45259
1.48164
1.36707
1.40961
1.31108
1.35136
1.26291
1.30256
1.23115
1.22753
1.24987
1.18611
1.20562
1.14868
1.16587
1.12448
1.5
1.49999
1.5
1.49995
1.49997
1.5
1.49974
1.4993
1.5
1.47097
1.46907
1.40971
1.4247
1.39402
1.30186
1.32927
1.24841
1.278
1.20628
1.23476
1.17029
1.16559
1.18738
1.13359
1.14233
1.5
1.49998
1.49999
1.5
1.5
1.49965
1.5
1.49473
1.5
1.42044
1.47171
1.35934
1.41436
1.32035
1.35633
1.33678
1.25437
1.28162
1.20951
1.23565
1.17172
1.16597
1.18719
1.13309
1.14183
1.49998
1.5
1.49992
1.5
1.5
1.49937
1.5
1.49911
1.5
1.47836
1.47484
1.44947
1.34379
1.37971
1.29207
1.32556
1.24423
1.27738
1.2057
1.20072
1.22423
1.16452
1.18557
1.13141
1.1413
1.5
1.49996
1.5
1.5
1.5
1.49958
1.5
1.49445
1.5
1.41272
1.47281
1.36223
1.41089
1.31451
1.34988
1.33722
1.25558
1.28141
1.21032
1.23534
1.17178
1.16571
1.1869
1.13248
1.14026
1.5
1.5
1.49992
1.5
1.49945
1.5
1.4941
1.5
1.41905
1.49869
1.38006
1.43602
1.33009
1.38121
1.28998
1.32371
1.31501
1.23778
1.26116
1.19343
1.21682
1.15579
1.17882
1.12305
1.12215
1.5
1.5
1.49993
1.5
1.49946
1.5
1.49416
1.5
1.4193
1.49881
1.38378
1.43624
1.32864
1.37993
1.28671
1.31995
1.31536
1.23848
1.26182
1.19407
1.21728
1.15605
1.17876
1.12284
1.12172
1.49999
1.5
1.5
1.49996
1.5
1.49933
1.5
1.4993
1.49932
1.48167
1.4731
1.45021
1.34351
1.37938
1.28882
1.32384
1.24747
1.24295
1.26595
1.19952
1.22035
1.15988
1.18066
1.12548
1.13615
1.49998
1.5
1.5
1.49992
1.5
1.49953
1.49992
1.5
1.48247
1.5
1.39704
1.44036
1.4183
1.31984
1.35239
1.26616
1.30012
1.2249
1.2198
1.24365
1.1809
1.20237
1.14522
1.16409
1.12275
1.5
1.49999
1.5
1.49993
1.5
1.5
1.49954
1.5
1.5
1.49373
1.42484
1.44827
1.42052
1.32338
1.35372
1.26695
1.2998
1.22294
1.25414
1.18689
1.18211
1.20522
1.14815
1.16751
1.12374
1.5
1.49995
1.5
1.49982
1.5
1.49982
1.4997
1.5
1.4908
1.5
1.39165
1.44325
1.34728
1.38584
1.36419
1.2756
1.3044
1.22829
1.25618
1.18768
1.18234
1.20484
1.14771
1.16752
1.12196
1.49998
1.5
1.49999
1.49991
1.5
1.49952
1.5
1.5
1.49832
1.4873
1.44589
1.4508
1.42199
1.32317
1.35412
1.26983
1.30061
1.22452
1.25511
1.18712
1.18232
1.20503
1.14838
1.16762
1.12258
1.49999
1.5
1.5
1.49995
1.5
1.49929
1.5
1.49897
1.49813
1.48455
1.45971
1.45644
1.35536
1.38709
1.29515
1.32914
1.24942
1.24349
1.26668
1.19951
1.2215
1.16146
1.1822
1.12749
1.13813
1.5
1.49992
1.5
1.49994
1.49995
1.5
1.49959
1.49997
1.5
1.47851
1.45889
1.43436
1.42103
1.39285
1.29849
1.32818
1.24729
1.2773
1.20652
1.20111
1.22449
1.1646
1.18506
1.13057
1.14058
1.49995
1.5
1.49986
1.5
1.49969
1.5
1.4998
1.4989
1.5
1.48018
1.4841
1.36803
1.40995
1.3118
1.35206
1.26389
1.30241
1.22862
1.22454
1.24818
1.18579
1.20542
1.14845
1.16602
1.12394
1.49998
1.5
1.49996
1.5
1.5
1.49966
1.49402
1.48864
1.4779
1.47788
1.46294
1.5
1.48586
1.38219
1.36279
1.38932
1.37141
1.30982
1.3017
1.29466
1.28915
1.28415
1.27992
1.27644
1.27295
1.49997
1.5
1.49997
1.49996
1.5
1.49944
1.49245
1.48903
1.47781
1.47332
1.47479
1.49943
1.5
1.40504
1.35124
1.37158
1.35629
1.34131
1.33268
1.32385
1.31566
1.30741
1.29981
1.2921
1.28521
1.5
1.5
1.5
1.5
1.5
1.5
1.49505
1.48673
1.48415
1.4704
1.46889
1.5
1.43921
1.48634
1.43538
1.32624
1.3304
1.33044
1.32687
1.32118
1.31345
1.30548
1.29688
1.28902
1.28116
1.49999
1.5
1.4999
1.5
1.49974
1.5
1.49286
1.48929
1.47684
1.48774
1.47125
1.49355
1.4398
1.41114
1.42757
1.36785
1.34925
1.34158
1.33382
1.32509
1.31632
1.30714
1.29849
1.28984
1.28225
1.49996
1.5
1.49981
1.5
1.49964
1.5
1.49162
1.48705
1.48171
1.47974
1.46277
1.5
1.40704
1.4284
1.44061
1.32877
1.3295
1.32842
1.32407
1.31837
1.31109
1.30381
1.29596
1.28874
1.28138
1.49997
1.5
1.49999
1.49994
1.5
1.49956
1.49259
1.48783
1.48065
1.46903
1.47975
1.41564
1.5
1.45149
1.3511
1.33902
1.33838
1.33489
1.33014
1.32484
1.3183
1.31176
1.30444
1.29742
1.29006
1.49995
1.5
1.49987
1.5
1.49987
1.5
1.48932
1.49159
1.47932
1.46077
1.5
1.42411
1.49225
1.4675
1.35464
1.36138
1.36192
1.34273
1.33204
1.32337
1.31514
1.30785
1.30115
1.2941
1.28754
1.49996
1.5
1.49985
1.5
1.49964
1.5
1.4892
1.49134
1.48066
1.46071
1.5
1.42535
1.47106
1.46863
1.35189
1.36286
1.36785
1.33193
1.31857
1.30971
1.30217
1.29605
1.29074
1.28529
1.27991
1.49996
1.5
1.49993
1.5
1.5
1.49976
1.49184
1.48809
1.48045
1.47202
1.49409
1.45248
1.44207
1.48397
1.38029
1.33308
1.33899
1.33409
1.3271
1.31987
1.31275
1.30525
1.29815
1.29091
1.28397
1.49997
1.5
1.49987
1.5
1.49964
1.5
1.4898
1.49125
1.4803
1.46632
1.49399
1.43198
1.46412
1.47883
1.36391
1.36474
1.36941
1.34207
1.32596
1.31615
1.30767
1.30066
1.29455
1.28841
1.28245
1.5
1.5
1.49997
1.5
1.49984
1.5
1.49324
1.4879
1.48482
1.45614
1.5
1.46315
1.40709
1.47472
1.37171
1.33699
1.34199
1.33244
1.31858
1.30722
1.29767
1.2892
1.28222
1.27583
1.27031
1.5
1.5
1.49997
1.5
1.49983
1.5
1.49261
1.48834
1.48444
1.45678
1.5
1.46245
1.40641
1.47265
1.37106
1.33261
1.3378
1.32997
1.31913
1.30839
1.29896
1.29029
1.28296
1.27608
1.27032
1.5
1.49999
1.49999
1.5
1.49988
1.5
1.4926
1.48953
1.48152
1.46966
1.49376
1.46453
1.47335
1.48841
1.38082
1.33415
1.33953
1.33447
1.32657
1.31765
1.30916
1.30075
1.29321
1.28579
1.27936
1.49996
1.5
1.49991
1.5
1.49997
1.5
1.49016
1.4924
1.47396
1.47453
1.49337
1.45326
1.5
1.44596
1.34509
1.37516
1.35992
1.32526
1.32012
1.31557
1.31034
1.30526
1.29929
1.29335
1.28701
1.49996
1.5
1.49989
1.5
1.49991
1.5
1.49017
1.492
1.47638
1.47065
1.49373
1.45869
1.5
1.45611
1.34455
1.35965
1.35437
1.33176
1.32635
1.32057
1.31488
1.30941
1.30304
1.29677
1.28984
1.49998
1.5
1.49998
1.5
1.5
1.5
1.49147
1.48836
1.48375
1.45763
1.5
1.44919
1.42677
1.48221
1.39176
1.3266
1.3318
1.3299
1.32626
1.32097
1.3152
1.30953
1.30305
1.29682
1.29012
1.5
1.5
1.5
1.49999
1.49998
1.5
1.49327
1.49276
1.46743
1.5
1.47779
1.49471
1.47757
1.36991
1.42947
1.42351
1.3256
1.31158
1.30894
1.30579
1.3023
1.29855
1.29351
1.28835
1.28219
1.49997
1.5
1.49989
1.5
1.49989
1.49999
1.49083
1.4931
1.46737
1.4989
1.46977
1.5
1.48184
1.36678
1.40357
1.4151
1.30902
1.30925
1.30861
1.30626
1.30298
1.29829
1.29309
1.28706
1.28085
1.49999
1.5
1.49996
1.5
1.49982
1.5
1.49011
1.49544
1.46912
1.47793
1.47496
1.49797
1.49863
1.38205
1.40356
1.42195
1.31864
1.31821
1.31621
1.31357
1.31019
1.30546
1.30019
1.29391
1.28757
1.5
1.49998
1.5
1.49988
1.5
1.5
1.493
1.48965
1.47952
1.46648
1.49852
1.42384
1.49162
1.46889
1.37096
1.33275
1.33294
1.33037
1.32619
1.32117
1.31479
1.30845
1.30143
1.29491
1.28799
1.49999
1.5
1.49997
1.5
1.49994
1.5
1.49089
1.48415
1.47374
1.46919
1.45878
1.45703
1.44632
1.44373
1.43347
1.43364
1.42293
1.42066
1.41005
1.40858
1.39997
1.39779
1.39378
1.37655
1.3971
1.49999
1.5
1.49997
1.5
1.49995
1.5
1.4909
1.48389
1.47386
1.46889
1.45885
1.45666
1.44698
1.44388
1.43377
1.43318
1.42279
1.42158
1.41142
1.4102
1.40133
1.39906
1.39453
1.37789
1.39718
1.5
1.5
1.49998
1.5
1.49995
1.5
1.49083
1.484
1.47383
1.46887
1.45909
1.45587
1.44619
1.4454
1.43458
1.43216
1.42238
1.42165
1.41168
1.41022
1.40102
1.3994
1.39012
1.39944
1.36411
1.5
1.5
1.49999
1.5
1.49995
1.5
1.49067
1.48396
1.47376
1.46868
1.45901
1.45616
1.44564
1.44418
1.43428
1.43212
1.42221
1.42134
1.41143
1.41003
1.40106
1.39861
1.39408
1.37754
1.39671
1.49999
1.5
1.49997
1.5
1.49994
1.5
1.49058
1.48393
1.47384
1.46859
1.45908
1.45613
1.44548
1.4448
1.4346
1.4324
1.42226
1.42157
1.41149
1.41026
1.40102
1.39916
1.39176
1.38912
1.37969
1.49999
1.5
1.49998
1.5
1.5
1.49998
1.49065
1.48382
1.4737
1.46879
1.45868
1.45588
1.4474
1.44456
1.43372
1.43227
1.42232
1.42141
1.41168
1.41076
1.40181
1.40018
1.39285
1.39021
1.3806
1.49998
1.5
1.49997
1.5
1.49997
1.5
1.49044
1.48404
1.47355
1.46865
1.45917
1.45556
1.44728
1.44473
1.43406
1.43302
1.42305
1.42175
1.41203
1.41096
1.40215
1.39982
1.39483
1.37861
1.39674
1.5
1.5
1.49999
1.5
1.49998
1.5
1.49042
1.48406
1.47353
1.46863
1.45899
1.45528
1.44704
1.44455
1.43371
1.43283
1.42302
1.42137
1.4115
1.41029
1.4014
1.39989
1.39027
1.39951
1.36415
1.5
1.5
1.5
1.5
1.5
1.49997
1.4906
1.48382
1.47362
1.46862
1.45903
1.45526
1.44665
1.44509
1.43388
1.43233
1.42272
1.42146
1.41156
1.41013
1.40113
1.39946
1.38993
1.39921
1.3635
1.5
1.5
1.49998
1.5
1.49995
1.5
1.49036
1.48416
1.47348
1.4688
1.45893
1.45538
1.44696
1.44479
1.4338
1.43281
1.42314
1.42149
1.41153
1.41007
1.40112
1.3994
1.38981
1.39903
1.36295
1.5
1.5
1.49999
1.5
1.49996
1.5
1.49057
1.48403
1.47366
1.46855
1.45937
1.45531
1.44616
1.44494
1.43363
1.43215
1.42246
1.4211
1.41065
1.4092
1.39995
1.39817
1.39077
1.38811
1.37837
1.49999
1.5
1.49998
1.5
1.49997
1.5
1.49042
1.48405
1.47358
1.46856
1.45928
1.45536
1.44622
1.44496
1.43378
1.43211
1.4227
1.42128
1.41109
1.40934
1.40036
1.39778
1.39316
1.37623
1.39587
1.49999
1.5
1.49998
1.5
1.49995
1.5
1.49043
1.48414
1.47356
1.46882
1.45897
1.45573
1.44694
1.44525
1.43395
1.43228
1.42295
1.42173
1.41173
1.41014
1.40127
1.39876
1.39427
1.37726
1.39724
1.49998
1.5
1.49996
1.5
1.49995
1.5
1.49028
1.48421
1.47323
1.46911
1.45873
1.45617
1.44733
1.44432
1.43402
1.43331
1.42315
1.42176
1.41199
1.41088
1.40207
1.39976
1.39494
1.3783
1.3977
1.49998
1.5
1.49996
1.5
1.49994
1.5
1.49027
1.48424
1.47331
1.46898
1.45884
1.45613
1.44729
1.44447
1.43384
1.43298
1.42266
1.42172
1.41191
1.4112
1.40209
1.40053
1.39283
1.39014
1.38107
1.49999
1.5
1.49999
1.5
1.5
1.5
1.49036
1.48406
1.4734
1.46861
1.45902
1.45545
1.4463
1.445
1.43411
1.43253
1.42238
1.42157
1.41178
1.41112
1.40208
1.40061
1.393
1.3894
1.38149
1.49998
1.5
1.49997
1.5
1.49996
1.5
1.49068
1.48404
1.47351
1.46913
1.45899
1.45637
1.44622
1.44392
1.43548
1.43383
1.42271
1.4211
1.41144
1.41014
1.40121
1.39952
1.38992
1.39946
1.36329
1.49999
1.5
1.49996
1.5
1.49995
1.5
1.49045
1.48406
1.4734
1.46908
1.45883
1.45658
1.44618
1.44365
1.43503
1.43356
1.42259
1.42132
1.41151
1.4103
1.40114
1.39963
1.38999
1.39954
1.36374
1.49999
1.5
1.49997
1.5
1.49994
1.5
1.49045
1.48426
1.4733
1.46904
1.45895
1.4567
1.4464
1.44388
1.43479
1.43377
1.42249
1.42151
1.41143
1.41057
1.40136
1.39967
1.39234
1.38826
1.38094
1.49999
1.5
1.5
1.5
1.5
1.5
1.49087
1.4843
1.47368
1.46916
1.45895
1.45579
1.44746
1.44514
1.43397
1.43228
1.42249
1.42131
1.41166
1.41045
1.4017
1.40035
1.39111
1.40063
1.36467
1.5
1.5
1.49997
1.5
1.49991
1.5
1.49095
1.48405
1.47349
1.46893
1.4582
1.45559
1.4448
1.44346
1.43298
1.43242
1.42243
1.42216
1.41283
1.41244
1.40441
1.40272
1.39924
1.38212
1.40446
1.49999
1.5
1.49998
1.5
1.49994
1.5
1.49063
1.48396
1.47329
1.46872
1.45815
1.45534
1.44482
1.44333
1.43294
1.43244
1.42229
1.42231
1.4127
1.41259
1.40427
1.40283
1.39891
1.38266
1.40346
1.49999
1.5
1.49996
1.5
1.49991
1.5
1.49071
1.484
1.47336
1.46881
1.45821
1.45543
1.44484
1.44347
1.43295
1.43252
1.42232
1.4224
1.41283
1.41271
1.40432
1.40367
1.39506
1.40503
1.37057
1.49999
1.5
1.49996
1.5
1.49992
1.5
1.49059
1.48397
1.47329
1.46874
1.45819
1.4554
1.44484
1.44346
1.43297
1.43256
1.42235
1.42244
1.41294
1.41277
1.40468
1.40306
1.39948
1.38307
1.40359
1.49999
1.5
1.49997
1.5
1.49993
1.5
1.49073
1.48392
1.47337
1.46874
1.45814
1.4555
1.44467
1.44363
1.43278
1.43272
1.42223
1.42261
1.41289
1.41306
1.40461
1.40383
1.39745
1.39401
1.38779
1.49998
1.5
1.49996
1.5
1.49993
1.5
1.49053
1.48396
1.47325
1.46873
1.45816
1.45542
1.44488
1.44353
1.43302
1.43266
1.42248
1.42257
1.41311
1.41304
1.40476
1.40419
1.39554
1.40601
1.3705
1.49999
1.5
1.49997
1.5
1.49993
1.5
1.49062
1.48393
1.47333
1.46869
1.45821
1.45534
1.44486
1.44338
1.43295
1.43248
1.42237
1.42237
1.41295
1.41285
1.40454
1.40394
1.39525
1.40543
1.3707
1.5
1.5
1.49999
1.5
1.49995
1.5
1.49067
1.48387
1.47335
1.46855
1.45818
1.45512
1.44482
1.44311
1.43291
1.4322
1.4223
1.4221
1.41282
1.41252
1.40448
1.40279
1.39918
1.38254
1.40354
1.5
1.5
1.5
1.5
1.49999
1.5
1.49038
1.48392
1.47306
1.46856
1.45791
1.45511
1.44455
1.44315
1.4327
1.43226
1.42222
1.42221
1.41288
1.41267
1.40461
1.40301
1.39931
1.38288
1.4036
1.5
1.5
1.49999
1.5
1.49996
1.5
1.49018
1.48408
1.47285
1.46876
1.45774
1.4553
1.44446
1.44327
1.43266
1.43234
1.4222
1.42222
1.41284
1.41264
1.40443
1.40366
1.39508
1.40502
1.37022
1.5
1.5
1.5
1.5
1.49998
1.5
1.49018
1.48403
1.47285
1.46869
1.45773
1.45525
1.4444
1.44329
1.43259
1.4324
1.42211
1.42237
1.41276
1.41282
1.40439
1.40353
1.39697
1.39483
1.38639
1.49999
1.5
1.49998
1.5
1.49996
1.5
1.49017
1.48407
1.47285
1.46877
1.45777
1.45536
1.44453
1.44341
1.4328
1.43253
1.42238
1.42248
1.41302
1.41285
1.40464
1.4031
1.39921
1.38275
1.40395
1.49999
1.5
1.49997
1.5
1.49995
1.5
1.49016
1.48411
1.47284
1.46884
1.45778
1.45543
1.44458
1.44343
1.43284
1.43251
1.42241
1.42245
1.41307
1.41284
1.40472
1.40309
1.39929
1.38276
1.40391
1.49999
1.5
1.49996
1.5
1.49991
1.5
1.4903
1.48415
1.47295
1.46894
1.45788
1.45552
1.44466
1.44346
1.43287
1.43251
1.42236
1.42238
1.41298
1.41276
1.40466
1.40305
1.39926
1.38272
1.40389
1.49999
1.5
1.49997
1.5
1.49994
1.5
1.49022
1.48412
1.47288
1.46887
1.45779
1.45546
1.44454
1.44342
1.43273
1.43249
1.42223
1.42236
1.41287
1.4128
1.40458
1.40314
1.39917
1.38307
1.40357
1.5
1.5
1.49999
1.5
1.49996
1.5
1.49034
1.48404
1.47298
1.46875
1.45786
1.45531
1.44456
1.44331
1.43277
1.43241
1.42226
1.42235
1.41291
1.41287
1.40456
1.40403
1.39523
1.40569
1.37044
1.49999
1.5
1.49998
1.5
1.49993
1.5
1.49058
1.484
1.47319
1.46876
1.45802
1.45536
1.44469
1.44332
1.43292
1.43242
1.42232
1.42229
1.41282
1.41273
1.40429
1.40374
1.39486
1.4053
1.36973
1.49999
1.5
1.49998
1.5
1.49996
1.5
1.49035
1.48403
1.47299
1.46877
1.45785
1.4554
1.44456
1.44341
1.4328
1.43254
1.42225
1.42244
1.41282
1.41281
1.4044
1.40337
1.39718
1.39313
1.38741
1.49999
1.5
1.49997
1.5
1.49992
1.5
1.49042
1.48412
1.47303
1.46894
1.4579
1.45557
1.44463
1.44351
1.43287
1.43255
1.42228
1.42233
1.41276
1.41257
1.40434
1.4027
1.39896
1.38242
1.40315
1.49999
1.5
1.49996
1.5
1.4999
1.5
1.49075
1.4844
1.47334
1.46924
1.4582
1.45585
1.44496
1.44381
1.43319
1.43279
1.42264
1.42264
1.41311
1.41307
1.40461
1.40379
1.39718
1.39505
1.38674
1.49999
1.5
1.49995
1.5
1.4999
1.5
1.49067
1.48413
1.47329
1.46898
1.45815
1.45564
1.44483
1.44362
1.43303
1.43263
1.42249
1.42246
1.41305
1.41285
1.40475
1.40317
1.39955
1.3828
1.40438
1.49999
1.5
1.49996
1.5
1.49991
1.5
1.49046
1.48406
1.47313
1.46883
1.45807
1.45542
1.44477
1.44338
1.43288
1.43246
1.42219
1.42236
1.41261
1.41279
1.40414
1.40353
1.39675
1.39466
1.38704
1.49999
1.5
1.49996
1.5
1.49991
1.5
1.49053
1.48403
1.47321
1.46877
1.45814
1.45533
1.44483
1.44326
1.43292
1.43226
1.4222
1.42205
1.41261
1.41236
1.40421
1.40268
1.39897
1.38269
1.40325
1.49999
1.5
1.49996
1.5
1.49992
1.5
1.4905
1.48404
1.47318
1.46878
1.45811
1.45536
1.44482
1.44333
1.43295
1.43237
1.42231
1.42222
1.41283
1.41263
1.4044
1.4037
1.39507
1.40518
1.37023
1.49999
1.5
1.49997
1.5
1.49993
1.5
1.4905
1.48403
1.47314
1.46878
1.45801
1.45537
1.44466
1.44334
1.43281
1.43241
1.42224
1.4223
1.41282
1.41274
1.40449
1.4035
1.39714
1.395
1.38606
1.49999
1.5
1.49996
1.5
1.49992
1.5
1.49044
1.48406
1.47308
1.46885
1.45794
1.45547
1.44456
1.44345
1.43264
1.43247
1.42203
1.4223
1.41262
1.41273
1.40433
1.40352
1.39723
1.39372
1.38755
1.5
1.5
1.49998
1.5
1.49994
1.5
1.49046
1.48398
1.47313
1.46868
1.45799
1.45521
1.4446
1.44314
1.43267
1.43219
1.42206
1.42209
1.41268
1.41262
1.40444
1.40347
1.3974
1.39356
1.3879
1.5
1.5
1.5
1.5
1.49999
1.5
1.49042
1.48389
1.47309
1.46847
1.45796
1.45492
1.44461
1.44281
1.43275
1.43187
1.42214
1.42183
1.41266
1.41232
1.40433
1.4027
1.399
1.38251
1.40356
1.5
1.5
1.5
1.5
1.5
1.5
1.4903
1.48386
1.47301
1.46842
1.45789
1.4549
1.44453
1.44285
1.43266
1.43194
1.4221
1.42193
1.41276
1.41251
1.40462
1.40304
1.39957
1.38273
1.4048
1.5
1.5
1.49999
1.5
1.49998
1.5
1.49013
1.48403
1.47282
1.46867
1.45773
1.4552
1.44443
1.44316
1.43261
1.43222
1.4221
1.42211
1.41279
1.41259
1.40466
1.40307
1.39956
1.38319
1.40374
1.49999
1.5
1.49998
1.5
1.49996
1.5
1.49
1.48413
1.47267
1.4688
1.45763
1.45535
1.44439
1.44332
1.43261
1.43239
1.42209
1.4223
1.41273
1.41282
1.40448
1.4037
1.39737
1.39398
1.38783
1.49998
1.5
1.49994
1.5
1.49991
1.5
1.49014
1.48416
1.47285
1.46893
1.45786
1.45555
1.44465
1.44354
1.43288
1.43259
1.42234
1.42242
1.41295
1.41282
1.40461
1.40355
1.39719
1.39509
1.38625
1.49997
1.5
1.49994
1.5
1.49991
1.5
1.49005
1.48421
1.47275
1.469
1.45778
1.45564
1.44464
1.44364
1.43295
1.43267
1.42247
1.42247
1.41304
1.41284
1.40457
1.40385
1.39517
1.40521
1.37041
1.49998
1.5
1.49994
1.5
1.49991
1.5
1.49011
1.48421
1.47279
1.46901
1.45778
1.45564
1.44461
1.4436
1.4329
1.4326
1.42241
1.4224
1.41299
1.41277
1.40453
1.40377
1.39517
1.40508
1.37044
1.49998
1.5
1.49996
1.5
1.49994
1.5
1.49006
1.48414
1.47275
1.46886
1.45773
1.45543
1.44449
1.44341
1.43268
1.43246
1.42213
1.42234
1.41272
1.41281
1.40439
1.40362
1.39705
1.39498
1.38692
1.49999
1.5
1.49996
1.5
1.49994
1.5
1.49024
1.48409
1.47292
1.4688
1.45788
1.45537
1.44465
1.44334
1.43288
1.43243
1.42236
1.42239
1.41298
1.41294
1.40471
1.40376
1.39762
1.39379
1.38804
1.49998
1.5
1.49996
1.5
1.49993
1.5
1.49028
1.48408
1.47298
1.4688
1.45796
1.45534
1.44474
1.4433
1.43295
1.43239
1.42235
1.42232
1.41286
1.41283
1.4045
1.40365
1.39738
1.39385
1.38771
1.49999
1.5
1.49998
1.5
1.49995
1.5
1.49035
1.48399
1.47304
1.46867
1.45796
1.45524
1.44466
1.44324
1.43282
1.43234
1.42221
1.4222
1.41275
1.41255
1.40449
1.40286
1.39932
1.38282
1.40339
1.49999
1.5
1.49997
1.5
1.49993
1.5
1.49032
1.4841
1.47295
1.46883
1.45784
1.45537
1.44452
1.44329
1.43268
1.43227
1.42205
1.42202
1.41249
1.41227
1.40396
1.40281
1.39666
1.39252
1.38739
1.5
1.5
1.49999
1.5
1.49996
1.5
1.49064
1.48428
1.47325
1.46897
1.45804
1.45553
1.44465
1.44347
1.43283
1.43245
1.42233
1.42229
1.41297
1.41275
1.40476
1.4032
1.39966
1.38317
1.4042
1.49999
1.5
1.49998
1.5
1.49996
1.5
1.49073
1.48393
1.47343
1.46861
1.45831
1.45524
1.44495
1.44333
1.43311
1.4325
1.42254
1.42248
1.41306
1.41299
1.40462
1.40373
1.39732
1.39375
1.3877
1.49999
1.5
1.49997
1.5
1.49993
1.5
1.49053
1.48399
1.4732
1.4687
1.45813
1.45524
1.44486
1.44318
1.43303
1.43226
1.42237
1.42215
1.41278
1.41251
1.40426
1.40307
1.39699
1.39276
1.38759
1.49999
1.5
1.49998
1.5
1.49995
1.5
1.49043
1.48397
1.47314
1.46864
1.4581
1.45517
1.44482
1.44315
1.43298
1.43224
1.42234
1.42211
1.41276
1.41246
1.40433
1.40275
1.39893
1.38275
1.40305
1.49999
1.5
1.49996
1.5
1.49991
1.5
1.49048
1.48402
1.47318
1.46875
1.45815
1.45532
1.44485
1.44328
1.43295
1.43234
1.42225
1.42221
1.41272
1.41265
1.40429
1.40378
1.39502
1.40543
1.36999
1.49999
1.5
1.49997
1.5
1.49993
1.5
1.49036
1.48405
1.47305
1.46872
1.45801
1.45519
1.44475
1.44306
1.43292
1.4321
1.42231
1.422
1.41286
1.4125
1.4045
1.4037
1.39533
1.40558
1.3699
1.5
1.5
1.49998
1.5
1.49996
1.5
1.49031
1.48402
1.47298
1.46869
1.45789
1.45518
1.44457
1.44308
1.43268
1.43214
1.42205
1.42209
1.41264
1.41268
1.40439
1.40362
1.39717
1.3951
1.38682
1.49999
1.5
1.49998
1.5
1.49994
1.5
1.49049
1.48398
1.47315
1.46869
1.45805
1.45523
1.44474
1.44319
1.4329
1.43231
1.42235
1.42232
1.41298
1.41294
1.40468
1.4038
1.39748
1.39383
1.38788
1.5
1.5
1.49998
1.5
1.49996
1.5
1.49038
1.48395
1.47309
1.46859
1.45802
1.45508
1.44472
1.44298
1.43289
1.43206
1.42231
1.42207
1.4129
1.41266
1.40448
1.40379
1.39512
1.40502
1.37062
1.5
1.5
1.5
1.5
1.49998
1.5
1.49035
1.48392
1.47303
1.4685
1.45793
1.45495
1.44462
1.44285
1.4328
1.43194
1.42225
1.42197
1.41289
1.41262
1.40471
1.40319
1.39958
1.38317
1.40405
1.5
1.5
1.5
1.5
1.5
1.5
1.49008
1.48399
1.47279
1.46855
1.45775
1.45501
1.44449
1.44292
1.4327
1.432
1.42216
1.42199
1.41278
1.41264
1.40447
1.40396
1.39528
1.40569
1.37072
1.5
1.5
1.5
1.5
1.49999
1.5
1.48999
1.48405
1.47269
1.46863
1.45765
1.4551
1.44442
1.443
1.43265
1.43202
1.42212
1.42189
1.41269
1.41242
1.40429
1.40365
1.39504
1.4056
1.36964
1.49999
1.5
1.49997
1.5
1.49995
1.5
1.49003
1.48411
1.47275
1.46875
1.45778
1.45523
1.4446
1.44313
1.43282
1.43212
1.42221
1.42192
1.41268
1.4123
1.40416
1.40332
1.39483
1.40475
1.36986
1.49998
1.5
1.49995
1.5
1.49992
1.5
1.49011
1.48417
1.47281
1.46891
1.45784
1.45545
1.44466
1.44332
1.43287
1.43224
1.42226
1.422
1.41274
1.41241
1.40441
1.4028
1.39922
1.3826
1.40367
1.49998
1.5
1.49995
1.5
1.49991
1.5
1.49023
1.48415
1.4729
1.46892
1.45786
1.45549
1.44465
1.44336
1.43288
1.43226
1.4223
1.42202
1.41277
1.41241
1.40438
1.40274
1.39907
1.38234
1.40381
1.49999
1.5
1.49998
1.5
1.49997
1.5
1.49004
1.48405
1.47277
1.46865
1.45778
1.4551
1.44455
1.44298
1.43271
1.43195
1.42204
1.42174
1.41247
1.41209
1.4041
1.40242
1.39882
1.38215
1.40362
1.49999
1.5
1.49997
1.5
1.49993
1.5
1.49044
1.48404
1.47308
1.46877
1.45796
1.45529
1.44469
1.44315
1.43289
1.43212
1.42229
1.42199
1.4128
1.41244
1.40448
1.40282
1.39919
1.38273
1.40345
1.49999
1.5
1.49996
1.5
1.49992
1.5
1.49039
1.48403
1.47311
1.46871
1.4581
1.45518
1.44484
1.44303
1.43296
1.43201
1.42223
1.42187
1.41261
1.4123
1.40406
1.4034
1.39474
1.40497
1.37017
1.49999
1.5
1.49997
1.5
1.49995
1.5
1.49029
1.48397
1.47304
1.46859
1.45806
1.45509
1.4448
1.44303
1.43293
1.43207
1.42222
1.42191
1.41258
1.41226
1.404
1.40328
1.39464
1.40483
1.36981
1.49999
1.5
1.49996
1.5
1.49993
1.5
1.49025
1.48406
1.47298
1.46873
1.45798
1.45523
1.44475
1.44313
1.43289
1.43211
1.42218
1.42187
1.41249
1.41214
1.40385
1.40272
1.3963
1.39414
1.38523
1.49999
1.5
1.49998
1.5
1.49998
1.5
1.49016
1.48444
1.47282
1.46909
1.45774
1.4556
1.44451
1.44346
1.43279
1.43234
1.42231
1.42206
1.41289
1.41247
1.40447
1.40363
1.39522
1.4055
1.3701
1.49999
1.5
1.49998
1.5
1.49995
1.5
1.49033
1.48415
1.47298
1.46885
1.45788
1.4554
1.44458
1.44333
1.43278
1.43232
1.42225
1.42218
1.41284
1.41267
1.40444
1.40381
1.39513
1.4056
1.37
1.49999
1.5
1.49998
1.5
1.49996
1.5
1.49033
1.48398
1.47302
1.46863
1.45796
1.45516
1.44469
1.44313
1.4329
1.43225
1.42235
1.4222
1.41289
1.41265
1.40454
1.40295
1.3992
1.38279
1.40332
1.49999
1.5
1.49996
1.5
1.49993
1.5
1.49042
1.48402
1.47312
1.46873
1.45808
1.45526
1.44481
1.44317
1.43293
1.43219
1.42222
1.42202
1.41262
1.41242
1.40411
1.40354
1.39479
1.40517
1.37019
1.49998
1.5
1.49995
1.5
1.4999
1.5
1.49044
1.48407
1.47313
1.46883
1.45813
1.45541
1.44489
1.44338
1.43301
1.43244
1.42229
1.42229
1.41266
1.41271
1.4042
1.40349
1.39701
1.39383
1.3871
1.49999
1.5
1.49997
1.5
1.49994
1.5
1.49037
1.484
1.47308
1.46865
1.45805
1.45514
1.44479
1.44305
1.43293
1.4321
1.42225
1.42198
1.41267
1.41241
1.40415
1.40351
1.3949
1.40496
1.37039
1.5
1.5
1.49998
1.5
1.49996
1.5
1.49037
1.48396
1.47307
1.46859
1.45801
1.45505
1.44472
1.44292
1.43285
1.43195
1.4222
1.42188
1.41269
1.41236
1.40434
1.40274
1.39907
1.38246
1.40376
1.49999
1.5
1.49997
1.5
1.49994
1.5
1.49045
1.48399
1.47315
1.46866
1.45811
1.45517
1.44488
1.44311
1.43311
1.43225
1.42256
1.42231
1.41313
1.4129
1.4048
1.40328
1.39941
1.38288
1.40409
1.5
1.5
1.49999
1.5
1.49995
1.5
1.49052
1.48397
1.47315
1.46865
1.45801
1.45514
1.44473
1.44305
1.43297
1.4322
1.42243
1.42231
1.413
1.41295
1.40461
1.40373
1.39712
1.39494
1.38645
1.5
1.49999
1.5
1.49999
1.5
1.5
1.49019
1.48392
1.47284
1.46843
1.45774
1.45481
1.44447
1.44271
1.43273
1.43189
1.42228
1.42202
1.41296
1.41267
1.4047
1.40308
1.3994
1.3827
1.4041
1.5
1.5
1.5
1.5
1.5
1.5
1.49014
1.48397
1.47283
1.46854
1.45777
1.45503
1.44452
1.44302
1.43276
1.43222
1.42228
1.42234
1.41292
1.41304
1.40461
1.40396
1.39734
1.39427
1.38749
1.49999
1.5
1.49998
1.5
1.49996
1.5
1.49043
1.48393
1.47311
1.46857
1.45801
1.45509
1.44471
1.44303
1.43288
1.4321
1.4223
1.42205
1.41284
1.41262
1.40444
1.40384
1.39523
1.40554
1.37024
1.49999
1.5
1.49997
1.5
1.49994
1.5
1.49021
1.48408
1.47291
1.46874
1.45789
1.45522
1.44466
1.44312
1.43286
1.43217
1.42226
1.42213
1.41279
1.41269
1.40442
1.40352
1.39713
1.395
1.38636
1.49999
1.5
1.49997
1.5
1.49993
1.5
1.49024
1.48411
1.4729
1.46882
1.45787
1.4553
1.44466
1.44316
1.4329
1.43216
1.42233
1.42205
1.41285
1.41255
1.40452
1.40297
1.39925
1.38284
1.40389
1.49999
1.5
1.49996
1.5
1.49991
1.5
1.49033
1.48412
1.47297
1.46887
1.45788
1.45538
1.44462
1.44319
1.43282
1.43207
1.42221
1.42183
1.4127
1.41225
1.40436
1.40262
1.39908
1.38229
1.40368
1.49999
1.5
1.49997
1.5
1.49992
1.5
1.49034
1.48409
1.473
1.46879
1.45792
1.45522
1.44461
1.443
1.43272
1.43193
1.42206
1.4218
1.41254
1.41235
1.40416
1.40318
1.39697
1.39304
1.38763
1.49999
1.5
1.49997
1.5
1.49992
1.5
1.4906
1.48398
1.47322
1.46874
1.45808
1.4553
1.44479
1.4432
1.43298
1.43224
1.42239
1.4222
1.41293
1.41279
1.4046
1.40367
1.39749
1.39372
1.38806
1.49999
1.5
1.49998
1.5
1.49995
1.5
1.49045
1.48398
1.47312
1.46864
1.45805
1.45513
1.44481
1.44301
1.43303
1.43206
1.42245
1.42203
1.41301
1.41257
1.4048
1.40305
1.39977
1.38305
1.40397
1.49999
1.5
1.49998
1.5
1.49997
1.5
1.49017
1.48401
1.4729
1.46861
1.45791
1.45507
1.44468
1.44296
1.43285
1.43199
1.42219
1.42189
1.41262
1.41236
1.40419
1.40312
1.39707
1.3931
1.38765
1.49999
1.5
1.49997
1.5
1.49995
1.5
1.4901
1.4841
1.47283
1.46873
1.45787
1.45519
1.44472
1.4431
1.43298
1.43215
1.42234
1.42201
1.41268
1.41237
1.40407
1.40298
1.39679
1.3929
1.38731
1.49999
1.5
1.49998
1.5
1.49996
1.5
1.49026
1.48445
1.47288
1.46913
1.45777
1.45566
1.44453
1.44354
1.43282
1.43247
1.42232
1.42219
1.41278
1.41246
1.40422
1.40304
1.39668
1.39451
1.38546
1.49999
1.5
1.49997
1.5
1.49995
1.5
1.49034
1.48414
1.47301
1.46882
1.45797
1.45534
1.44471
1.44323
1.43288
1.43221
1.42224
1.42205
1.41273
1.41249
1.40424
1.40362
1.39492
1.40538
1.3699
1.49999
1.5
1.49998
1.5
1.49995
1.5
1.49039
1.48398
1.4731
1.46862
1.45805
1.45514
1.44475
1.4431
1.43288
1.43221
1.42226
1.42221
1.41282
1.41276
1.4046
1.40323
1.39945
1.38334
1.40377
1.49999
1.5
1.49996
1.5
1.4999
1.5
1.49052
1.48403
1.47321
1.46876
1.45815
1.45525
1.44487
1.44312
1.43298
1.43217
1.42231
1.4221
1.4128
1.41262
1.40442
1.40382
1.3953
1.40558
1.37046
1.49999
1.5
1.49996
1.5
1.49991
1.5
1.49047
1.48404
1.47316
1.46877
1.45813
1.45531
1.44487
1.44325
1.433
1.43232
1.42234
1.42222
1.4128
1.41268
1.4044
1.40343
1.39731
1.39344
1.38777
1.5
1.5
1.49999
1.5
1.49997
1.5
1.49042
1.48391
1.47312
1.46852
1.45805
1.455
1.44474
1.44291
1.43287
1.43196
1.42221
1.42188
1.41266
1.41232
1.40428
1.40264
1.39903
1.38231
1.40362
1.5
1.5
1.49999
1.5
1.49995
1.5
1.49062
1.48387
1.47329
1.46855
1.45814
1.45509
1.4448
1.44301
1.43294
1.43207
1.42231
1.42201
1.41278
1.41249
1.40442
1.40286
1.39911
1.38259
1.40381
1.49998
1.5
1.49997
1.5
1.49994
1.5
1.49044
1.48399
1.47313
1.46867
1.4581
1.4552
1.44494
1.44317
1.43326
1.43234
1.4227
1.42234
1.4131
1.41273
1.40452
1.40291
1.39888
1.38266
1.40307
1.49999
1.5
1.49999
1.5
1.49996
1.5
1.49033
1.48403
1.47298
1.46868
1.45791
1.45513
1.44473
1.44304
1.43304
1.43216
1.42251
1.42216
1.41299
1.41265
1.40443
1.4037
1.39505
1.40514
1.37025
1.5
1.5
1.5
1.5
1.49999
1.5
1.49014
1.48402
1.47281
1.46859
1.45778
1.455
1.44459
1.44289
1.43286
1.43201
1.42231
1.42199
1.41281
1.41246
1.40441
1.4028
1.39906
1.38264
1.40348
1.49999
1.5
1.49998
1.5
1.49997
1.5
1.4903
1.48396
1.47302
1.46858
1.45798
1.45511
1.44475
1.44311
1.43298
1.43228
1.42244
1.42235
1.413
1.41295
1.40455
1.40408
1.39515
1.40528
1.37081
1.49999
1.5
1.49998
1.5
1.49997
1.5
1.49031
1.48395
1.47303
1.46856
1.45799
1.45507
1.4447
1.44304
1.43285
1.43218
1.42226
1.42222
1.4128
1.41281
1.40441
1.40355
1.39712
1.39343
1.38724
1.49999
1.5
1.49997
1.5
1.49995
1.5
1.4903
1.48398
1.47303
1.46862
1.45801
1.45514
1.44477
1.44309
1.43295
1.43221
1.42236
1.42222
1.4129
1.4128
1.40451
1.40357
1.39704
1.39486
1.38602
1.49999
1.5
1.49998
1.5
1.49994
1.5
1.49064
1.48392
1.47325
1.46867
1.45807
1.45527
1.44475
1.4432
1.43296
1.43226
1.42241
1.42224
1.41295
1.41282
1.40452
1.40399
1.39524
1.40533
1.37079
1.49999
1.5
1.49997
1.5
1.49995
1.5
1.49034
1.48399
1.47303
1.46866
1.45797
1.45523
1.44473
1.4432
1.43296
1.43228
1.42237
1.42224
1.41283
1.41278
1.40439
1.40359
1.39714
1.39373
1.38743
1.5
1.5
1.49999
1.5
1.49999
1.5
1.49004
1.48405
1.47273
1.46863
1.45769
1.45509
1.44446
1.44297
1.43266
1.43199
1.42204
1.42189
1.41248
1.41241
1.40401
1.40322
1.39676
1.39343
1.3871
1.49999
1.5
1.49999
1.5
1.49996
1.5
1.49026
1.48402
1.47292
1.46867
1.45785
1.45515
1.44462
1.44307
1.43289
1.43217
1.42238
1.42218
1.41293
1.41275
1.40439
1.40385
1.39491
1.40538
1.37001
1.49999
1.5
1.49997
1.5
1.49992
1.5
1.49059
1.48399
1.47322
1.46872
1.4581
1.45523
1.44483
1.44313
1.43303
1.43222
1.42244
1.42223
1.41297
1.41281
1.40461
1.40362
1.39749
1.39357
1.38803
1.49999
1.5
1.49997
1.5
1.49994
1.5
1.49029
1.48401
1.47303
1.46865
1.45806
1.45512
1.44487
1.44304
1.43309
1.4321
1.42246
1.42201
1.41289
1.41244
1.40448
1.40274
1.39921
1.38236
1.40399
1.49999
1.5
1.49998
1.5
1.49996
1.5
1.49018
1.48403
1.47288
1.46864
1.45786
1.45512
1.44467
1.44303
1.43293
1.43206
1.42235
1.42191
1.41279
1.41229
1.40432
1.40258
1.39896
1.38246
1.40325
1.49999
1.5
1.49998
1.5
1.49997
1.5
1.49033
1.48436
1.47301
1.469
1.45793
1.45551
1.44469
1.44342
1.43294
1.43238
1.42241
1.42214
1.4129
1.4125
1.40432