/*--------------------------------*- C++ -*----------------------------------*\
  =========                 |
  \\      /  F ield         | OpenFOAM: The Open Source CFD Toolbox
   \\    /   O peration     | Website:  https://openfoam.org
    \\  /    A nd           | Version:  12
     \\/     M anipulation  |
\*---------------------------------------------------------------------------*/
FoamFile
{
    format      ascii;
    class       volScalarField;
    location    "50";
    object      p;
}
// * * * * * * * * * * * * * * * * * * * * * * * * * * * * * * * * * * * * * //

dimensions      [0 2 -2 0 0 0 0];

internalField   nonuniform List<scalar> 
5000
(
0.488521
0.332985
0.244355
0.211021
0.187438
0.163077
0.141122
0.122667
0.106602
0.0920075
0.0785611
0.0662499
0.0551526
0.0454082
0.0372704
0.0311155
0.0274275
0.0267598
0.0291898
0.0336969
0.0378634
0.0378343
0.0301457
0.0134491
-0.0109731
0.488336
0.333242
0.244445
0.211019
0.187494
0.163166
0.141196
0.122689
0.106579
0.0920031
0.0786024
0.0663033
0.0552184
0.0455163
0.0374369
0.0313035
0.0276304
0.0269554
0.0293051
0.0336693
0.0377062
0.0376955
0.0301987
0.013744
-0.0106772
0.488423
0.333405
0.244554
0.211115
0.187624
0.163318
0.141344
0.122823
0.106705
0.0921297
0.0787429
0.0664392
0.0553512
0.0457238
0.0377221
0.0316396
0.0280345
0.0273336
0.0295329
0.0336599
0.0374973
0.0375277
0.0303525
0.0142878
-0.0102468
0.488577
0.333575
0.244734
0.211301
0.187827
0.163542
0.141599
0.123131
0.107071
0.0925171
0.0791139
0.0667976
0.0556824
0.0460334
0.0380678
0.0320264
0.0284116
0.0276375
0.0296486
0.0335387
0.0372571
0.0374817
0.0307458
0.0150216
-0.00975266
0.488793
0.3338
0.244972
0.21155
0.188094
0.163837
0.141927
0.123487
0.107448
0.0928899
0.07946
0.0671308
0.0560419
0.0464631
0.0385575
0.0325362
0.0288917
0.0279845
0.0298096
0.0335742
0.0373479
0.0378369
0.0313925
0.0157161
-0.00938117
0.489058
0.334073
0.245259
0.211855
0.188425
0.1642
0.142327
0.123938
0.107942
0.0934176
0.0800064
0.0677044
0.0566785
0.0471007
0.0391557
0.0330876
0.029318
0.0282502
0.0299947
0.0338129
0.0377359
0.0383552
0.031888
0.0160153
-0.00926712
0.489367
0.334391
0.245593
0.212213
0.188811
0.164626
0.142784
0.124428
0.108485
0.0939936
0.0805708
0.0682287
0.0572037
0.0476532
0.0397127
0.0336322
0.0298325
0.0287776
0.0305912
0.0344955
0.0384015
0.0388459
0.0320786
0.015903
-0.00943021
0.489714
0.334748
0.245967
0.212616
0.189251
0.165105
0.143309
0.125009
0.109133
0.0947125
0.0813575
0.0690395
0.0579631
0.048328
0.0403194
0.034218
0.0304362
0.0294187
0.0312327
0.035042
0.0387103
0.0388048
0.0317084
0.0153971
-0.0097225
0.490091
0.335137
0.246376
0.213056
0.189733
0.16563
0.143883
0.125626
0.109729
0.0952758
0.081957
0.069721
0.0587257
0.0491567
0.0411768
0.035089
0.0313442
0.0303075
0.0319315
0.0354002
0.0386496
0.0383425
0.0310065
0.0147776
-0.00995123
0.490493
0.33555
0.246812
0.213526
0.190243
0.16619
0.144495
0.126297
0.110501
0.0961303
0.0828121
0.0705305
0.0594786
0.0498601
0.0418869
0.0358686
0.0321742
0.0310868
0.0325462
0.0357065
0.0385593
0.0379299
0.030453
0.0143557
-0.0100714
0.490909
0.33598
0.247266
0.214015
0.190776
0.166775
0.145134
0.127001
0.111264
0.0969433
0.0837104
0.0714761
0.0604311
0.050823
0.0427947
0.0366813
0.0328849
0.0316752
0.0329854
0.0359887
0.0387069
0.0379659
0.0304068
0.0142602
-0.0101345
0.491332
0.336417
0.247728
0.214514
0.191322
0.16737
0.145775
0.127683
0.111973
0.097687
0.0845253
0.0723866
0.061425
0.0518591
0.04379
0.0375279
0.0335227
0.0321281
0.0333272
0.0363153
0.0390894
0.0383852
0.0307641
0.0144275
-0.0101342
0.491751
0.336849
0.248187
0.215008
0.191867
0.167963
0.146416
0.128351
0.11261
0.0983248
0.0852225
0.0732328
0.0624566
0.0530118
0.0449795
0.0386061
0.0343401
0.032647
0.0335964
0.0364481
0.0392231
0.0385846
0.0310028
0.0145975
-0.0100666
0.492157
0.337269
0.248632
0.215491
0.192397
0.168546
0.147055
0.129053
0.113379
0.0991595
0.0860779
0.0741184
0.0634078
0.0540072
0.0460391
0.0397151
0.0353495
0.0333518
0.0338962
0.036348
0.0388421
0.0381102
0.0306247
0.0144047
-0.010089
0.492539
0.337665
0.249053
0.215951
0.192899
0.169101
0.147662
0.129702
0.114129
0.100028
0.0870134
0.0750847
0.0643934
0.0550339
0.0471232
0.0408285
0.0364273
0.0342633
0.034434
0.0363209
0.0382466
0.0371396
0.0295976
0.0136703
-0.0103336
0.492886
0.338024
0.249441
0.216379
0.193369
0.169615
0.148226
0.130349
0.114887
0.100894
0.087967
0.0760617
0.0653537
0.0560259
0.0481525
0.0418543
0.0374374
0.0351817
0.0350799
0.0364888
0.0378201
0.0361817
0.028375
0.012598
-0.0107965
0.493187
0.338336
0.249779
0.216761
0.193797
0.17008
0.14873
0.130884
0.115434
0.101472
0.088633
0.0769108
0.0663786
0.0571493
0.0493679
0.0430853
0.038568
0.0361597
0.0358297
0.0368956
0.0377503
0.0355522
0.0273297
0.0115302
-0.0113123
0.493431
0.33859
0.250058
0.217082
0.194155
0.170477
0.14917
0.13136
0.11592
0.101992
0.0892385
0.0776318
0.0672397
0.0581393
0.0504442
0.0441682
0.0395486
0.0369826
0.0364882
0.0373845
0.0379967
0.0353628
0.0266186
0.0105828
-0.0118707
0.493629
0.338728
0.250276
0.217348
0.194426
0.170778
0.149511
0.131718
0.116309
0.102395
0.0896329
0.0780519
0.0677856
0.0588647
0.0512924
0.0450438
0.0403692
0.0376816
0.0370611
0.0378961
0.0384392
0.0355626
0.0263209
0.00977665
-0.0124803
0.493963
0.338628
0.250366
0.217548
0.194594
0.170937
0.149717
0.13197
0.116556
0.102624
0.0898851
0.0783535
0.0681679
0.0593434
0.0517778
0.0454787
0.0407182
0.0378962
0.037233
0.0381503
0.0387978
0.035918
0.0263754
0.00933934
-0.0129393
0.34202
0.277431
0.228649
0.206602
0.186829
0.165793
0.146391
0.129358
0.11405
0.099976
0.0868453
0.0745238
0.0630645
0.0528534
0.044503
0.0386114
0.035342
0.0336785
0.0328055
0.0324629
0.0326453
0.0324003
0.029374
0.0201315
0.00314768
0.342198
0.277593
0.228689
0.206581
0.186853
0.165841
0.146427
0.129367
0.114055
0.0999865
0.0868711
0.0745877
0.0631576
0.0529423
0.0445718
0.0387178
0.0355515
0.0340067
0.0331723
0.0326861
0.0325695
0.0320494
0.0290229
0.0199663
0.00314263
0.34233
0.277719
0.228786
0.206679
0.18698
0.165988
0.146579
0.129523
0.114209
0.100111
0.0869987
0.0747514
0.0633623
0.0531141
0.0447054
0.0389003
0.035871
0.0345353
0.0337085
0.032954
0.0323876
0.0315434
0.0285888
0.0200364
0.0032896
0.3425
0.277897
0.22897
0.206866
0.187181
0.166211
0.146833
0.129803
0.1145
0.100433
0.0873288
0.075081
0.0636941
0.0534347
0.0450096
0.0392491
0.0363255
0.035027
0.0340942
0.0330217
0.0320751
0.0310733
0.0283386
0.0202347
0.00357639
0.342722
0.278126
0.229205
0.207112
0.187446
0.166503
0.147156
0.130143
0.114878
0.100829
0.087731
0.0754811
0.0640849
0.0538214
0.0454335
0.0397383
0.0368097
0.0354599
0.034356
0.0330764
0.0320102
0.0310763
0.0285725
0.020663
0.00393128
0.34299
0.2784
0.229491
0.207417
0.187778
0.166869
0.14756
0.130599
0.115375
0.101344
0.0882723
0.0760225
0.0645973
0.0543618
0.0460255
0.0402974
0.0372807
0.0358001
0.0345755
0.0333005
0.0323526
0.0315475
0.0290666
0.0209668
0.00404248
0.343301
0.27872
0.229825
0.207773
0.188165
0.167293
0.148027
0.131124
0.115967
0.101977
0.0889025
0.0766416
0.0652039
0.0549878
0.0466285
0.0407895
0.0376144
0.0360437
0.0349026
0.0338223
0.0330586
0.0322187
0.0294743
0.0209827
0.00391094
0.343649
0.279078
0.2302
0.208175
0.188602
0.167773
0.148556
0.131704
0.116593
0.10263
0.0895944
0.077392
0.0660054
0.0557653
0.0473059
0.0413632
0.0381054
0.0365385
0.0354651
0.0344173
0.0335445
0.0324083
0.0292743
0.0204976
0.00357218
0.344029
0.279469
0.230608
0.208614
0.18908
0.168297
0.149126
0.132309
0.117211
0.103256
0.0902169
0.0780587
0.0667178
0.056483
0.0480529
0.0421522
0.0389612
0.0374467
0.0363267
0.035011
0.0336846
0.0320642
0.0285604
0.0197657
0.00320422
0.344433
0.279884
0.231044
0.209083
0.18959
0.168858
0.14974
0.132979
0.11794
0.10403
0.091038
0.0788818
0.06752
0.05726
0.0487988
0.0429134
0.0397656
0.0382557
0.0369907
0.0354063
0.0336957
0.0316499
0.0278912
0.0191429
0.00295989
0.344851
0.280316
0.2315
0.209571
0.190123
0.169442
0.150376
0.133667
0.118654
0.104801
0.0918562
0.0797398
0.0684144
0.0581647
0.0497125
0.0437544
0.0405254
0.0388926
0.0374662
0.0356963
0.0337947
0.0316244
0.0277907
0.0190367
0.00291318
0.345277
0.280756
0.231964
0.210068
0.190668
0.170037
0.15102
0.134356
0.119381
0.105566
0.0926704
0.0806262
0.0693755
0.0591703
0.0506996
0.044629
0.0411999
0.0393225
0.0377105
0.0358796
0.0340519
0.0320216
0.0282517
0.0193946
0.00304464
0.345698
0.281191
0.232424
0.210562
0.19121
0.170632
0.151664
0.135041
0.120114
0.106336
0.093479
0.0814926
0.0703101
0.0601822
0.051754
0.0456678
0.0420764
0.0398811
0.0379379
0.0358859
0.0340277
0.0321436
0.0285494
0.0196925
0.00324288
0.346107
0.281613
0.232868
0.211043
0.191738
0.171215
0.152306
0.135746
0.120894
0.107209
0.0944174
0.0824112
0.0712267
0.0611375
0.0527515
0.0466792
0.0430447
0.0406921
0.0383487
0.0358131
0.0335619
0.0315329
0.0280741
0.0195055
0.00330851
0.346491
0.282011
0.23329
0.211503
0.192241
0.171769
0.152917
0.136419
0.121649
0.108051
0.0953317
0.0833803
0.0722131
0.0621048
0.0537193
0.0476956
0.0441019
0.0416588
0.0390133
0.0359478
0.0330431
0.0305294
0.0269554
0.0187155
0.00302865
0.34684
0.282372
0.233679
0.211929
0.192709
0.172285
0.153487
0.137055
0.122353
0.108838
0.0962194
0.0843915
0.0732837
0.0631292
0.0546958
0.0486509
0.0450545
0.0425719
0.0397379
0.0362729
0.0328161
0.0297552
0.0258397
0.0177078
0.00252275
0.34714
0.282683
0.234019
0.212312
0.193136
0.172754
0.153996
0.1376
0.122933
0.109449
0.0968912
0.08515
0.0742191
0.0642672
0.055878
0.0497712
0.0460704
0.0434334
0.0404117
0.0367311
0.0330102
0.0295871
0.0252669
0.0169837
0.00205591
0.347375
0.28293
0.234295
0.212628
0.193493
0.173152
0.154438
0.138079
0.123443
0.109985
0.097466
0.0858104
0.0749986
0.0652421
0.0570243
0.0509729
0.0471263
0.0441327
0.0408043
0.0369832
0.0333212
0.0298768
0.025288
0.0166234
0.00174109
0.347522
0.283107
0.234531
0.212896
0.193769
0.173454
0.154781
0.138456
0.123843
0.110394
0.0978844
0.0862283
0.0754625
0.065893
0.057927
0.0520207
0.0480278
0.0446809
0.0410501
0.0371478
0.0336792
0.0304123
0.0256743
0.0164478
0.00152486
0.347485
0.283107
0.234676
0.21312
0.193968
0.173647
0.155004
0.138697
0.124065
0.110584
0.0980742
0.0864419
0.0757268
0.0662471
0.0584742
0.0527133
0.0486339
0.0450017
0.0410639
0.0371277
0.0338665
0.0308098
0.0260359
0.016379
0.00138229
0.280571
0.262663
0.233322
0.207146
0.185049
0.164704
0.145969
0.128964
0.11363
0.0997445
0.0869798
0.0748928
0.0631546
0.0522195
0.0433614
0.0380706
0.0361943
0.034299
0.0293798
0.0216305
0.0146693
0.0126434
0.0163069
0.019337
0.00881388
0.2806
0.262673
0.233358
0.207195
0.185117
0.164783
0.146045
0.129035
0.1137
0.0998022
0.0870339
0.074988
0.0633194
0.0523831
0.0434095
0.0379778
0.0361693
0.0346169
0.0299874
0.0221697
0.0147115
0.0120525
0.0154144
0.0187068
0.00853924
0.280708
0.262778
0.233475
0.207316
0.185253
0.164931
0.1462
0.129197
0.113862
0.0999488
0.0871837
0.0751974
0.0636067
0.0526304
0.0434955
0.0379193
0.036287
0.0352398
0.0309273
0.022839
0.0145669
0.0110217
0.0140548
0.0178601
0.00831747
0.280876
0.262946
0.233647
0.2075
0.185451
0.165149
0.146441
0.129455
0.114127
0.100224
0.0874838
0.0755376
0.063963
0.0529189
0.0436813
0.0380862
0.0366816
0.0359925
0.031761
0.0232439
0.0142033
0.00997481
0.0129057
0.0173303
0.00833868
0.281096
0.26317
0.233879
0.207745
0.185717
0.165443
0.146763
0.129797
0.114488
0.10061
0.0878964
0.0759519
0.0643401
0.0532538
0.0440352
0.0385416
0.0372685
0.0366179
0.0322278
0.0233679
0.0139585
0.0095078
0.012537
0.017345
0.00854779
0.281365
0.263445
0.234165
0.208048
0.186047
0.165806
0.147159
0.130228
0.114958
0.101112
0.0884112
0.0764446
0.0648047
0.0537606
0.0446258
0.039177
0.0378128
0.0369493
0.0323834
0.0234916
0.0141831
0.00985555
0.0129151
0.0176166
0.00866192
0.281677
0.263765
0.234498
0.208405
0.186433
0.166228
0.147622
0.130739
0.115512
0.101683
0.0889693
0.0769941
0.0653905
0.0544292
0.0453493
0.0398041
0.0381818
0.0371073
0.0325681
0.0239297
0.0149123
0.010672
0.0134863
0.0176871
0.00849598
0.282027
0.264125
0.234875
0.208806
0.186867
0.166703
0.148147
0.131309
0.116116
0.102298
0.0895953
0.0776588
0.0661195
0.055194
0.0460758
0.0403833
0.0385809
0.0374712
0.0330797
0.0246427
0.0156781
0.0111904
0.0135139
0.0171967
0.0080349
0.282408
0.264517
0.235285
0.209245
0.187343
0.167225
0.148716
0.131918
0.116755
0.102959
0.0902832
0.0783855
0.0668694
0.0559184
0.0467505
0.0410179
0.039258
0.0382778
0.0339718
0.0254334
0.0161227
0.0110694
0.012824
0.0162296
0.00743916
0.282813
0.264934
0.235723
0.209714
0.187852
0.167782
0.149322
0.132569
0.117448
0.103697
0.0910597
0.0791733
0.0676331
0.0566294
0.0474323
0.0417176
0.0400507
0.0391906
0.0348527
0.0260674
0.0163184
0.0107111
0.0120404
0.0153721
0.00699681
0.283234
0.265368
0.236181
0.210202
0.188384
0.168365
0.149955
0.13325
0.118169
0.104461
0.0918604
0.0800087
0.0684946
0.0574926
0.0482777
0.0425188
0.0407903
0.0398406
0.0353687
0.0264049
0.0164696
0.0107022
0.0119269
0.0152253
0.00692975
0.283661
0.26581
0.236648
0.2107
0.188929
0.16896
0.150604
0.133952
0.118911
0.105232
0.0926624
0.0808604
0.0694186
0.0584837
0.0492734
0.0434244
0.0414825
0.040224
0.03549
0.0264038
0.0165397
0.0110316
0.0124986
0.0158229
0.00726743
0.284086
0.266249
0.237112
0.211195
0.18947
0.169557
0.151257
0.134661
0.119677
0.106037
0.093497
0.0817196
0.0703148
0.059446
0.0502859
0.0444478
0.0423809
0.0407759
0.0356064
0.026179
0.0162247
0.0109748
0.0128569
0.0164661
0.00775083
0.284496
0.266674
0.23756
0.211678
0.189999
0.170141
0.151899
0.135365
0.12045
0.106887
0.0944041
0.0826298
0.0711876
0.0602931
0.0511618
0.0454214
0.0434438
0.0417186
0.0360942
0.026041
0.0155499
0.0101373
0.0122753
0.0163998
0.00797639
0.284883
0.267074
0.237985
0.212139
0.190502
0.170697
0.152512
0.136037
0.121188
0.107703
0.0953098
0.0836035
0.0721581
0.0611818
0.0519885
0.0462849
0.0444663
0.0428385
0.0369598
0.0262837
0.0150205
0.00902326
0.0110372
0.0155389
0.00770837
0.285234
0.267439
0.238377
0.212568
0.190972
0.171213
0.153082
0.136662
0.121863
0.108436
0.096127
0.084539
0.0731887
0.0622031
0.0529312
0.0471333
0.0453123
0.043768
0.037824
0.0268282
0.0150526
0.00849374
0.0101011
0.0145321
0.0071597
0.285537
0.267755
0.238724
0.212951
0.191396
0.17168
0.153596
0.137221
0.122463
0.109064
0.0967959
0.0852946
0.0741076
0.0632973
0.0540993
0.0482271
0.0462097
0.0444329
0.0383296
0.0273048
0.0155677
0.00894446
0.0102132
0.0141573
0.00678425
0.285778
0.268016
0.239014
0.21327
0.191753
0.172078
0.154039
0.137708
0.122989
0.109613
0.0973478
0.0858583
0.074766
0.0641988
0.055277
0.0495688
0.0473083
0.0448828
0.0382844
0.0272738
0.0160657
0.0100389
0.0113975
0.0147648
0.00689366
0.285951
0.268217
0.239233
0.213515
0.192018
0.172375
0.154378
0.13809
0.123405
0.110052
0.0977752
0.0862303
0.0751319
0.0647804
0.0562507
0.0509041
0.0484801
0.0452611
0.0379114
0.0267659
0.0162256
0.0111131
0.0129343
0.0158931
0.00731988
0.286062
0.268371
0.239384
0.213669
0.192172
0.172538
0.154568
0.138311
0.123642
0.110304
0.0980214
0.0864241
0.0752777
0.0650291
0.0567874
0.0517532
0.0492763
0.0455034
0.0375465
0.0262215
0.0161277
0.0117162
0.013996
0.0167868
0.00770195
0.244652
0.235522
0.214554
0.192614
0.174364
0.157833
0.141721
0.126537
0.112796
0.100426
0.0889641
0.077678
0.0661009
0.0549892
0.046443
0.0422317
0.0410556
0.0381183
0.0287566
0.0135425
-0.000143725
-0.0029778
0.00822297
0.0245993
0.0175179
0.244704
0.235594
0.214653
0.192696
0.174427
0.157896
0.141786
0.126603
0.112859
0.10047
0.0890053
0.0777797
0.066289
0.0551516
0.0464114
0.0420011
0.040931
0.0384931
0.0296105
0.0143389
-8.9796e-05
-0.00390984
0.00674299
0.023483
0.0170843
0.244817
0.235714
0.214781
0.19282
0.174556
0.158036
0.141938
0.126762
0.113015
0.100611
0.0891604
0.0780209
0.0666142
0.0553895
0.0463768
0.0417825
0.0409803
0.0392569
0.0309226
0.0153466
-0.000287442
-0.00552181
0.00450964
0.0218613
0.0166339
0.244985
0.235886
0.214961
0.193012
0.17476
0.158257
0.142177
0.127013
0.113268
0.100872
0.0894606
0.0783815
0.0669815
0.0556357
0.0464408
0.0418393
0.0413841
0.0401977
0.0320867
0.0159776
-0.000797529
-0.00715243
0.00256047
0.0207336
0.0164504
0.245206
0.236111
0.215197
0.193261
0.175028
0.158549
0.142493
0.127345
0.113617
0.101252
0.0898747
0.0787939
0.0673371
0.0559251
0.0467412
0.0422772
0.0420326
0.0409653
0.0327155
0.016148
-0.00122076
-0.00802954
0.00169687
0.0204145
0.016537
0.245475
0.236387
0.215484
0.193566
0.175359
0.15891
0.142883
0.127764
0.11407
0.101736
0.090361
0.0792414
0.0677552
0.0563986
0.0473391
0.0429477
0.0426057
0.0413171
0.0328615
0.0162279
-0.00107362
-0.00779644
0.00193555
0.0205868
0.0165948
0.245787
0.236707
0.215818
0.193923
0.175744
0.15933
0.14334
0.128262
0.114602
0.102277
0.090878
0.0797458
0.068315
0.0570797
0.0480946
0.0435908
0.0429497
0.0413919
0.0329531
0.0166438
-0.000260157
-0.00684551
0.00258008
0.0206246
0.0163601
0.246139
0.237068
0.216195
0.194324
0.176177
0.159803
0.14386
0.128825
0.115188
0.102864
0.0914692
0.0803795
0.0690328
0.0578585
0.0488229
0.0441273
0.0432678
0.0416519
0.0334266
0.0174552
0.000735153
-0.0060945
0.00267741
0.0200074
0.0157565
0.246521
0.237462
0.216605
0.194764
0.176652
0.160322
0.144427
0.129429
0.11582
0.103519
0.0921581
0.0811108
0.0697828
0.0585659
0.0494362
0.0446635
0.0438416
0.0424028
0.0343811
0.018444
0.00142945
-0.00605976
0.00191833
0.0187616
0.0149692
0.246928
0.23788
0.217044
0.195234
0.177161
0.160877
0.145027
0.130071
0.116504
0.10425
0.0929312
0.0818984
0.0705342
0.0592374
0.0500411
0.0452847
0.0445971
0.0433329
0.035376
0.0192499
0.0017617
-0.00638371
0.00100587
0.0176909
0.014375
0.247351
0.238316
0.217504
0.195723
0.177693
0.161458
0.145656
0.130748
0.117223
0.105006
0.0937186
0.0827121
0.0713634
0.0600632
0.0508452
0.0460513
0.0453154
0.0439736
0.0359005
0.0196047
0.00191322
-0.00640843
0.00086828
0.0175161
0.0142998
0.247781
0.23876
0.217972
0.196222
0.178239
0.162053
0.146307
0.131452
0.117964
0.105766
0.094492
0.0835179
0.0722376
0.0610221
0.0518443
0.0469766
0.0460126
0.0443287
0.0359255
0.0194604
0.00184352
-0.00615073
0.00151884
0.0182916
0.014779
0.248207
0.239201
0.218438
0.196719
0.178782
0.162651
0.146961
0.132164
0.118727
0.106563
0.0952996
0.0843239
0.0730605
0.0619121
0.0528343
0.0480221
0.0469408
0.0448977
0.0359697
0.0190581
0.00131237
-0.00634126
0.00196477
0.0192391
0.0154698
0.24862
0.239628
0.218887
0.197204
0.179312
0.163235
0.147601
0.132862
0.119492
0.107397
0.0961818
0.0851958
0.0738616
0.0626524
0.0536164
0.0489767
0.0480584
0.045926
0.0365016
0.0188431
0.000471748
-0.00732551
0.00140513
0.0193847
0.0158687
0.249009
0.240031
0.219313
0.197667
0.179817
0.163791
0.148213
0.133528
0.120215
0.108195
0.0970711
0.0861472
0.0747799
0.0634446
0.054313
0.0497516
0.0490796
0.0471166
0.0374859
0.0191553
-7.96199e-05
-0.00849023
0.000160896
0.0185925
0.0157048
0.249363
0.240397
0.219705
0.198095
0.180286
0.164308
0.148783
0.134149
0.120877
0.108901
0.0978573
0.087051
0.0757762
0.0644237
0.0551769
0.0505163
0.0498787
0.048033
0.0384288
0.0198644
0.0001317
-0.00883486
-0.000632663
0.0176076
0.0151771
0.249667
0.240714
0.22005
0.198475
0.180709
0.164777
0.149301
0.134716
0.121481
0.109521
0.0984971
0.0877672
0.0766547
0.0654883
0.056335
0.051578
0.0506834
0.0485395
0.0388075
0.0204151
0.00099285
-0.00782785
5.08738e-05
0.017474
0.0148442
0.249909
0.240972
0.220332
0.198787
0.181059
0.165173
0.149748
0.135214
0.122022
0.110076
0.099021
0.0882655
0.0772516
0.0663896
0.0576171
0.0530016
0.051705
0.0487237
0.0383561
0.0201877
0.00180076
-0.00587727
0.00234164
0.0188732
0.0152154
0.25008
0.241161
0.220543
0.199028
0.18133
0.165477
0.150097
0.135613
0.122467
0.110542
0.0994373
0.0885683
0.0775335
0.0669581
0.0587322
0.054509
0.0528827
0.0488295
0.0374161
0.0191797
0.00199114
-0.0039936
0.00517445
0.0212335
0.0161562
0.250172
0.241254
0.220631
0.19915
0.181487
0.165657
0.150305
0.135859
0.122749
0.110843
0.0997055
0.0887271
0.0776159
0.0671931
0.0593796
0.0555111
0.0537231
0.0489082
0.0366349
0.0181688
0.00175083
-0.00294778
0.00712626
0.0230966
0.0169923
0.220119
0.214689
0.201512
0.185767
0.17087
0.156296
0.141415
0.127112
0.114046
0.102183
0.0909927
0.0796933
0.0679182
0.0566851
0.0483406
0.0444447
0.0428946
0.0378911
0.0244833
0.00454287
-0.0114316
-0.0114274
0.00742481
0.0322509
0.0245664
0.220177
0.214743
0.20157
0.185819
0.170919
0.156355
0.141486
0.127186
0.114113
0.102234
0.0910529
0.0798213
0.0681174
0.0568248
0.0482588
0.0441765
0.0427825
0.0383446
0.0254656
0.00542142
-0.0114297
-0.0126079
0.00559201
0.0308674
0.0241372
0.220291
0.214858
0.201688
0.18594
0.171048
0.1565
0.141642
0.127346
0.114267
0.102378
0.0912254
0.080085
0.0684404
0.0570144
0.0481488
0.0439192
0.0428776
0.0392278
0.0269259
0.00648954
-0.0117963
-0.014629
0.00289799
0.0290427
0.0236121
0.22046
0.215029
0.201866
0.186127
0.171248
0.156716
0.141874
0.127588
0.114511
0.102635
0.0915297
0.0804487
0.0687886
0.0572101
0.0481552
0.0439665
0.0433504
0.0402916
0.0282036
0.00712283
-0.0125264
-0.0166705
0.000568698
0.0276936
0.0233507
0.220681
0.215255
0.202101
0.186375
0.171514
0.157005
0.142185
0.127914
0.114853
0.10301
0.0919387
0.0808508
0.0691247
0.057474
0.0484372
0.0444166
0.0440474
0.0411325
0.0288726
0.00723567
-0.0131444
-0.0178323
-0.000547072
0.0272044
0.0233754
0.220951
0.215531
0.202389
0.186679
0.171843
0.157361
0.142568
0.128324
0.115294
0.103479
0.0924043
0.0812758
0.0695253
0.0579371
0.0490339
0.045091
0.0446289
0.0414891
0.0290018
0.00726212
-0.0130909
-0.017719
-0.000430957
0.0272651
0.0233986
0.221265
0.215853
0.202724
0.187036
0.172227
0.157778
0.143021
0.128814
0.115812
0.104
0.0929026
0.0817679
0.0700825
0.0586221
0.0497891
0.0457186
0.0449462
0.0415385
0.0290741
0.00767661
-0.0122667
-0.0167776
0.000146803
0.0271857
0.0231123
0.221617
0.216214
0.203101
0.187437
0.172659
0.158248
0.143536
0.129366
0.116383
0.104569
0.0934754
0.0823862
0.0707881
0.0593875
0.0504898
0.0462079
0.0452113
0.0417711
0.0295732
0.00857309
-0.0111829
-0.0160048
0.000163728
0.0264243
0.0224294
0.222001
0.216609
0.203512
0.187877
0.173133
0.158764
0.144097
0.129963
0.117004
0.105213
0.0941563
0.0831098
0.0715246
0.0600671
0.0510513
0.046673
0.0457165
0.0424938
0.0305788
0.00968717
-0.0103875
-0.0159771
-0.000704006
0.025046
0.0215483
0.22241
0.217029
0.203953
0.188348
0.17364
0.159316
0.144692
0.130598
0.11768
0.105933
0.094917
0.083883
0.0722547
0.060705
0.0516073
0.0472409
0.0464266
0.0434126
0.0316196
0.0105762
-0.0100005
-0.0163185
-0.00169507
0.0238448
0.0208783
0.222835
0.217467
0.204414
0.188838
0.174172
0.159895
0.145318
0.13127
0.118391
0.106676
0.0956852
0.0846686
0.0730472
0.0614908
0.0523741
0.0479772
0.0471183
0.0440321
0.0321242
0.0109109
-0.00985991
-0.0163474
-0.00184265
0.0236538
0.0207858
0.223267
0.217913
0.204884
0.189338
0.174719
0.160488
0.145965
0.131968
0.119125
0.107425
0.0964365
0.0854391
0.0738779
0.0624121
0.053354
0.0488961
0.0478082
0.0443569
0.0320772
0.0106559
-0.0100164
-0.0161096
-0.00115523
0.0245216
0.0213201
0.223696
0.218356
0.205351
0.189837
0.175262
0.161084
0.146616
0.132676
0.119882
0.10821
0.0972216
0.0862063
0.0746505
0.0632553
0.054318
0.0499337
0.0487333
0.0449009
0.0320493
0.010125
-0.0106722
-0.0163314
-0.000633854
0.0256093
0.0221178
0.224111
0.218786
0.205803
0.190324
0.175792
0.161667
0.147252
0.133369
0.120638
0.109028
0.0980764
0.0870359
0.0753979
0.0639416
0.0550642
0.0508768
0.0498535
0.0459213
0.0325384
0.00981505
-0.011609
-0.017328
-0.00107344
0.0259595
0.0226492
0.224502
0.21919
0.206231
0.190788
0.176299
0.162222
0.147861
0.134029
0.121351
0.10981
0.0989399
0.0879466
0.0762602
0.0646715
0.0557077
0.0516235
0.0508696
0.047112
0.0335097
0.0100916
-0.0121856
-0.0184575
-0.00216993
0.0253909
0.0226201
0.224857
0.219558
0.206624
0.191218
0.17677
0.162741
0.14843
0.134643
0.122001
0.1105
0.0997023
0.088818
0.0772132
0.0655993
0.0565193
0.0523468
0.0516386
0.0480116
0.0344636
0.0108671
-0.0118509
-0.0186463
-0.0027986
0.0245894
0.0221757
0.225163
0.219876
0.20697
0.191601
0.177194
0.163212
0.14895
0.135209
0.122598
0.111105
0.100319
0.0895066
0.0780623
0.0666332
0.0576342
0.0533351
0.0523353
0.0484159
0.0348289
0.0115662
-0.0106619
-0.0172277
-0.0017879
0.0246331
0.0218283
0.225406
0.220136
0.207256
0.191918
0.177547
0.163611
0.149401
0.135713
0.12314
0.111646
0.10081
0.0899642
0.0786386
0.0675469
0.0589335
0.0546969
0.0531906
0.0484
0.0342781
0.0114795
-0.00939706
-0.014591
0.00110812
0.0262577
0.0221498
0.225578
0.22033
0.207476
0.192161
0.177815
0.16391
0.149748
0.136116
0.123589
0.112098
0.101184
0.0902141
0.0788978
0.0681508
0.0601128
0.0561917
0.0542136
0.0482546
0.0331197
0.0105001
-0.00881858
-0.011986
0.00471099
0.0289389
0.0231474
0.225663
0.220442
0.207605
0.192312
0.177983
0.164093
0.149955
0.136362
0.123872
0.112389
0.101415
0.0903214
0.0789481
0.0684018
0.060809
0.0572115
0.0549705
0.0481419
0.0321352
0.0094422
-0.00885346
-0.0104344
0.00726861
0.0311175
0.0240949
0.202996
0.199361
0.190076
0.177598
0.164425
0.15111
0.137687
0.124682
0.112575
0.10139
0.0907159
0.0799413
0.0688496
0.0583726
0.0504602
0.0461451
0.0431897
0.0362494
0.0213922
0.00182411
-0.0112075
-0.00622109
0.017134
0.0429354
0.030198
0.203054
0.199414
0.190139
0.177666
0.164495
0.151184
0.137764
0.124758
0.112645
0.101447
0.09078
0.0800607
0.0690261
0.0584933
0.0503848
0.0459198
0.0431329
0.0367224
0.0223343
0.00259455
-0.0113329
-0.00749091
0.0153082
0.0416449
0.0297925
0.203168
0.199529
0.19026
0.177794
0.16463
0.15133
0.137918
0.124916
0.112798
0.101594
0.0909542
0.0803114
0.0693214
0.0586644
0.0502911
0.0457216
0.0432975
0.037631
0.0237316
0.00350617
-0.0118925
-0.00964694
0.0125829
0.0398838
0.0293005
0.203338
0.199701
0.190438
0.177983
0.164833
0.151549
0.13815
0.125156
0.113042
0.101853
0.0912556
0.080659
0.0696437
0.0588424
0.0503133
0.0458187
0.0438246
0.0387032
0.0249406
0.00399412
-0.0128222
-0.01186
0.0101759
0.0385562
0.0290703
0.20356
0.199928
0.190674
0.178232
0.165101
0.151837
0.138458
0.125478
0.113381
0.102223
0.0916556
0.0810469
0.0699637
0.0590956
0.0506013
0.0462921
0.0445496
0.0395395
0.0255529
0.00398984
-0.0136092
-0.0131797
0.00897426
0.0380621
0.0291153
0.20383
0.200204
0.190962
0.178537
0.165429
0.152192
0.138839
0.125884
0.113814
0.102681
0.0921099
0.0814629
0.0703551
0.059546
0.0511859
0.0469659
0.0451439
0.039897
0.0256482
0.00393215
-0.0136789
-0.0131904
0.00901059
0.0380965
0.0291405
0.204145
0.200527
0.191298
0.178893
0.165812
0.152607
0.139289
0.126367
0.114322
0.10319
0.0925997
0.0819491
0.0709021
0.0602108
0.0519153
0.0475775
0.0454665
0.0399555
0.0257114
0.00430226
-0.012937
-0.0123569
0.00949511
0.0379562
0.0288391
0.204499
0.20089
0.191676
0.179294
0.166243
0.153076
0.1398
0.126912
0.114882
0.103749
0.0931632
0.0825555
0.0715875
0.0609461
0.0525822
0.0480449
0.0457277
0.0402002
0.0262232
0.00519011
-0.0119116
-0.0116851
0.00941067
0.037125
0.0281395
0.204884
0.201286
0.192088
0.179735
0.166716
0.153589
0.140356
0.127502
0.115495
0.104385
0.0938338
0.0832644
0.0723024
0.0615966
0.0531103
0.0484786
0.0462088
0.0409112
0.0272316
0.00630164
-0.0111554
-0.0117304
0.00847729
0.0357089
0.0272449
0.205295
0.201708
0.19253
0.180206
0.167222
0.154139
0.140947
0.128131
0.116162
0.105093
0.0945795
0.0840194
0.0730113
0.0622098
0.0536371
0.0490109
0.0468798
0.041795
0.0282497
0.00718618
-0.0107788
-0.0121005
0.00746138
0.0344879
0.0265616
0.205722
0.202148
0.192992
0.180696
0.167753
0.154715
0.141569
0.128796
0.116865
0.105824
0.0953301
0.084782
0.0737759
0.0629644
0.0543713
0.049714
0.0475344
0.0423732
0.0287121
0.00749349
-0.0106477
-0.0121332
0.00729895
0.0342704
0.0264451
0.206156
0.202595
0.193464
0.181197
0.168299
0.155307
0.142213
0.12949
0.117591
0.10656
0.0960637
0.0855274
0.0745746
0.063851
0.0553194
0.0506059
0.0481969
0.0426641
0.0286247
0.00719376
-0.0108319
-0.0119057
0.00796041
0.0350944
0.0269538
0.206587
0.203041
0.193933
0.181697
0.168843
0.155901
0.142859
0.130192
0.118339
0.107332
0.0968286
0.086267
0.0753154
0.0646626
0.0562547
0.0516124
0.0490859
0.0431693
0.0285602
0.00662828
-0.0115066
-0.0121301
0.00846789
0.0361616
0.0277421
0.207004
0.203472
0.194386
0.182184
0.169372
0.156481
0.143492
0.130879
0.119086
0.108134
0.0976576
0.0870635
0.0760306
0.0653247
0.056983
0.052528
0.0501635
0.0441391
0.0290065
0.00629655
-0.0124334
-0.013085
0.00808186
0.036563
0.0282901
0.207397
0.203879
0.194815
0.182649
0.169877
0.157035
0.144097
0.131533
0.119789
0.1089
0.0984936
0.0879384
0.0768578
0.0660284
0.0576084
0.0532523
0.0511401
0.0452759
0.0299266
0.00655745
-0.0129747
-0.0141272
0.00710381
0.0361058
0.0283132
0.207754
0.204249
0.19521
0.18308
0.170349
0.157552
0.144663
0.132141
0.120428
0.109572
0.0992321
0.0887807
0.0777811
0.0669285
0.058392
0.0539447
0.0518682
0.046132
0.0308519
0.00735439
-0.0125473
-0.0141826
0.0065913
0.0353946
0.0279204
0.208061
0.204568
0.195557
0.183462
0.170772
0.158021
0.145181
0.132702
0.121015
0.110162
0.099832
0.0894549
0.0786155
0.0679395
0.0594621
0.0548643
0.0524866
0.046495
0.0312549
0.00817917
-0.0111602
-0.0125724
0.0076831
0.0354131
0.0275426
0.208306
0.204828
0.195843
0.183777
0.171122
0.158417
0.14563
0.1332
0.121546
0.110687
0.100311
0.0899121
0.0791973
0.0688432
0.0607047
0.0561108
0.0532115
0.0464367
0.0308271
0.00836965
-0.0095427
-0.00966735
0.0106405
0.0368719
0.0277061
0.208478
0.205023
0.196061
0.184015
0.171385
0.158716
0.145978
0.133602
0.121987
0.111126
0.100678
0.0901755
0.0794865
0.0694568
0.0618256
0.0574626
0.0540703
0.0462302
0.0298098
0.00775152
-0.00849157
-0.00669746
0.0143422
0.039347
0.0284711
0.208565
0.205136
0.196186
0.18415
0.171534
0.158885
0.146179
0.133845
0.122264
0.111406
0.100903
0.0902965
0.079571
0.0697291
0.062486
0.0583788
0.0546978
0.04605
0.0289064
0.00697561
-0.00812869
-0.0048115
0.0169993
0.0414118
0.0292832
0.190865
0.188096
0.180968
0.170911
0.159678
0.147958
0.135953
0.12404
0.112638
0.101878
0.0915414
0.0812102
0.0706902
0.0605909
0.0523592
0.0468245
0.0423438
0.0348744
0.0216918
0.0060819
-0.00218437
0.0059207
0.0285265
0.0493721
0.0313054
0.190924
0.188151
0.181029
0.170975
0.159743
0.148024
0.136022
0.124113
0.112711
0.101939
0.0916007
0.0813125
0.0708523
0.0607267
0.0523379
0.0466632
0.0423206
0.0353061
0.0225167
0.0067301
-0.00239527
0.00470533
0.0268879
0.0482142
0.0309277
0.191039