/*--------------------------------*- C++ -*----------------------------------*\
  =========                 |
  \\      /  F ield         | OpenFOAM: The Open Source CFD Toolbox
   \\    /   O peration     | Website:  https://openfoam.org
    \\  /    A nd           | Version:  12
     \\/     M anipulation  |
\*---------------------------------------------------------------------------*/
FoamFile
{
    format      ascii;
    class       surfaceScalarField;
    location    "50";
    object      phi;
}
// * * * * * * * * * * * * * * * * * * * * * * * * * * * * * * * * * * * * * //

dimensions      [0 3 -1 0 0 0 0];

internalField   nonuniform List<scalar> 
14050
(
1958.43
0.00186364
1.56
1956.2
-0.00276615
2.23153
1953.79
-0.00260213
2.41075
1951.36
-0.000840996
2.42997
1948.91
-6.05045e-05
2.44091
1946.49
0.000319615
2.42653
1944.09
0.000943356
2.38874
1941.75
0.00227745
2.33989
1939.46
0.00327422
2.28252
1937.23
0.00304166
2.22591
1935.06
0.00191886
2.1696
1932.95
0.000460642
2.11569
1930.89
-0.00125143
2.06349
1928.88
-0.00422059
2.01044
1926.93
-0.00836674
1.9615
1925.03
-0.00919139
1.9123
1923.17
-0.00505737
1.87385
1921.34
-0.00165628
1.83854
1919.54
0.001086
1.80375
1917.77
0.00385474
1.77058
1916.02
0.00700408
1.74109
1914.28
0.00845382
1.73192
1912.52
0.00986804
1.73648
1910.71
0.013054
1.79435
0.0187684
1.81705
1958.44
-0.00237177
1.5649
1956.2
-0.00373375
2.23406
1953.79
-0.0044298
2.41179
1951.35
-0.00257816
2.43
1948.91
-0.000794294
2.44073
1946.48
0.000305173
2.42645
1944.09
0.00113925
2.38761
1941.75
0.00161017
2.33753
1939.47
0.00150898
2.28011
1937.25
0.00174662
2.22316
1935.08
0.00146477
2.16679
1932.97
0.000580934
2.11362
1930.91
0.000473731
2.06271
1928.9
-0.00280337
2.01151
1926.94
-0.0069847
1.96187
1925.02
-0.00691679
1.91808
1923.14
-0.00463461
1.8841
1921.31
-0.0021752
1.84438
1919.51
-0.000513352
1.80713
1917.75
0.00110405
1.77162
1916.01
0.00316434
1.74052
1914.28
0.00572059
1.7243
1912.54
0.0104282
1.73047
1910.73
0.0177334
1.79316
0.0292181
1.82194
1958.43
-0.00450245
1.56429
1956.2
-0.0062273
2.23413
1953.79
-0.00652128
2.41221
1951.35
-0.00372431
2.42997
1948.91
-0.00148954
2.44068
1946.48
9.43711e-05
2.42654
1944.09
0.000510174
2.38832
1941.75
0.000218935
2.33825
1939.47
-0.000292732
2.28327
1937.25
-0.00115718
2.22056
1935.09
-0.00133903
2.16479
1932.98
-0.00142479
2.11103
1930.93
-0.00133286
2.05948
1928.91
-0.000706916
2.01093
1926.95
-0.00138523
1.9644
1925.02
-0.000710288
1.92131
1923.14
0.00131724
1.88102
1921.3
0.00101106
1.85021
1919.49
0.000196096
1.81138
1917.73
-0.000424496
1.77428
1915.98
-0.000128938
1.74164
1914.26
0.00127025
1.72467
1912.52
0.00658835
1.73036
1910.73
0.0133253
1.79035
0.0225506
1.8288
1958.43
-0.00618178
1.56414
1956.2
-0.00836465
2.23387
1953.79
-0.00836774
2.41194
1951.35
-0.00462406
2.42983
1948.91
-0.00189848
2.44064
1946.48
-6.22837e-05
2.42643
1944.09
0.000889274
2.38891
1941.75
0.00187608
2.33958
1939.46
0.00171976
2.28157
1937.23
0.00101681
2.22516
1935.06
0.00146247
2.16884
1932.94
0.00216931
2.11552
1930.88
0.00296676
2.06335
1928.86
0.00213262
2.01347
1926.9
0.00164072
1.96634
1924.98
0.00154939
1.92109
1923.1
-0.000923741
1.88362
1921.27
-0.00308841
1.84131
1919.48
-0.00496052
1.80415
1917.72
-0.006156
1.76858
1915.99
-0.00612838
1.73713
1914.26
-0.00460797
1.72151
1912.53
-0.000853824
1.7289
1910.75
0.0029913
1.7919
0.00740262
1.83053
1958.43
-0.0076357
1.5641
1956.2
-0.0102298
2.23375
1953.78
-0.0101855
2.41192
1951.35
-0.00549571
2.42988
1948.91
-0.00219466
2.44067
1946.48
-1.83136e-05
2.42641
1944.09
0.00139155
2.38921
1941.75
0.00126446
2.33665
1939.47
0.000916033
2.28327
1937.24
0.0015383
2.22524
1935.07
0.0027926
2.16837
1932.95
0.0043794
2.11414
1930.89
0.00321958
2.06082
1928.89
0.00168849
2.01055
1926.93
0.00213997
1.96271
1925.01
-0.00113909
1.92173
1923.15
-0.00610105
1.87659
1921.32
-0.00844682
1.83946
1919.53
-0.0100421
1.80385
1917.77
-0.010668
1.76904
1916.03
-0.00993404
1.73838
1914.3
-0.00811312
1.72305
1912.57
-0.00606274
1.73064
1910.77
-0.00449808
1.79446
-0.0104695
1.84161
1958.43
-0.00892872
1.56411
1956.2
-0.0119093
2.23371
1953.78
-0.0118063
2.41186
1951.35
-0.00627851
2.42987
1948.91
-0.00240421
2.44066
1946.48
9.84029e-06
2.4265
1944.09
0.0016559
2.38915
1941.75
0.00179615
2.33908
1939.46
0.000508332
2.28503
1937.24
0.000290371
2.22423
1935.07
0.00198641
2.16687
1932.96
0.00586931
2.11148
1930.89
0.00863644
2.06025
1928.88
0.00937772
2.01162
1926.91
0.00855923
1.96383
1924.99
0.00454618
1.91991
1923.11
-0.00243194
1.88
1921.27
-0.00921407
1.84937
1919.47
-0.0140856
1.81064
1917.71
-0.017323
1.77317
1915.97
-0.0177633
1.74035
1914.25
-0.0173574
1.72291
1912.52
-0.0172108
1.72839
1910.74
-0.0176233
1.79164
-0.0245713
1.8378
1958.43
-0.0100611
1.56413
1956.2
-0.0133773
2.23368
1953.78
-0.0132252
2.41181
1951.35
-0.00689681
2.42989
1948.91
-0.00267312
2.44063
1946.48
0.000120817
2.42652
1944.09
0.00185942
2.38898
1941.74
0.00234066
2.34039
1939.45
0.00205758
2.28733
1937.22
0.00175539
2.22896
1935.05
0.000555782
2.17059
1932.95
-0.000889995
2.11084
1930.91
-0.000216963
2.04959
1928.92
0.00177015
1.99882
1926.98
0.00259289
1.9506
1925.08
0.00129054
1.90885
1923.21
-0.00232775
1.87404
1921.37
-0.00641929
1.84225
1919.57
-0.00965018
1.81038
1917.79
-0.0121826
1.77719
1916.03
-0.0148576
1.75264
1914.29
-0.0171072
1.73348
1912.54
-0.019761
1.73654
1910.74
-0.0228501
1.79913
-0.0260996
1.8374
1958.43
-0.0110146
1.56416
1956.2
-0.0146001
2.23365
1953.78
-0.0143705
2.4118
1951.35
-0.00739474
2.42987
1948.91
-0.0028181
2.44065
1946.48
0.000194668
2.42653
1944.09
0.00223186
2.38893
1941.74
0.00329428
2.34036
1939.45
0.00457385
2.28829
1937.22
0.0061711
2.22837
1935.04
0.0059393
2.17131
1932.92
0.00343585
2.11305
1930.87
0.000232853
2.05741
1928.87
-0.0034477
2.00634
1926.93
-0.00619972
1.94873
1925.04
-0.0065949
1.90494
1923.18
-0.006572
1.8696
1921.35
-0.00893363
1.83843
1919.55
-0.0102392
1.80674
1917.78
-0.0113086
1.7738
1916.03
-0.0149913
1.74896
1914.29
-0.0182211
1.73046
1912.55
-0.0220727
1.73378
1910.75
-0.0262756
1.7965
-0.0230648
1.83247
1958.43
-0.011766
1.56419
1956.2
-0.0155861
2.23361
1953.78
-0.0151887
2.41178
1951.35
-0.00779914
2.42986
1948.91
-0.00289461
2.44066
1946.48
0.000272878
2.42658
1944.08
0.00225666
2.38885
1941.74
0.0030909
2.34032
1939.46
0.00237596
2.28762
1937.23
0.000294474
2.22775
1935.08
-0.00158622
2.16332
1932.98
-0.00284143
2.10604
1930.93
-0.00324389
2.05207
1928.93
-0.0019418
2.0022
1926.97
-0.000755253
1.95416
1925.06
-0.0011117
1.9114
1923.18
-0.00162236
1.87634
1921.34
-0.00328896
1.84419
1919.53
-0.00699906
1.81795
1917.75
-0.0119101
1.78194
1916
-0.017072
1.74809
1914.27
-0.0206416
1.72897
1912.53
-0.0248823
1.73194
1910.73
-0.028816
1.79263
-0.022819
1.82598
1958.43
-0.0122923
1.56423
1956.2
-0.0162619
2.23357
1953.78
-0.0157036
2.41171
1951.35
-0.00799573
2.42986
1948.9
-0.00296343
2.44068
1946.48
0.000286557
2.42658
1944.08
0.00244557
2.38893
1941.74
0.00328493
2.34045
1939.45
0.00408083
2.2886
1937.22
0.00352808
2.22736
1935.05
0.000258567
2.16983
1932.93
-0.00212108
2.11227
1930.88
-0.00360357
2.05679
1928.88
-0.00557915
2.00658
1926.94
-0.00595597
1.94878
1925.04
-0.0051448
1.90407
1923.18
-0.0046336
1.86878
1921.35
-0.00635479
1.83795
1919.56
-0.00863788
1.80607
1917.79
-0.0111981
1.77286
1916.03
-0.0162532
1.74856
1914.29
-0.0213694
1.73063
1912.55
-0.0268024
1.7344
1910.75
-0.0309037
1.79587
-0.0268361
1.82727
1958.43
-0.0125584
1.56426
1956.2
-0.0166384
2.23351
1953.78
-0.0158363
2.4116
1951.35
-0.00801021
2.42982
1948.9
-0.00296109
2.44063
1946.47
0.000363718
2.42655
1944.08
0.00266978
2.38879
1941.74
0.00396415
2.34095
1939.45
0.00462752
2.2851
1937.22
0.00501196
2.22833
1935.05
0.00438369
2.17153
1932.93
0.00240656
2.11533
1930.87
-0.00046225
2.06046
1928.86
-0.0035081
2.0085
1926.9
-0.00672139
1.95919
1925
-0.00883175
1.90625
1923.14
-0.00990629
1.8684
1921.32
-0.0112974
1.83632
1919.53
-0.0130371
1.80406
1917.76
-0.0151301
1.77119
1916.02
-0.0177456
1.74121
1914.28
-0.0205884
1.7254
1912.54
-0.0239013
1.73126
1910.73
-0.0283099
1.79902
-0.0295906
1.83377
1958.43
-0.0125486
1.5643
1956.2
-0.0166704
2.23345
1953.78
-0.0155875
2.41154
1951.35
-0.00781755
2.42978
1948.9
-0.00291127
2.44057
1946.47
0.00036891
2.42646
1944.08
0.00268875
2.38877
1941.74
0.00427446
2.34084
1939.45
0.00517718
2.28464
1937.22
0.00665993
2.22703
1935.05
0.00898676
2.16975
1932.93
0.00819962
2.11376
1930.87
0.00413161
2.05963
1928.86
-0.000680633
2.00884
1926.9
-0.00725199
1.96043
1925
-0.0128231
1.90775
1923.14
-0.0149788
1.86914
1921.32
-0.0161758
1.83669
1919.52
-0.0171109
1.80433
1917.76
-0.0182277
1.7713
1916.01
-0.0192301
1.74154
1914.28
-0.0200627
1.72598
1912.53
-0.0213891
1.73225
1910.72
-0.0260089
1.80083
-0.0273727
1.8375
1958.43
-0.0122671
1.56433
1956.19
-0.0163552
2.23338
1953.78
-0.014937
2.41152
1951.35
-0.00747207
2.42975
1948.9
-0.00280991
2.44055
1946.47
0.000191608
2.42639
1944.08
0.00217688
2.38873
1941.74
0.00307567
2.3403
1939.45
0.00291631
2.28727
1937.23
0.00212198
2.22625
1935.08
0.00338128
2.1611
1932.98
0.0042487
2.10418
1930.93
0.00236967
2.05145
1928.93
0.000781391
2.00298
1926.97
-0.00156426
1.95524
1925.06
-0.00778
1.91175
1923.18
-0.0138186
1.88038
1921.34
-0.0162256
1.84441
1919.54
-0.0182143
1.81007
1917.77
-0.0191225
1.77524
1916.02
-0.0199508
1.74413
1914.28
-0.0213677
1.72793
1912.54
-0.0233335
1.73408
1910.74
-0.0263108
1.79861
-0.0211242
1.83455
1958.43
-0.0117086
1.56436
1956.19
-0.0156605
2.23332
1953.78
-0.0138863
2.41147
1951.34
-0.00695745
2.42975
1948.9
-0.00265559
2.44055
1946.47
6.53963e-05
2.42641
1944.08
0.0017107
2.38866
1941.74
0.0028421
2.34019
1939.45
0.00259941
2.28548
1937.23
0.00137651
2.22726
1935.06
0.000535906
2.1668
1932.97
0.000223634
2.10174
1930.92
9.32499e-05
2.04845
1928.93
-0.00102639
1.99886
1926.98
-0.00309699
1.95132
1925.07
-0.00600014
1.91063
1923.19
-0.00875685
1.87476
1921.35
-0.0130149
1.84825
1919.54
-0.0184465
1.81346
1917.77
-0.0212058
1.7776
1916.02
-0.0226066
1.74547
1914.29
-0.024535
1.72798
1912.55
-0.0279817
1.73353
1910.75
-0.0326433
1.79842
-0.0253894
1.84209
1958.43
-0.0108578
1.56437
1956.19
-0.0145274
2.23326
1953.78
-0.0124846
2.41141
1951.34
-0.00624107
2.42977
1948.9
-0.00253546
2.44056
1946.47
-0.000156691
2.42641
1944.08
0.00129857
2.38877
1941.74
0.00149997
2.33998
1939.45
0.000383512
2.28582
1937.23
-0.00157699
2.22722
1935.07
-0.00407421
2.16602
1932.97
-0.00424758
2.10146
1930.93
-0.0016506
2.04788
1928.93
-0.00136319
1.99848
1926.98
-0.00351439
1.95135
1925.07
-0.0046533
1.91088
1923.2
-0.00653861
1.87667
1921.36
-0.00979019
1.84488
1919.55
-0.0135002
1.81167
1917.76
-0.0176929
1.7836
1916.01
-0.0214549
1.75058
1914.27
-0.0252866
1.7318
1912.52
-0.0311886
1.73619
1910.72
-0.0399944
1.79967
-0.0382053
1.84464
1958.43
-0.00972195
1.56439
1956.19
-0.0129149
2.23323
1953.78
-0.0107167
2.4114
1951.34
-0.00539687
2.42978
1948.9
-0.00239141
2.44056
1946.47
-0.000298739
2.42642
1944.08
0.00101941
2.38873
1941.74
0.00156065
2.34031
1939.45
0.00174737
2.28677
1937.21
0.00193099
2.22931
1935.04
0.00234179
2.16891
1932.93
-0.000139846
2.11038
1930.87
-0.00394313
2.05441
1928.88
-0.00494196
1.9961
1926.94
-0.00729075
1.94803
1925.04
-0.0105316
1.90641
1923.18
-0.0113522
1.87112
1921.35
-0.0114956
1.83936
1919.55
-0.0121981
1.80691
1917.77
-0.01463
1.77938
1916.01
-0.0191666
1.7471
1914.28
-0.0253473
1.72967
1912.53
-0.0339985
1.73536
1910.73
-0.0460135
1.79785
-0.0537201
1.84358
1958.43
-0.00835662
1.56443
1956.19
-0.0108529
2.23325
1953.78
-0.00851323
2.41141
1951.34
-0.00446546
2.42977
1948.9
-0.00222499
2.44054
1946.47
-0.000472657
2.42635
1944.08
0.000541561
2.38866
1941.74
0.000902961
2.34013
1939.45
0.00109924
2.28677
1937.22
0.000389734
2.22868
1935.06
-0.00173956
2.1672
1932.96
-0.00377176
2.10256
1930.92
-0.0056972
2.04753
1928.92
-0.00679926
1.99666
1926.97
-0.00758362
1.95197
1925.06
-0.00818226
1.9137
1923.18
-0.00741038
1.87873
1921.34
-0.00676792
1.84598
1919.53
-0.00600562
1.81171
1917.74
-0.00800743
1.78259
1915.98
-0.0127489
1.7484
1914.24
-0.0204695
1.72978
1912.49
-0.0320612
1.73529
1910.69
-0.0460456
1.79551
-0.0620909
1.83876
1958.43
-0.00685972
1.56456
1956.19
-0.00836838
2.23339
1953.77
-0.0060504
2.41164
1951.34
-0.0036801
2.42993
1948.9
-0.0020302
2.44067
1946.47
-0.000647593
2.42639
1944.08
0.000207526
2.38857
1941.74
0.000945235
2.34013
1939.45
0.00086787
2.28713
1937.22
-0.000549814
2.22831
1935.06
-0.00237381
2.16444
1932.95
-0.00299288
2.10633
1930.9
-0.00423106
2.05064
1928.9
-0.00613253
1.99823
1926.95
-0.00612818
1.95243
1925.04
-0.00476168
1.9125
1923.16
-0.00549595
1.88194
1921.32
-0.00714649
1.84561
1919.52
-0.00711785
1.80946
1917.75
-0.00741378
1.77355
1916
-0.00939238
1.74063
1914.26
-0.0139166
1.72342
1912.51
-0.0232649
1.73077
1910.7
-0.0360208
1.79391
-0.0550719
1.82982
1958.43
-0.00705143
1.56522
1956.19
-0.00382336
2.23333
1953.77
-0.00307881
2.41112
1951.34
-0.00279877
2.42981
1948.9
-0.00175321
2.44056
1946.47
-0.000606931
2.42627
1944.08
-0.000138207
2.3886
1941.74
0.000405707
2.33999
1939.45
0.00183543
2.28646
1937.22
0.00214325
2.22814
1935.05
-0.000757921
2.16923
1932.94
-0.00494952
2.10912
1930.9
-0.00795165
2.04791
1928.91
-0.0106987
1.99659
1926.97
-0.00869653
1.95135
1925.06
-0.00389712
1.91306
1923.18
-0.00152203
1.87764
1921.34
0.000816455
1.84307
1919.52
0.00104441
1.81471
1917.73
-0.000176755
1.77792
1915.97
-0.00259792
1.74564
1914.23
-0.00529984
1.72695
1912.47
-0.0101399
1.73226
1910.65
-0.0184896
1.79631
-0.0328092
1.82729
1958.43
1.56031
1956.19
2.23078
1953.78
2.41004
1951.34
2.42961
1948.9
2.44071
1946.47
2.42641
1944.08
2.3889
1941.74
2.33963
1939.46
2.28521
1937.24
2.22314
1935.07
2.16557
1932.96
2.10969
1930.89
2.05799
1928.88
2.00945
1926.91
1.96266
1924.99
1.92047
1923.11
1.88049
1921.27
1.84833
1919.46
1.8079
1917.69
1.76896
1915.95
1.73704
1914.22
1.71858
1912.48
1.72375
1910.67
1.78781
1.81561
1960.94
-0.00287288
0.619044
1961.7
-0.00467961
1.47814
1962.26
-0.00406625
1.84966
1962.63
-0.00203449
2.05209
1962.9
-0.000667197
2.16858
1963.1
0.000284282
2.2249
1963.25
0.00132279
2.24163
1963.34
0.00208174
2.23685
1963.4
0.00211761
2.21965
1963.43
0.00228711
2.19537
1963.43
0.00213576
2.16766
1963.41
0.0012652
2.13672
1963.37
0.00054652
2.10444
1963.31
0.000508337
2.07508
1963.22
0.000346397
2.04926
1963.12
-0.00362771
2.02146
1963.02
-0.00772014
1.99148
1962.9
-0.00738003
1.97167
1962.77
-0.00530884
1.95363
1962.6
-0.00296317
1.9385
1962.41
-1.35835e-05
1.93233
1962.17
0.00542163
1.95507
1961.88
0.00949302
2.00934
1961.47
0.0168351
2.18287
0.0278703
2.36937
1960.94
-0.00336371
0.618138
1961.7
-0.005385
1.47715
1962.26
-0.0054835
1.84866
1962.64
-0.00351821
2.05121
1962.91
-0.00131289
2.16812
1963.1
0.000280239
2.22485
1963.25
0.0010984
2.24161
1963.35
0.00144498
2.23687
1963.41
0.00115364
2.21988
1963.43
0.00229393
2.195
1963.43
0.00215771
2.16711
1963.41
0.0015052
2.13698
1963.37
-0.000170504
2.10532
1963.31
-0.000172767
2.07616
1963.23
0.000129612
2.05048
1963.12
-0.00252341
2.02525
1963.01
-0.00369988
1.99752
1962.89
-0.00584189
1.97751
1962.74
-0.00446539
1.95883
1962.57
-0.00254016
1.94254
1962.38
-8.78676e-05
1.93513
1962.14
0.00370116
1.95572
1961.85
0.00898729
2.00954
1961.44
0.0159627
2.19696
0.0356375
2.39262
1960.94
-0.00475752
0.618374
1961.7
-0.00679166
1.47738
1962.26
-0.00691026
1.84899
1962.64
-0.0044896
2.05102
1962.91
-0.00168992
2.16793
1963.1
0.000551111
2.22482
1963.25
0.00170078
2.24182
1963.35
0.00217484
2.23711
1963.41
0.00233188
2.22047
1963.43
0.000322767
2.19406
1963.44
-0.000534713
2.16563
1963.42
-0.000530758
2.13568
1963.37
-0.000640054
2.10576
1963.31
-0.00155485
2.07576
1963.23
-0.00185427
2.04858
1963.13
-0.00245726
2.02572
1963.02
-0.00307675
1.99927
1962.89
-0.000254144
1.98085
1962.75
-0.000285558
1.96153
1962.58
-0.00063727
1.9441
1962.38
-0.000440077
1.93562
1962.14
0.00128502
1.95514
1961.86
0.0052978
2.01139
1961.46
0.0137381
2.18518
0.0309483
2.40226
1960.94
-0.00618719
0.618411
1961.7
-0.00842355
1.47745
1962.26
-0.00878163
1.8491
1962.64
-0.0057312
2.05117
1962.91
-0.00219545
2.16808
1963.1
0.000746468
2.22497
1963.25
0.00249151
2.24214
1963.35
0.00363272
2.23743
1963.41
0.0020495
2.2203
1963.43
0.00115179
2.19556
1963.43
0.00054237
2.16757
1963.41
0.00037558
2.13696
1963.37
0.000435617
2.10651
1963.31
0.000713127
2.07735
1963.23
0.000320302
2.0495
1963.13
-0.00120265
2.02555
1963.01
0.000545084
1.99899
1962.89
-0.00156497
1.97782
1962.74
-0.00337293
1.9586
1962.58
-0.00514927
1.9417
1962.38
-0.00611598
1.93377
1962.15
-0.00528815
1.95352
1961.87
-0.00248284
2.01016
1961.47
0.00432725
2.18875
0.0114524
2.40984
1960.94
-0.00755116
0.618474
1961.7
-0.0101786
1.47752
1962.26
-0.010599
1.84912
1962.64
-0.00688459
2.05118
1962.91
-0.00262949
2.16807
1963.1
0.000811953
2.22496
1963.25
0.00274971
2.24219
1963.35
0.00258925
2.23689
1963.41
0.00185128
2.22096
1963.44
0.00171202
2.19599
1963.44
0.000873306
2.16756
1963.42
0.000462529
2.13621
1963.37
0.00229554
2.10525
1963.31
0.00347683
2.07506
1963.22
0.00211373
2.04679
1963.12
0.00175551
2.02382
1963.01
-0.000913656
1.99615
1962.89
-0.00596455
1.97651
1962.75
-0.0087541
1.9583
1962.58
-0.0112312
1.94208
1962.39
-0.0130035
1.93502
1962.16
-0.0128814
1.95508
1961.87
-0.0119264
2.01153
1961.48
-0.00786853
2.19399
-0.00905422
2.4178
1960.94
-0.00881739
0.618534
1961.7
-0.011825
1.47754
1962.26
-0.0122579
1.84906
1962.63
-0.00792107
2.05115
1962.9
-0.00298003
2.16808
1963.1
0.0010516
2.22507
1963.25
0.00329598
2.24246
1963.35
0.00327933
2.23791
1963.41
0.00218562
2.22221
1963.43
0.000329196
2.19644
1963.43
-0.000587641
2.16804
1963.41
-0.000458585
2.137
1963.37
0.0016609
2.1041
1963.31
0.00317601
2.07318
1963.23
0.00401752
2.04713
1963.13
0.00398373
2.02437
1963.01
0.0023488
1.99701
1962.89
8.82616e-05
1.9793
1962.74
-0.00505787
1.96102
1962.57
-0.0102375
1.94425
1962.37
-0.0161283
1.93707
1962.14
-0.0184112
1.95617
1961.85
-0.0206411
2.01068
1961.46
-0.0206596
2.19521
-0.0263269
2.4168
1960.94
-0.00994064
0.618596
1961.7
-0.0132822
1.47755
1962.26
-0.0137042
1.849
1962.63
-0.00880703
2.05109
1962.9
-0.0032699
2.16805
1963.1
0.0012955
2.22511
1963.25
0.00400585
2.24269
1963.34
0.00469447
2.23877
1963.4
0.00401116
2.22347
1963.43
0.00334675
2.19829
1963.43
0.00214992
2.16881
1963.41
-3.27276e-05
2.13582
1963.36
-0.00318421
2.10008
1963.3
-0.00347281
2.06783
1963.22
-0.00119735
2.04078
1963.12
-0.000977299
2.01815
1963.01
-0.0017054
1.99229
1962.89
-0.00346893
1.97481
1962.75
-0.00672851
1.96067
1962.58
-0.00976404
1.94691
1962.39
-0.0126236
1.94317
1962.15
-0.0158253
1.96185
1961.86
-0.020788
2.01501
1961.45
-0.0237525
2.19966
-0.029791
2.41412
1960.94
-0.0108915
0.618667
1961.7
-0.0145033
1.47754
1962.26
-0.0148752
1.84896
1962.63
-0.0095168
2.051
1962.9
-0.00346747
2.16802
1963.1
0.00155797
2.22515
1963.24
0.00464122
2.2428
1963.34
0.0056568
2.23909
1963.4
0.0053979
2.2241
1963.43
0.00435794
2.19857
1963.43
0.00437505
2.16922
1963.41
0.00192703
2.13709
1963.36
-0.00103635
2.10275
1963.3
-0.0020674
2.06962
1963.21
-0.00408636
2.03952
1963.11
-0.00593257
2.01527
1963.01
-0.00765123
1.98878
1962.89
-0.00866038
1.97109
1962.75
-0.0116015
1.95818
1962.58
-0.012624
1.945
1962.39
-0.0125321
1.94134
1962.15
-0.0158913
1.96075
1961.86
-0.0214226
2.01352
1961.45
-0.0257617
2.1985
-0.0257483
2.40737
1960.94
-0.0116475
0.61874
1961.7
-0.0154617
1.47752
1962.26
-0.0157466
1.8489
1962.63
-0.00999264
2.05089
1962.9
-0.00358131
2.16795
1963.1
0.00180008
2.22516
1963.24
0.00483177
2.24279
1963.34
0.00600717
2.23911
1963.4
0.00559891
2.22412
1963.43
0.00411613
2.19805
1963.43
0.00012761
2.16635
1963.41
-0.00268914
2.13442
1963.37
-0.00501697
2.10158
1963.31
-0.00682504
2.0689
1963.23
-0.00617963
2.04034
1963.13
-0.00547892
2.01785
1963.01
-0.00487092
1.99282
1962.89
-0.00506269
1.97462
1962.74
-0.00433047
1.96229
1962.57
-0.00653811
1.94729
1962.38
-0.0115928
1.94065
1962.14
-0.0164864
1.95869
1961.85
-0.0227164
2.01172
1961.44
-0.0269973
2.19133
-0.0247015
2.40045
1960.94
-0.0121782
0.618813
1961.7
-0.016128
1.47751
1962.26
-0.0162893
1.84879
1962.63
-0.0102555
2.05077
1962.9
-0.00357246
2.16788
1963.1
0.00208172
2.22514
1963.24
0.00504712
2.24287
1963.34
0.00629714
2.23919
1963.4
0.00687359
2.22397
1963.43
0.00404728
2.198
1963.43
0.00163587
2.16835
1963.41
-0.00106347
2.13651
1963.36
-0.00402893
2.10284
1963.3
-0.00533427
2.06991
1963.22
-0.00838958
2.0395
1963.11
-0.00768527
2.01466
1963
-0.00790954
1.98839
1962.88
-0.00797055
1.9701
1962.74
-0.00854491
1.95711
1962.57
-0.0102208
1.94359
1962.38
-0.0111198
1.93974
1962.14
-0.0148305
1.95842
1961.85
-0.0202554
2.01149
1961.44
-0.0268775
2.19559
-0.0260374
2.39944
1960.94
-0.0124469
0.618887
1961.69
-0.0164948
1.47749
1962.25
-0.0164596
1.84865
1962.63
-0.0103151
2.05062
1962.9
-0.00351615
2.16779
1963.1
0.00225532
2.2251
1963.24
0.00493709
2.2428
1963.34
0.00609578
2.23912
1963.4
0.00579922
2.22283
1963.43
0.00466586
2.1981
1963.43
0.00345702
2.16855
1963.41
0.00175602
2.13735
1963.36
-0.000350594
2.10476
1963.3
-0.00270408
2.07159
1963.22
-0.00554301
2.04217
1963.11
-0.00821124
2.01561
1963
-0.0108364
1.98882
1962.88
-0.0126962
1.96951
1962.74
-0.0144375
1.95511
1962.58
-0.0162292
1.94105
1962.39
-0.0178131
1.93589
1962.15
-0.0196325
1.95517
1961.87
-0.0218278
2.00974
1961.46
-0.0250261
2.19699
-0.0228823
2.40245
1960.94
-0.0124327
0.618961
1961.69
-0.0165303
1.47746
1962.25
-0.0162185
1.84853
1962.63
-0.0101311
2.05046
1962.9
-0.00346223
2.16766
1963.1
0.00215614
2.22501
1963.24
0.00474168
2.24273
1963.34
0.00566801
2.23902
1963.4
0.00423367
2.22266
1963.43
0.00379789
2.19772
1963.43
0.00422576
2.16765
1963.41
0.00423101
2.13625
1963.37
0.00362717
2.10382
1963.3
0.00120767
2.07079
1963.22
-0.00191436
2.04187
1963.12
-0.00778855
2.01571
1963
-0.0135607
1.98921
1962.88
-0.0168816
1.97013
1962.74
-0.0195383
1.9556
1962.58
-0.0218427
1.94165
1962.39
-0.0235642
1.9363
1962.15
-0.0246095
1.95598
1961.86
-0.0246288
2.0115
1961.46
-0.0222745
2.19629
-0.0153895
2.40749
1960.94
-0.0121294
0.619035
1961.69
-0.0162082
1.47742
1962.25
-0.0155616
1.84843
1962.63
-0.0096952
2.0503
1962.9
-0.00333948
2.16754
1963.1
0.00183237
2.22493
1963.24
0.0044282
2.24267
1963.34
0.00524088
2.23897
1963.4
0.00451389
2.22368
1963.43
0.00223948
2.19734
1963.43
-0.000266255
2.16506
1963.41
0.00144624
2.13232
1963.37
0.00171821
2.09935
1963.31
-0.00064462
2.06736
1963.23
-0.00396016
2.04015
1963.12
-0.00600086
2.01767
1963.01
-0.00720061
1.99338
1962.88
-0.0138028
1.97446
1962.74
-0.0183529
1.95919
1962.57
-0.022615
1.9446
1962.37
-0.0251727
1.9384
1962.14
-0.026899
1.95798
1961.85
-0.0277115
2.01283
1961.45
-0.0271448
2.20055
-0.0148638
2.41233
1960.94
-0.0115422
0.619103
1961.69
-0.0155041
1.47737
1962.25
-0.0145065
1.84831
1962.63
-0.00897991
2.05014
1962.9
-0.00310597
2.16743
1963.1
0.00147823
2.22487
1963.24
0.0038859
2.24265
1963.34
0.00445728
2.23897
1963.4
0.00345092
2.22357
1963.43
0.00169978
2.19826
1963.43
6.12892e-05
2.16682
1963.41
-0.00116505
2.13111
1963.36
-0.0020867
2.09628
1963.3
-0.00266533
2.06534
1963.22
-0.00381175
2.03976
1963.11
-0.00567965
2.01633
1963
-0.00787062
1.99084
1962.88
-0.00954136
1.97554
1962.73
-0.013663
1.9614
1962.56
-0.0205511
1.94719
1962.36
-0.0245163
1.94066
1962.12
-0.0278077
1.95941
1961.83
-0.0318088
2.01369
1961.43
-0.0352655
2.20314
-0.0219366
2.41919
1960.94
-0.0106876
0.619161
1961.69
-0.0143578
1.47733
1962.25
-0.0130349
1.84818
1962.63
-0.00799715
2.04999
1962.9
-0.00278386
2.16734
1963.09
0.00118802
2.22484
1963.24
0.00330856
2.24271
1963.34
0.00359859
2.23906
1963.4
0.00265117
2.22374
1963.43
0.000869401
2.19828
1963.43
-0.00097669
2.16671
1963.41
-0.00440832
2.131
1963.36
-0.00623175
2.09615
1963.3
-0.00456497
2.06489
1963.22
-0.00389242
2.03935
1963.11
-0.00519897
2.01662
1963
-0.00719876
1.99189
1962.88
-0.00913416
1.97501
1962.73
-0.0119732
1.96201
1962.56
-0.0156841
1.95021
1962.36
-0.0199338
1.94374
1962.12
-0.0249709
1.96171
1961.83
-0.0326811
2.01576
1961.43
-0.0424012
2.20295
-0.038199
2.42354
1960.94
-0.00956282
0.619206
1961.69
-0.0126548
1.47727
1962.25
-0.0111155
1.84807
1962.62
-0.00675435
2.04984
1962.89
-0.00237125
2.16725
1963.09
0.000936694
2.22482
1963.24
0.00274005
2.24272
1963.34
0.00300336
2.23923
1963.4
0.00196456
2.22405
1963.43
0.00101045
2.19907
1963.43
-0.000254128
2.16787
1963.4
0.000248851
2.13382
1963.36
-0.00102139
2.09907
1963.29
-0.00609218
2.06437
1963.21
-0.00753209
2.03662
1963.11
-0.00750604
2.01428
1962.99
-0.00948245
1.98993
1962.87
-0.0117562
1.97192
1962.72
-0.0134671
1.95919
1962.56
-0.0147663
1.94814
1962.35
-0.0175199
1.94182
1962.11
-0.0228133
1.96027
1961.82
-0.0320524
2.01586
1961.42
-0.0473945
2.19888
-0.054533
2.42286
1960.94
-0.00809939
0.619233
1961.69
-0.0102512
1.47719
1962.25
-0.00865925
1.84793
1962.62
-0.00524399
2.04969
1962.89
-0.00194104
2.16719
1963.09
0.000595557
2.22482
1963.24
0.00196124
2.24271
1963.34
0.00217149
2.23922
1963.4
0.00150471
2.22429
1963.43
0.000694348
2.19882
1963.43
-0.000264802
2.16706
1963.41
-0.00301039
2.13095
1963.36
-0.00384917
2.09676
1963.29
-0.00557635
2.06712
1963.21
-0.00662548
2.04004
1963.11
-0.0074766
2.01578
1963
-0.0104582
1.992
1962.88
-0.0112735
1.97471
1962.73
-0.011775
1.96193
1962.56
-0.0100234
1.94988
1962.35
-0.0121093
1.9421
1962.11
-0.0174684
1.95916
1961.82
-0.0275254
2.01572
1961.41
-0.0442299
2.18798
-0.0607909
2.41482
1960.94
-0.00612305
0.619233
1961.69
-0.00686443
1.47701
1962.25
-0.00532006
1.84774
1962.62
-0.00318691
2.04945
1962.89
-0.00119795
2.16704
1963.09
0.000366805
2.22473
1963.24
0.00114483
2.24263
1963.34
0.00145459
2.23915
1963.4
0.00132175
2.22444
1963.43
0.000405743
2.19868
1963.43
-0.00234108
2.16669
1963.41
-0.00400121
2.13199
1963.36
-0.00353858
2.09735
1963.29
-0.00398848
2.06787
1963.2
-0.00495058
2.04094
1963.1
-0.00598566
2.01608
1962.99
-0.00536546
1.99262
1962.87
-0.00678663
1.97484
1962.72
-0.00953365
1.96076
1962.55
-0.0100626
1.94656
1962.34
-0.0118402
1.93818
1962.1
-0.0157105
1.95531
1961.8
-0.0236033
2.01274
1961.4
-0.0350178
2.18273
-0.0559593
2.40404
1960.94
-0.00260045
0.618964
1961.69
-0.00206372
1.47674
1962.25
-0.00171073
1.84734
1962.62
-0.00152621
2.04958
1962.89
-0.000708412
2.16722
1963.09
3.05045e-05
2.22487
1963.24
0.000362291
2.24276
1963.34
0.000725524
2.23906
1963.4
0.00129385
2.2239
1963.43
0.00216757
2.19828
1963.43
0.00108058
2.16758
1963.4
-0.00139042
2.13294
1963.35
-0.00430305
2.09711
1963.29
-0.00395786
2.06751
1963.2
-0.00463317
2.04136
1963.1
-0.00613237
2.01709
1962.99
-0.00585197
1.99222
1962.87
-0.00642927
1.97559
1962.72
-0.0036654
1.96352
1962.54
-0.003467
1.9491
1962.33
-0.00492846
1.94176
1962.08
-0.00746392
1.95811
1961.78
-0.0122564
2.01122
1961.36
-0.0181808
2.19141
-0.0344138
2.39512
1960.94
0.619829
1961.68
1.47772
1962.24
1.84828
1962.62
2.05048
1962.89
2.16782
1963.09
2.22506
1963.24
2.24256
1963.34
2.23839
1963.4
2.2225
1963.43
2.19585
1963.43
2.16612
1963.41
2.13418
1963.36
2.10112
1963.3
2.06999
1963.21
2.0441
1963.11
2.02114
1963
1.99372
1962.87
1.97629
1962.72
1.95858
1962.54
1.94167
1962.33
1.93411
1962.09
1.95029
1961.79
2.00076
1961.37
2.18686
2.3709
1960.26
-0.00126616
0.356235
1960.71
-0.00148361
1.02216
1961.18
-0.00124654
1.38491
1961.64
-0.00040551
1.58851
1962.07
0.000497204
1.73275
1962.46
0.00114121
1.82879
1962.83
0.00152757
1.87491
1963.16
0.00160181
1.89541
1963.48
0.00137247
1.9004
1963.78
0.00112422
1.89523
1964.06
0.000695277
1.88426
1964.33
3.78789e-05
1.86861
1964.59
-0.000610457
1.84938
1964.84
-0.000853035
1.82854
1965.08
-0.00114282
1.80793
1965.32
-0.00232349
1.79012
1965.55
-0.00319116
1.77365
1965.77
-0.00291816
1.76596
1965.97
-0.00210009
1.76076
1966.15
-0.00131878
1.76486
1966.29
-0.000420325
1.79544
1966.39
0.00149282
1.84827
1966.45
0.0047559
1.92445
1966.52
0.0115999
2.09278
0.0274508
2.35463
1960.26
-0.00304003
0.355259
1960.71
-0.00418896
1.02244
1961.18
-0.00401447
1.3859
1961.64
-0.00228434
1.58932
1962.07
-0.000397617
1.73352
1962.46
0.0010848
1.82977
1962.83
0.00192846
1.87597
1963.16
0.00219968
1.89641
1963.48
0.00193811
1.90125
1963.78
0.00162737
1.89566
1964.06
0.00108467
1.88438
1964.33
0.000394198
1.86881
1964.59
-0.000622658
1.84985
1964.84
-0.000898328
1.82914
1965.08
-0.00117723
1.80875
1965.32
-0.00257801
1.79203
1965.55
-0.00309784
1.77681
1965.76
-0.00253891
1.77006
1965.97
-0.00152098
1.76554
1966.15
-0.000642696
1.76902
1966.28
2.84767e-06
1.7993
1966.37
0.00117474
1.853
1966.44
0.00583593
1.92871
1966.51
0.0167246
2.11088
0.0416809
2.3836
1960.26
-0.00458229
0.355204
1960.71
-0.00630575
1.02232
1961.18
-0.00652405
1.38588
1961.64
-0.00414375
1.58926
1962.07
-0.00136971
1.73343
1962.46
0.00090513
1.82983
1962.82
0.00228429
1.87609
1963.16
0.00279982
1.89653
1963.48
0.00255211
1.90135
1963.78
0.00153424
1.89539
1964.06
0.000608386
1.88388
1964.33
8.9645e-05
1.86838
1964.59
-0.000428084
1.84995
1964.84
-0.000968649
1.8289
1965.08
-0.00169222
1.80788
1965.32
-0.00282654
1.79192
1965.55
-0.00279725
1.77793
1965.76
-0.00138513
1.77183
1965.97
-0.000860218
1.76708
1966.15
-0.00081941
1.76922
1966.29
-0.00115836
1.79925
1966.38
-0.000909821
1.85323
1966.45
0.00343227
1.93217
1966.52
0.0146671
2.101
0.038608
2.39382
1960.26
-0.00609273
0.355228
1960.71
-0.00828355
1.02229
1961.18
-0.00870532
1.38578
1961.64
-0.00563747
1.58915
1962.07
-0.00204688
1.73337
1962.46
0.000956091
1.82978
1962.82
0.00281566
1.87614
1963.16
0.00351189
1.89665
1963.48
0.00292039
1.90157
1963.78
0.00200624
1.89598
1964.06
0.00108613
1.88459
1964.33
0.000421069
1.86894
1964.59
-6.01446e-06
1.85043
1964.84
-0.000369276
1.82938
1965.08
-0.00130716
1.808
1965.32
-0.00230951
1.79173
1965.55
-0.00221399
1.77758
1965.76
-0.00226746
1.77101
1965.97
-0.00290907
1.76578
1966.15
-0.00385222
1.76744
1966.29
-0.00496556
1.79779
1966.39
-0.00521607
1.85238
1966.46
-0.00260726
1.93251
1966.54
0.00515482
2.10607
0.0183058
2.4017
1960.26
-0.00749749
0.355281
1960.71
-0.0101068
1.0223
1961.18
-0.0106426
1.38572
1961.64
-0.00694452
1.58906
1962.07
-0.00261081
1.73332
1962.46
0.00100363
1.82976
1962.82
0.00318202
1.87618
1963.16
0.00374329
1.8967
1963.48
0.00320369
1.90186
1963.78
0.00229748
1.89624
1964.06
0.00112906
1.88468
1964.33