/*--------------------------------*- C++ -*----------------------------------*\
  =========                 |
  \\      /  F ield         | OpenFOAM: The Open Source CFD Toolbox
   \\    /   O peration     | Website:  https://openfoam.org
    \\  /    A nd           | Version:  12
     \\/     M anipulation  |
\*---------------------------------------------------------------------------*/
FoamFile
{
    format      ascii;
    class       volVectorField;
    location    "50";
    object      U;
}
// * * * * * * * * * * * * * * * * * * * * * * * * * * * * * * * * * * * * * //

dimensions      [0 1 -1 0 0 0 0];

internalField   nonuniform List<vector> 
5000
(
(9.99111 6.27892e-06 0.00342376)
(9.98606 -1.24135e-06 0.00850206)
(9.97563 -3.9458e-06 0.010226)
(9.96262 1.33221e-07 0.0109661)
(9.94973 3.27727e-06 0.0113709)
(9.9373 4.15891e-06 0.0115598)
(9.92507 4.30007e-06 0.0115872)
(9.91301 5.47861e-06 0.0115198)
(9.90117 7.27512e-06 0.0113489)
(9.8897 7.69174e-06 0.0111753)
(9.87849 5.88284e-06 0.0109456)
(9.86764 7.02573e-07 0.0106963)
(9.85701 -5.14829e-06 0.0104396)
(9.84665 -1.21893e-05 0.0102032)
(9.83652 -1.78642e-05 0.0100177)
(9.82666 -1.21127e-05 0.00968804)
(9.81687 -2.23171e-06 0.0093751)
(9.80707 6.89726e-06 0.0090467)
(9.79721 1.50093e-05 0.0087906)
(9.78726 2.46212e-05 0.00869824)
(9.77731 3.59408e-05 0.00880351)
(9.76748 4.72276e-05 0.00912132)
(9.75804 5.50506e-05 0.00929494)
(9.74921 6.01285e-05 0.00931718)
(9.73854 6.92188e-05 0.00885356)
(9.99109 6.09125e-06 0.0034131)
(9.98603 -7.31274e-06 0.00848213)
(9.97562 -1.14621e-05 0.0102128)
(9.9626 -3.5311e-06 0.0109565)
(9.94971 4.08099e-06 0.0113641)
(9.93728 8.27567e-06 0.0115553)
(9.92506 1.07665e-05 0.0115736)
(9.91301 1.35671e-05 0.0115023)
(9.90121 1.70806e-05 0.0113428)
(9.88979 1.91769e-05 0.0111681)
(9.87861 1.61411e-05 0.0109331)
(9.86777 9.01204e-06 0.0106879)
(9.85715 -1.22715e-06 0.0104388)
(9.84677 -1.63438e-05 0.0101982)
(9.83661 -2.83753e-05 0.00996933)
(9.82666 -3.15183e-05 0.0097123)
(9.81675 -1.61857e-05 0.00948178)
(9.8069 -1.09016e-05 0.00911339)
(9.79702 -5.55e-06 0.00883024)
(9.78708 1.00148e-05 0.00872158)
(9.77716 4.34314e-05 0.00882723)
(9.76742 8.37242e-05 0.00905717)
(9.75806 0.000118315 0.00924479)
(9.74926 0.000140472 0.00929364)
(9.73862 0.000164747 0.00879768)
(9.99108 -7.94692e-06 0.00341152)
(9.98602 -1.6311e-05 0.00848046)
(9.97561 -1.70526e-05 0.0102119)
(9.9626 -4.45334e-06 0.010956)
(9.94971 5.77981e-06 0.0113635)
(9.93728 1.24464e-05 0.0115562)
(9.92505 1.63651e-05 0.0115844)
(9.91301 1.72982e-05 0.0115164)
(9.90121 1.50485e-05 0.0113826)
(9.88975 1.14646e-05 0.0111424)
(9.87865 6.86133e-06 0.0109186)
(9.86778 1.95151e-06 0.010668)
(9.85722 -2.03703e-06 0.0104221)
(9.84686 -9.32065e-06 0.0101914)
(9.83669 -1.63993e-05 0.00996781)
(9.82666 -1.51142e-05 0.00972417)
(9.81676 -2.08501e-05 0.0094212)
(9.80686 -2.89867e-05 0.00917023)
(9.79694 -3.30149e-05 0.00886921)
(9.787 -1.96094e-05 0.00873886)
(9.77708 1.55576e-05 0.00882697)
(9.76734 5.94231e-05 0.00905019)
(9.75796 0.000105176 0.00924454)
(9.74917 0.000137 0.00929523)
(9.73859 0.00016468 0.00886176)
(9.99108 -1.25481e-05 0.00341116)
(9.98602 -2.13477e-05 0.008479)
(9.97561 -2.10918e-05 0.0102104)
(9.9626 -4.29844e-06 0.0109544)
(9.94971 7.94125e-06 0.0113625)
(9.93727 1.65564e-05 0.0115544)
(9.92505 2.12209e-05 0.0115856)
(9.91298 2.14673e-05 0.0115172)
(9.90116 1.70144e-05 0.0113457)
(9.8897 1.11157e-05 0.011174)
(9.8785 8.46604e-06 0.0109457)
(9.86764 8.83936e-06 0.0106976)
(9.85697 1.02741e-05 0.0104425)
(9.84661 7.76389e-06 0.0102093)
(9.83641 -3.81597e-07 0.00998837)
(9.8264 -1.36909e-05 0.00974442)
(9.81649 -3.2361e-05 0.00950348)
(9.80668 -5.19076e-05 0.00910464)
(9.79686 -6.03041e-05 0.00880393)
(9.78698 -5.06686e-05 0.00867556)
(9.77712 -2.42724e-05 0.00876981)
(9.76739 3.3332e-06 0.00900912)
(9.75802 3.64779e-05 0.00922709)
(9.74923 4.4911e-05 0.00930497)
(9.73869 7.48038e-05 0.00883442)
(9.99108 -1.65532e-05 0.00341102)
(9.98602 -2.70983e-05 0.00847853)
(9.97561 -2.66748e-05 0.01021)
(9.9626 -4.74502e-06 0.0109541)
(9.9497 1.07707e-05 0.0113622)
(9.93727 2.10201e-05 0.0115524)
(9.92505 2.67855e-05 0.0115841)
(9.91297 2.79256e-05 0.0114811)
(9.90122 2.56049e-05 0.0113645)
(9.8897 2.21191e-05 0.0111743)
(9.87856 1.94077e-05 0.0109452)
(9.86765 1.43609e-05 0.0106927)
(9.85705 2.35527e-06 0.010435)
(9.8467 -1.48501e-05 0.0101957)
(9.83655 -3.25239e-05 0.00997053)
(9.82653 -5.78543e-05 0.00978887)
(9.81669 -8.38624e-05 0.00943322)
(9.80692 -9.71928e-05 0.00907686)
(9.79711 -9.729e-05 0.00878234)
(9.78725 -8.55996e-05 0.00865718)
(9.77736 -6.82635e-05 0.00875694)
(9.76761 -5.50735e-05 0.00900626)
(9.75818 -5.71847e-05 0.00923355)
(9.74938 -5.84921e-05 0.0093161)
(9.73883 -4.85269e-05 0.00893416)
(9.99108 -1.99485e-05 0.00341096)
(9.98602 -3.21599e-05 0.00847825)
(9.97561 -3.15104e-05 0.0102098)
(9.96259 -4.93533e-06 0.0109539)
(9.9497 1.35564e-05 0.011362)
(9.93726 2.49424e-05 0.0115536)
(9.92504 3.18022e-05 0.0115852)
(9.91297 3.40518e-05 0.0115067)
(9.90117 3.35498e-05 0.0113791)
(9.88967 3.30062e-05 0.0111583)
(9.87853 3.19838e-05 0.0109322)
(9.86765 2.80109e-05 0.0106797)
(9.85707 1.45428e-05 0.0104299)
(9.84664 -5.838e-06 0.0101927)
(9.83645 -3.18664e-05 0.0099709)
(9.82643 -7.16431e-05 0.00973656)
(9.81654 -0.000109907 0.00943054)
(9.80669 -0.000130941 0.00916595)
(9.79683 -0.00014272 0.00884411)
(9.78694 -0.000147294 0.00869378)
(9.77704 -0.00015351 0.00877779)
(9.7673 -0.000164461 0.00901851)
(9.75792 -0.00017085 0.00924529)
(9.74918 -0.000162106 0.00932723)
(9.73874 -0.000156246 0.00891289)
(9.99108 -2.29022e-05 0.00341093)
(9.98602 -3.66565e-05 0.00847811)
(9.97561 -3.57276e-05 0.0102095)
(9.96259 -5.05252e-06 0.0109538)
(9.9497 1.55951e-05 0.0113618)
(9.93726 2.80955e-05 0.0115537)
(9.92503 3.52215e-05 0.0115851)
(9.91298 3.71329e-05 0.0115218)
(9.90115 3.45107e-05 0.0113921)
(9.88962 2.95632e-05 0.0111963)
(9.87842 2.42189e-05 0.0109767)
(9.86754 2.02428e-05 0.0107144)
(9.85705 1.34605e-05 0.0103747)
(9.8468 5.53438e-07 0.0101241)
(9.83672 -2.00732e-05 0.00989101)
(9.82685 -4.90335e-05 0.00965556)
(9.81703 -9.26102e-05 0.00937652)
(9.80722 -0.000135126 0.0090607)
(9.79734 -0.000170439 0.00879067)
(9.78739 -0.000203878 0.00866908)
(9.77737 -0.000232401 0.00886234)
(9.76752 -0.000248938 0.00910392)
(9.75807 -0.00024768 0.00931693)
(9.74927 -0.000216125 0.0094023)
(9.7388 -0.000187078 0.00891762)
(9.99108 -2.54188e-05 0.00341087)
(9.98602 -4.04906e-05 0.00847806)
(9.9756 -3.92461e-05 0.0102092)
(9.96259 -4.92025e-06 0.0109534)
(9.94969 1.70974e-05 0.0113616)
(9.93726 3.04277e-05 0.0115537)
(9.92503 3.69316e-05 0.0115847)
(9.91297 3.65235e-05 0.0115194)
(9.90114 3.19084e-05 0.0113958)
(9.88958 2.24789e-05 0.0111776)
(9.87838 6.16572e-06 0.0109556)
(9.86743 -1.51951e-05 0.0106976)
(9.85686 -3.68704e-05 0.0104459)
(9.84649 -5.80072e-05 0.0102265)
(9.83643 -7.88791e-05 0.0098994)
(9.82661 -0.000100031 0.0096434)
(9.81683 -0.000124719 0.00935513)
(9.80707 -0.00015683 0.00903688)
(9.79723 -0.000193854 0.0087669)
(9.78732 -0.000228788 0.00864762)
(9.77735 -0.000255593 0.00883819)
(9.76754 -0.000257351 0.00907532)
(9.75814 -0.000228546 0.00928584)
(9.74936 -0.000186157 0.00937228)
(9.73889 -0.000128406 0.00888832)
(9.99108 -2.74759e-05 0.00341082)
(9.98601 -4.3636e-05 0.00847791)
(9.9756 -4.18155e-05 0.0102089)
(9.96258 -4.95333e-06 0.0109532)
(9.94969 1.86643e-05 0.0113612)
(9.93725 3.24891e-05 0.0115536)
(9.92502 3.90989e-05 0.0115841)
(9.91296 3.83173e-05 0.0115204)
(9.90113 3.09614e-05 0.0113975)
(9.88962 1.84025e-05 0.0111993)
(9.87849 9.11276e-07 0.010896)
(9.86769 -2.01009e-05 0.0106376)
(9.85715 -4.12408e-05 0.0103867)
(9.84685 -6.14596e-05 0.0101511)
(9.83669 -8.29022e-05 0.00992049)
(9.82674 -0.000108807 0.00968401)
(9.81688 -0.000138483 0.00940384)
(9.80704 -0.000184409 0.00907142)
(9.79711 -0.000231294 0.00888867)
(9.78714 -0.000270161 0.00875731)
(9.77722 -0.000291757 0.00883463)
(9.76745 -0.00027151 0.00905719)
(9.75808 -0.000232714 0.00925973)
(9.74932 -0.000184702 0.00933772)
(9.73884 -0.00010588 0.00885143)
(9.99108 -2.89755e-05 0.00341075)
(9.98601 -4.59446e-05 0.00847779)
(9.9756 -4.33968e-05 0.0102086)
(9.96258 -4.67229e-06 0.0109529)
(9.94968 2.00227e-05 0.0113611)
(9.93724 3.43127e-05 0.0115532)
(9.92501 4.11356e-05 0.0115839)
(9.91295 3.96638e-05 0.0115181)
(9.90112 2.84738e-05 0.011397)
(9.88955 9.05146e-06 0.011167)
(9.87838 -1.53563e-05 0.0109394)
(9.86746 -3.7667e-05 0.010684)
(9.8569 -5.55764e-05 0.0104326)
(9.84653 -7.21978e-05 0.0102258)
(9.83643 -9.0482e-05 0.00990662)
(9.82658 -0.000113712 0.00965387)
(9.81679 -0.000141485 0.00937047)
(9.80702 -0.00018325 0.00905348)
(9.7972 -0.000225904 0.00877717)
(9.78732 -0.000260735 0.00864757)
(9.77741 -0.000287429 0.00882508)
(9.76765 -0.000285554 0.00905309)
(9.75828 -0.000264543 0.0092599)
(9.7495 -0.000234581 0.00935145)
(9.73899 -0.0001502 0.00887089)
(9.99108 -2.97882e-05 0.00341067)
(9.98601 -4.73199e-05 0.00847753)
(9.97559 -4.3826e-05 0.0102081)
(9.96257 -3.92644e-06 0.0109525)
(9.94967 2.10302e-05 0.0113606)
(9.93723 3.56751e-05 0.0115527)
(9.925 4.29938e-05 0.0115809)
(9.91294 4.26223e-05 0.0115177)
(9.90108 3.58866e-05 0.0113529)
(9.88959 2.26425e-05 0.0111782)
(9.87837 -1.88649e-07 0.0109415)
(9.86744 -3.08227e-05 0.0106935)
(9.8568 -6.6473e-05 0.0104489)
(9.84644 -0.000100921 0.0102132)
(9.83625 -0.000135357 0.0100155)
(9.82634 -0.0001658 0.00968344)
(9.81658 -0.000191519 0.00938396)
(9.80681 -0.000213745 0.00905921)
(9.79703 -0.000232189 0.00878286)
(9.78717 -0.00025008 0.00866479)
(9.77733 -0.000269353 0.00875627)
(9.76762 -0.000286457 0.00898737)
(9.75827 -0.000293339 0.00919428)
(9.74947 -0.000280475 0.00936185)
(9.73894 -0.000208137 0.00893576)
(9.99108 -2.98938e-05 0.00341058)
(9.98601 -4.77958e-05 0.00847741)
(9.97559 -4.27966e-05 0.0102077)
(9.96257 -2.64629e-06 0.0109521)
(9.94966 2.19903e-05 0.0113602)
(9.93722 3.67337e-05 0.0115523)
(9.92499 4.4553e-05 0.0115806)
(9.91293 4.64879e-05 0.0115169)
(9.90107 4.66159e-05 0.0113503)
(9.88958 4.38256e-05 0.0111737)
(9.87836 3.20902e-05 0.0109328)
(9.86744 4.62593e-06 0.0106849)
(9.85679 -3.87982e-05 0.0104444)
(9.84643 -9.26063e-05 0.0102127)
(9.83622 -0.000152407 0.0100206)
(9.8263 -0.000202997 0.00968974)
(9.81655 -0.000238632 0.00938843)
(9.80679 -0.000260128 0.00906228)
(9.797 -0.000269957 0.00878712)
(9.78715 -0.00027247 0.00867263)
(9.7773 -0.000275687 0.00876884)
(9.7676 -0.000283826 0.00900249)
(9.75826 -0.000295551 0.00920994)
(9.74948 -0.000291884 0.0093751)
(9.73899 -0.000230623 0.00894842)
(9.99108 -2.92416e-05 0.00341054)
(9.98601 -4.72131e-05 0.00847735)
(9.97559 -4.0543e-05 0.0102073)
(9.96256 -1.21619e-06 0.0109517)
(9.94966 2.26492e-05 0.0113599)
(9.93721 3.69119e-05 0.0115522)
(9.92498 4.44054e-05 0.0115821)
(9.91292 4.56774e-05 0.0115181)
(9.90109 4.45952e-05 0.0113926)
(9.88957 4.17871e-05 0.0111926)
(9.87843 3.32732e-05 0.0108886)
(9.86761 1.05398e-05 0.0106306)
(9.85706 -2.87574e-05 0.0103807)
(9.84674 -7.83628e-05 0.0101472)
(9.83656 -0.000139967 0.00992165)
(9.8266 -0.000207597 0.00967855)
(9.81674 -0.000262403 0.00947317)
(9.80692 -0.000301415 0.00912055)
(9.7971 -0.000318694 0.00883141)
(9.78721 -0.000320787 0.00870796)
(9.77734 -0.000309118 0.00880442)
(9.76763 -0.000290593 0.00904572)
(9.7583 -0.000273371 0.00926535)
(9.74959 -0.000255794 0.00934692)
(9.73919 -0.000173142 0.00886831)
(9.99108 -2.78123e-05 0.00341048)
(9.986 -4.5482e-05 0.00847717)
(9.97559 -3.70364e-05 0.010207)
(9.96256 1.60032e-07 0.0109515)
(9.94965 2.27715e-05 0.0113595)
(9.93721 3.60496e-05 0.0115518)
(9.92497 4.30458e-05 0.0115813)
(9.91292 4.42843e-05 0.0115159)
(9.90108 3.77552e-05 0.0113701)
(9.88956 2.46621e-05 0.0111955)
(9.87833 8.28633e-06 0.0109673)
(9.8675 -1.41574e-05 0.0106255)
(9.85699 -4.35508e-05 0.0103625)
(9.84664 -8.01225e-05 0.0101211)
(9.83656 -0.00012569 0.00990228)
(9.82663 -0.000192598 0.00967445)
(9.81679 -0.000261429 0.00937905)
(9.80695 -0.000323547 0.00913926)
(9.7971 -0.000377105 0.00885117)
(9.78723 -0.000389904 0.0087238)
(9.77737 -0.000374092 0.00881931)
(9.76769 -0.000340998 0.00906156)
(9.75837 -0.000290667 0.00928549)
(9.7497 -0.00023435 0.00936415)
(9.73936 -0.000128045 0.00894166)
(9.99108 -2.56436e-05 0.00341036)
(9.986 -4.24237e-05 0.00847703)
(9.97558 -3.22498e-05 0.0102067)
(9.96255 1.7875e-06 0.0109513)
(9.94965 2.19711e-05 0.0113595)
(9.9372 3.3836e-05 0.0115513)
(9.92497 3.98584e-05 0.0115819)
(9.9129 4.00366e-05 0.011516)
(9.90108 3.08131e-05 0.0113758)
(9.88956 1.33049e-05 0.0111939)
(9.87835 -7.05307e-06 0.0109552)
(9.86752 -2.71561e-05 0.01062)
(9.857 -5.0152e-05 0.0103597)
(9.84665 -8.23443e-05 0.0101208)
(9.83655 -0.000123241 0.00990582)
(9.8266 -0.000168937 0.00968453)
(9.81676 -0.000232769 0.00941111)
(9.80694 -0.00030584 0.00908964)
(9.79713 -0.000374424 0.00879724)
(9.78722 -0.000424625 0.00876733)
(9.77734 -0.000429907 0.0088575)
(9.76764 -0.000396078 0.00909399)
(9.75832 -0.000347679 0.00931347)
(9.74965 -0.000293287 0.00938687)
(9.7393 -0.000176047 0.00896089)
(9.99108 -2.27456e-05 0.0034103)
(9.986 -3.78803e-05 0.00847712)
(9.97558 -2.6107e-05 0.0102065)
(9.96255 3.88211e-06 0.0109511)
(9.94964 2.05334e-05 0.0113592)
(9.9372 3.03191e-05 0.0115512)
(9.92496 3.49937e-05 0.0115809)
(9.91289 3.37326e-05 0.0115159)
(9.90105 2.72342e-05 0.0113749)
(9.8895 1.67297e-05 0.0111933)
(9.87823 1.19019e-06 0.0109459)
(9.86729 -2.12413e-05 0.0106965)
(9.85667 -4.96874e-05 0.0104522)
(9.84637 -8.5652e-05 0.0101231)
(9.83628 -0.000131418 0.00989118)
(9.82637 -0.00017823 0.00966017)
(9.81659 -0.000230823 0.00938369)
(9.80683 -0.000289167 0.00905911)
(9.79707 -0.000349545 0.00876671)
(9.78722 -0.000407685 0.00873922)
(9.77739 -0.000444991 0.00883081)
(9.76775 -0.000442196 0.00906853)
(9.75846 -0.000405433 0.00929197)
(9.7498 -0.000361996 0.00936965)
(9.73944 -0.000276779 0.0089532)
(9.99108 -1.91437e-05 0.00341027)
(9.986 -3.15854e-05 0.00847743)
(9.97557 -1.93897e-05 0.0102066)
(9.96254 5.77184e-06 0.0109511)
(9.94963 1.88485e-05 0.0113592)
(9.93719 2.68798e-05 0.0115511)
(9.92495 2.98666e-05 0.011581)
(9.91289 2.86886e-05 0.0115152)
(9.90105 2.59701e-05 0.0113814)
(9.88951 2.04965e-05 0.0111999)
(9.87828 9.03904e-06 0.0109567)
(9.86744 -1.33429e-05 0.0106221)
(9.85687 -4.37294e-05 0.0103584)
(9.84654 -7.89676e-05 0.0101214)
(9.83646 -0.000121337 0.00991495)
(9.82647 -0.000164621 0.00969834)
(9.81659 -0.000202154 0.00942746)
(9.80675 -0.000245534 0.00910741)
(9.79694 -0.0002953 0.00881649)
(9.78706 -0.000349486 0.0087863)
(9.77723 -0.000406675 0.00886892)
(9.7676 -0.000445555 0.00908977)
(9.75833 -0.000448147 0.00929376)
(9.74967 -0.000416155 0.00935254)
(9.7393 -0.000365094 0.00892926)
(9.99108 -1.63752e-05 0.00341041)
(9.986 -2.3188e-05 0.00847872)
(9.97557 -1.16724e-05 0.0102078)
(9.96254 5.3247e-06 0.0109525)
(9.94963 1.53596e-05 0.0113607)
(9.93718 2.21074e-05 0.0115524)
(9.92495 2.40528e-05 0.0115808)
(9.91288 2.25989e-05 0.0115155)
(9.90104 1.79825e-05 0.011387)
(9.8895 9.97828e-06 0.0111951)
(9.87827 1.76122e-06 0.0109121)
(9.86741 -6.4511e-06 0.0106526)
(9.85677 -2.32147e-05 0.0103794)
(9.84643 -4.92993e-05 0.0101336)
(9.8363 -8.26917e-05 0.00991585)
(9.82633 -0.000119038 0.00967438)
(9.81643 -0.000157128 0.00947052)
(9.80661 -0.000194583 0.00913076)
(9.79683 -0.000231622 0.0088516)
(9.78703 -0.000275919 0.00873999)
(9.77728 -0.000328432 0.00883762)
(9.76771 -0.000381896 0.00906453)
(9.7585 -0.000423557 0.00925902)
(9.74986 -0.000413439 0.00931517)
(9.73945 -0.000383646 0.00883583)
(9.99108 -1.97432e-05 0.00341217)
(9.986 -1.50564e-05 0.00848052)
(9.97557 -3.69604e-06 0.0102084)
(9.96253 2.20895e-06 0.0109527)
(9.94963 9.26053e-06 0.0113607)
(9.93718 1.5653e-05 0.011552)
(9.92494 1.75145e-05 0.011582)
(9.91288 1.56812e-05 0.0115161)
(9.90104 1.00848e-05 0.0113813)
(9.8895 -7.26946e-07 0.0111875)
(9.87824 -1.57844e-05 0.0109624)
(9.86733 -2.96685e-05 0.0106944)
(9.85674 -4.3599e-05 0.0103589)
(9.84642 -6.04086e-05 0.010118)
(9.83632 -7.40138e-05 0.00990409)
(9.82637 -9.0372e-05 0.00967677)
(9.81649 -0.000111885 0.00939114)
(9.80669 -0.000129965 0.00906207)
(9.79682 -0.000145321 0.00889979)
(9.78695 -0.000166532 0.00880207)
(9.77715 -0.000205989 0.00890412)
(9.76755 -0.000251042 0.00912371)
(9.75836 -0.000296256 0.00929571)
(9.74974 -0.000322418 0.00933035)
(9.73933 -0.000320893 0.00883196)
(9.9911 -1.2363e-05 0.00342312)
(9.98603 -6.41721e-06 0.00850054)
(9.97559 -9.61831e-08 0.0102216)
(9.96255 1.98323e-06 0.0109618)
(9.94965 3.91291e-06 0.0113671)
(9.9372 6.30394e-06 0.0115558)
(9.92496 6.92109e-06 0.011584)
(9.91288 5.32716e-06 0.011509)
(9.90106 1.81063e-06 0.0113718)
(9.88955 -6.04492e-06 0.0111355)
(9.87839 -1.69846e-05 0.0109067)
(9.86745 -2.5142e-05 0.0106563)
(9.8568 -3.14321e-05 0.0104189)
(9.84631 -3.84072e-05 0.0101963)
(9.83605 -3.38038e-05 0.00997694)
(9.826 -2.58797e-05 0.00973253)
(9.81613 -2.52248e-05 0.00941614)
(9.8063 -2.55322e-05 0.00916227)
(9.7965 -2.83742e-05 0.00887831)
(9.78672 -3.70535e-05 0.00876562)
(9.77698 -5.45525e-05 0.00886063)
(9.76748 -7.74753e-05 0.00907283)
(9.75839 -0.000103353 0.00923844)
(9.74989 -0.000125107 0.00926376)
(9.73957 -0.000137748 0.00880579)
(10.0012 -5.0882e-06 0.00552735)
(10.006 -1.26208e-05 0.011149)
(10.011 -1.24094e-05 0.0132234)
(10.0129 -6.48965e-06 0.0135497)
(10.0143 -1.0974e-06 0.0135801)
(10.0155 1.67038e-06 0.0134436)
(10.0164 3.90866e-06 0.0131884)
(10.0171 6.27632e-06 0.012873)
(10.0175 8.11538e-06 0.0125385)
(10.0177 9.25497e-06 0.0121871)
(10.0178 9.381e-06 0.0118323)
(10.0178 8.03217e-06 0.0114678)
(10.0176 6.08455e-06 0.0111092)
(10.0175 2.50054e-06 0.0107901)
(10.017 -2.52016e-06 0.0105181)
(10.0164 -6.63715e-06 0.0102498)
(10.0156 -1.09263e-05 0.00990785)
(10.0147 -9.46733e-06 0.00950322)
(10.0136 -8.29118e-06 0.00918005)
(10.0123 -4.43839e-06 0.00917244)
(10.0107 8.93338e-06 0.00960264)
(10.0088 3.03176e-05 0.0104201)
(10.0067 5.43878e-05 0.0112665)
(10.0046 7.98412e-05 0.0119604)
(10.0015 0.000100029 0.0117996)
(10.0012 -9.93562e-06 0.00551949)
(10.006 -2.02981e-05 0.0111476)
(10.0111 -2.09302e-05 0.013227)
(10.0129 -9.91676e-06 0.0135523)
(10.0143 5.63049e-07 0.0135827)
(10.0155 7.73602e-06 0.0134473)
(10.0165 1.26118e-05 0.0131929)
(10.0171 1.62247e-05 0.0128783)
(10.0175 1.88367e-05 0.0125421)
(10.0177 2.13675e-05 0.0121853)
(10.0178 2.14056e-05 0.011831)
(10.0178 1.79619e-05 0.0114715)
(10.0177 1.27016e-05 0.0111162)
(10.0175 8.5989e-06 0.0108002)
(10.017 1.66736e-06 0.0105298)
(10.0164 -9.57028e-06 0.0102636)
(10.0156 -1.90996e-05 0.00992963)
(10.0146 -2.73429e-05 0.00952552)
(10.0135 -3.32837e-05 0.00918664)
(10.0121 -3.23929e-05 0.00915412)
(10.0105 -9.85109e-06 0.00956919)
(10.0086 3.99918e-05 0.0103964)
(10.0065 9.99598e-05 0.011276)
(10.0044 0.00015792 0.0120075)
(10.0012 0.000223548 0.011929)
(10.0012 -1.08045e-05 0.00551852)
(10.006 -2.00558e-05 0.0111482)
(10.0111 -1.78459e-05 0.0132307)
(10.0129 -6.8131e-06 0.0135524)
(10.0143 5.1507e-06 0.0135827)
(10.0155 1.42563e-05 0.0134477)
(10.0165 1.91745e-05 0.0131933)
(10.0171 2.00035e-05 0.0128773)
(10.0175 1.79667e-05 0.0125415)
(10.0177 1.45461e-05 0.0121818)
(10.0178 1.11647e-05 0.0118254)
(10.0178 6.59396e-06 0.0114672)
(10.0177 -6.39885e-07 0.0111202)
(10.0174 -4.85193e-06 0.0108002)
(10.0171 -6.44282e-06 0.0105218)
(10.0165 -1.01971e-05 0.0102713)
(10.0157 -1.5523e-05 0.00996135)
(10.0146 -2.70304e-05 0.00955852)
(10.0134 -4.28584e-05 0.00919722)
(10.0121 -4.8451e-05 0.00913009)
(10.0105 -2.71674e-05 0.00951687)
(10.0087 2.47517e-05 0.0103475)
(10.0066 8.95214e-05 0.0112547)
(10.0045 0.000146102 0.0120238)
(10.0013 0.000223578 0.0119841)
(10.0012 -1.33597e-05 0.00551808)
(10.006 -2.22525e-05 0.0111476)
(10.0111 -2.40134e-05 0.0132299)
(10.0129 -1.01224e-05 0.0135525)
(10.0143 5.94039e-06 0.013583)
(10.0155 1.8872e-05 0.0134482)
(10.0165 2.56539e-05 0.0131941)
(10.0171 2.62466e-05 0.0128789)
(10.0175 2.09747e-05 0.0125436)
(10.0177 1.30476e-05 0.0121902)
(10.0178 6.35564e-06 0.0118365)
(10.0178 8.92586e-07 0.0114742)
(10.0177 -4.97647e-06 0.0111215)
(10.0174 -1.03252e-05 0.0108019)
(10.017 -1.31777e-05 0.0105194)
(10.0165 -1.73258e-05 0.010268)
(10.0156 -2.46194e-05 0.00996164)
(10.0146 -4.26405e-05 0.00955434)
(10.0134 -6.19077e-05 0.00917784)
(10.0121 -6.62307e-05 0.00908892)
(10.0106 -4.65094e-05 0.00946232)
(10.0087 -7.21092e-06 0.0103075)
(10.0066 3.46661e-05 0.0112521)
(10.0046 7.2628e-05 0.0120633)
(10.0013 0.000127607 0.012055)
(10.0012 -1.65829e-05 0.00551798)
(10.006 -2.72954e-05 0.0111472)
(10.0111 -2.91731e-05 0.0132296)
(10.0129 -1.15626e-05 0.0135525)
(10.0143 8.48861e-06 0.013583)
(10.0155 2.45091e-05 0.0134481)
(10.0165 3.32305e-05 0.013194)
(10.0171 3.41852e-05 0.012878)
(10.0175 2.89001e-05 0.0125451)
(10.0177 2.15322e-05 0.0121887)
(10.0178 1.18896e-05 0.0118306)
(10.0178 3.76246e-06 0.0114622)
(10.0177 -8.09422e-07 0.0111068)
(10.0174 -9.41648e-06 0.0107853)
(10.017 -2.64377e-05 0.0105066)
(10.0164 -4.71447e-05 0.0102632)
(10.0156 -6.99776e-05 0.00996438)
(10.0146 -9.5402e-05 0.00955744)
(10.0134 -0.000104314 0.00917129)
(10.0121 -0.000102909 0.00906917)
(10.0106 -9.17727e-05 0.00944214)
(10.0088 -7.64405e-05 0.0103005)
(10.0067 -6.38316e-05 0.0112688)
(10.0046 -4.07595e-05 0.0121057)
(10.0014 -1.45443e-05 0.0121103)
(10.0012 -1.98048e-05 0.00551792)
(10.006 -3.219e-05 0.0111469)
(10.0111 -3.41486e-05 0.0132288)
(10.0129 -1.3318e-05 0.0135522)
(10.0143 1.0213e-05 0.0135826)
(10.0155 2.89486e-05 0.0134476)
(10.0164 3.9148e-05 0.0131934)
(10.0171 3.98032e-05 0.0128781)
(10.0175 3.30972e-05 0.0125449)
(10.0177 2.30532e-05 0.0121856)
(10.0178 1.29501e-05 0.0118268)
(10.0178 6.06411e-06 0.0114622)
(10.0176 1.79219e-06 0.0111039)
(10.0174 -8.66985e-06 0.0107848)
(10.017 -2.9934e-05 0.0105233)
(10.0164 -5.4867e-05 0.0102865)
(10.0156 -8.1596e-05 0.00997892)
(10.0146 -0.000102406 0.00956388)
(10.0134 -0.00011918 0.00917444)
(10.0121 -0.000135352 0.00906954)
(10.0105 -0.000154747 0.0094439)
(10.0087 -0.000172163 0.0102998)
(10.0066 -0.000185582 0.0112639)
(10.0045 -0.000169365 0.0121006)
(10.0013 -0.000155539 0.0121095)
(10.0012 -2.27336e-05 0.00551788)
(10.006 -3.66707e-05 0.0111465)
(10.0111 -3.87005e-05 0.0132281)
(10.0129 -1.49599e-05 0.0135517)
(10.0143 1.16879e-05 0.013582)
(10.0155 3.28946e-05 0.0134469)
(10.0164 4.41416e-05 0.0131925)
(10.0171 4.45812e-05 0.0128759)
(10.0175 3.60475e-05 0.012541)
(10.0177 2.27646e-05 0.0121792)
(10.0178 7.83251e-06 0.0118105)
(10.0177 -7.3455e-06 0.011435)
(10.0176 -2.02336e-05 0.0110712)
(10.0174 -2.9335e-05 0.0107498)
(10.017 -4.08093e-05 0.0104901)
(10.0164 -5.67148e-05 0.0102601)
(10.0155 -7.32434e-05 0.00996213)
(10.0146 -9.35787e-05 0.00956624)
(10.0135 -0.000122262 0.00920214)
(10.0122 -0.000159629 0.00911676)
(10.0106 -0.000200807 0.00949551)
(10.0087 -0.000234131 0.0103332)
(10.0066 -0.000257019 0.0112789)
(10.0045 -0.000235202 0.0120974)
(10.0014 -0.000214945 0.0120874)
(10.0012 -2.52808e-05 0.00551785)
(10.006 -4.05483e-05 0.0111459)
(10.0111 -4.24282e-05 0.0132277)
(10.0129 -1.62205e-05 0.0135509)
(10.0143 1.2982e-05 0.0135814)
(10.0155 3.59881e-05 0.0134463)
(10.0164 4.7932e-05 0.0131917)
(10.0171 4.81642e-05 0.0128751)
(10.0175 4.05365e-05 0.0125411)
(10.0177 2.8324e-05 0.0121805)
(10.0178 1.02505e-05 0.0118158)
(10.0177 -1.56985e-05 0.0114433)
(10.0176 -4.22875e-05 0.0110738)
(10.0173 -6.26758e-05 0.0107403)
(10.0169 -8.12053e-05 0.0104712)
(10.0163 -0.000101788 0.0102367)
(10.0155 -0.000123783 0.00994179)
(10.0145 -0.000149367 0.00955862)
(10.0134 -0.000182915 0.00920819)
(10.0121 -0.00021348 0.00912752)
(10.0106 -0.000238107 0.00949637)
(10.0087 -0.000251546 0.0103266)
(10.0066 -0.00024602 0.0112551)
(10.0046 -0.00020563 0.0120655)
(10.0014 -0.000161853 0.0120411)
(10.0012 -2.73766e-05 0.00551782)
(10.006 -4.36674e-05 0.0111453)
(10.0111 -4.51518e-05 0.0132273)
(10.0129 -1.70422e-05 0.0135501)
(10.0143 1.41228e-05 0.0135807)
(10.0155 3.85372e-05 0.0134457)
(10.0164 5.0872e-05 0.0131909)
(10.0171 5.08385e-05 0.0128742)
(10.0175 4.08432e-05 0.0125401)
(10.0177 2.35835e-05 0.0121757)
(10.0178 1.33913e-06 0.0118068)
(10.0177 -2.42098e-05 0.0114378)
(10.0176 -4.96923e-05 0.0110772)
(10.0173 -7.06501e-05 0.0107485)
(10.017 -8.91175e-05 0.0104786)
(10.0164 -0.000109639 0.0102527)
(10.0155 -0.000136127 0.00997179)
(10.0145 -0.000171452 0.00959256)
(10.0134 -0.000212857 0.00923267)
(10.0121 -0.000251228 0.00913504)
(10.0105 -0.000275505 0.00948551)
(10.0087 -0.000275294 0.0102957)
(10.0066 -0.000251046 0.0112116)
(10.0046 -0.000196867 0.0120209)
(10.0014 -0.000123752 0.0119893)
(10.0012 -2.89568e-05 0.00551776)
(10.006 -4.58241e-05 0.0111447)
(10.011 -4.7068e-05 0.0132263)
(10.0129 -1.68094e-05 0.0135494)
(10.0143 1.55771e-05 0.0135799)
(10.0155 4.14697e-05 0.0134448)
(10.0164 5.27998e-05 0.01319)
(10.017 5.20841e-05 0.0128736)
(10.0174 3.97947e-05 0.0125398)
(10.0177 1.67391e-05 0.0121802)
(10.0177 -1.19704e-05 0.0118159)
(10.0177 -4.13078e-05 0.0114424)
(10.0176 -6.98691e-05 0.0110707)
(10.0173 -9.08905e-05 0.010734)
(10.0169 -0.000108588 0.010463)
(10.0163 -0.000125173 0.0102347)
(10.0154 -0.000144744 0.00995312)
(10.0144 -0.000171097 0.0095791)
(10.0133 -0.000201208 0.0092263)
(10.0121 -0.000231859 0.00913167)
(10.0105 -0.000253543 0.0094793)
(10.0087 -0.000260786 0.0102832)
(10.0067 -0.000253597 0.0111994)
(10.0047 -0.000223983 0.0120189)
(10.0015 -0.000149956 0.011986)
(10.0012 -2.98015e-05 0.00551768)
(10.006 -4.71934e-05 0.0111441)
(10.011 -4.77447e-05 0.013225)
(10.0129 -1.66397e-05 0.0135484)
(10.0143 1.72616e-05 0.013579)
(10.0155 4.45153e-05 0.0134439)
(10.0164 5.40408e-05 0.0131891)
(10.017 5.35508e-05 0.012873)
(10.0174 4.37697e-05 0.0125383)
(10.0177 2.58353e-05 0.0121832)
(10.0177 2.55991e-06 0.0118218)
(10.0177 -2.67308e-05 0.0114535)
(10.0175 -6.06056e-05 0.011087)
(10.0173 -9.70327e-05 0.0107485)
(10.0169 -0.000134432 0.0104672)
(10.0163 -0.000167614 0.0102352)
(10.0154 -0.000197167 0.00995324)
(10.0144 -0.000217069 0.00957214)
(10.0133 -0.000228725 0.00921296)
(10.0121 -0.000233788 0.00911692)
(10.0106 -0.000237482 0.00947109)
(10.0088 -0.000244947 0.0102822)
(10.0068 -0.000255463 0.0112055)
(10.0048 -0.000254512 0.0120313)
(10.0016 -0.000187845 0.0119979)
(10.0012 -2.9885e-05 0.00551762)
(10.006 -4.75838e-05 0.0111433)
(10.011 -4.69468e-05 0.0132239)
(10.0129 -1.5506e-05 0.0135474)
(10.0142 1.83574e-05 0.0135781)
(10.0155 4.55888e-05 0.013443)
(10.0164 5.46714e-05 0.013188)
(10.017 5.52362e-05 0.0128712)
(10.0174 4.76637e-05 0.0125349)
(10.0177 3.61216e-05 0.0121765)
(10.0177 2.00619e-05 0.0118135)
(10.0177 -2.84933e-06 0.0114471)
(10.0175 -3.49769e-05 0.0110849)
(10.0173 -7.96261e-05 0.0107506)
(10.0169 -0.00013479 0.0104711)
(10.0162 -0.000192606 0.0102374)
(10.0154 -0.000240151 0.00995184)
(10.0144 -0.000269198 0.0095685)
(10.0133 -0.000280484 0.00921104)
(10.0121 -0.000278062 0.00912282)
(10.0106 -0.000269424 0.00948821)
(10.0088 -0.000262213 0.0103124)
(10.0068 -0.00025675 0.0112405)
(10.0049 -0.000247071 0.01206)
(10.0017 -0.000173639 0.0120256)
(10.0012 -2.91743e-05 0.00551758)
(10.006 -4.70679e-05 0.0111425)
(10.011 -4.44835e-05 0.0132233)
(10.0129 -1.40067e-05 0.0135463)
(10.0142 1.864e-05 0.0135772)
(10.0155 4.48559e-05 0.013442)
(10.0164 5.47461e-05 0.0131866)
(10.017 5.46875e-05 0.0128684)
(10.0174 4.50108e-05 0.0125312)
(10.0176 3.02535e-05 0.0121605)
(10.0177 1.36168e-05 0.0117878)
(10.0177 -4.54199e-06 0.0114201)
(10.0175 -3.25064e-05 0.0110665)
(10.0172 -7.4556e-05 0.0107485)
(10.0168 -0.000126835 0.0104863)
(10.0162 -0.000184729 0.0102616)
(10.0154 -0.000244721 0.00997212)
(10.0144 -0.000298942 0.00958057)
(10.0133 -0.000332171 0.00921717)
(10.012 -0.000340492 0.00912994)
(10.0106 -0.000325655 0.00950271)
(10.0088 -0.000294459 0.0103418)
(10.0068 -0.000255777 0.0112795)
(10.0048 -0.000215308 0.0120972)
(10.0018 -0.000107407 0.0120695)
(10.0012 -2.75713e-05 0.00551751)
(10.006 -4.52551e-05 0.0111418)
(10.011 -4.08839e-05 0.0132226)
(10.0129 -1.1788e-05 0.0135454)
(10.0142 1.91083e-05 0.0135763)
(10.0155 4.20905e-05 0.013441)
(10.0164 5.29031e-05 0.0131852)
(10.017 5.20499e-05 0.0128667)
(10.0174 4.03912e-05 0.0125268)
(10.0176 2.03082e-05 0.0121558)
(10.0177 -2.72602e-06 0.0117779)
(10.0176 -2.56799e-05 0.0114015)
(10.0174 -5.39676e-05 0.0110423)
(10.0172 -8.78236e-05 0.0107358)
(10.0168 -0.000124635 0.0104935)
(10.0161 -0.000167092 0.0102717)
(10.0153 -0.00022401 0.00998301)
(10.0144 -0.000294143 0.00959307)
(10.0133 -0.000357812 0.00922363)
(10.012 -0.000399172 0.00913132)
(10.0105 -0.000393978 0.00950632)
(10.0087 -0.000356501 0.0103533)
(10.0067 -0.000295676 0.0113012)
(10.0048 -0.000228008 0.0121247)
(10.0018 -8.44396e-05 0.0121136)
(10.0012 -2.51337e-05 0.00551741)
(10.006 -4.21087e-05 0.0111411)
(10.011 -3.59997e-05 0.0132217)
(10.0129 -8.96309e-06 0.0135446)
(10.0142 1.90419e-05 0.0135754)
(10.0154 3.95485e-05 0.0134399)
(10.0164 4.878e-05 0.0131837)
(10.017 4.71633e-05 0.0128637)
(10.0174 3.60682e-05 0.0125237)
(10.0176 1.64799e-05 0.0121526)
(10.0176 -9.17569e-06 0.0117745)
(10.0176 -3.83727e-05 0.0113964)
(10.0174 -6.64533e-05 0.0110351)
(10.0172 -9.30695e-05 0.0107287)
(10.0168 -0.000124077 0.0104927)
(10.0161 -0.00016232 0.010284)
(10.0153 -0.000210337 0.0100076)
(10.0143 -0.000271124 0.00962065)
(10.0132 -0.000340443 0.00924538)
(10.012 -0.000398021 0.00914248)
(10.0105 -0.00042494 0.00950959)
(10.0088 -0.000407825 0.010354)
(10.0068 -0.000368212 0.0113052)
(10.0048 -0.000306047 0.0121328)
(10.0018 -0.000168438 0.0121358)
(10.0012 -2.22263e-05 0.00551735)
(10.0059 -3.72891e-05 0.0111405)
(10.011 -2.93746e-05 0.0132212)
(10.0129 -5.20585e-06 0.0135438)
(10.0142 1.88447e-05 0.0135745)
(10.0154 3.59231e-05 0.0134389)
(10.0164 4.32807e-05 0.0131823)
(10.017 4.09764e-05 0.0128625)
(10.0174 3.14882e-05 0.0125237)
(10.0176 1.76709e-05 0.0121565)
(10.0176 3.18301e-08 0.0117807)
(10.0176 -2.22401e-05 0.0114002)
(10.0174 -5.245e-05 0.0110332)
(10.0171 -8.88763e-05 0.0107151)
(10.0167 -0.000126664 0.0104713)
(10.016 -0.000168769 0.0102729)
(10.0152 -0.000216985 0.010009)
(10.0142 -0.000268745 0.00962624)
(10.0132 -0.000321421 0.00925258)
(10.012 -0.000370196 0.00914993)
(10.0105 -0.000408288 0.0095081)
(10.0088 -0.00042649 0.0103442)