/*--------------------------------*- C++ -*----------------------------------*\
  =========                 |
  \\      /  F ield         | OpenFOAM: The Open Source CFD Toolbox
   \\    /   O peration     | Website:  https://openfoam.org
    \\  /    A nd           | Version:  12
     \\/     M anipulation  |
\*---------------------------------------------------------------------------*/
FoamFile
{
    format      ascii;
    class       volScalarField;
    location    "1.82";
    object      p_rgh;
}
// * * * * * * * * * * * * * * * * * * * * * * * * * * * * * * * * * * * * * //

dimensions      [1 -1 -2 0 0 0 0];

internalField   nonuniform List<scalar> 
3829
(
0.851094
0.850695
0.849884
0.848646
0.846971
0.844847
0.842263
0.839209
0.835678
0.83166
0.82715
0.82214
0.816628
0.810608
0.804077
0.797035
0.789479
0.78141
0.772829
0.763736
0.754134
0.744026
0.733415
0.722304
0.710697
0.698599
0.686015
0.67295
0.659407
0.645393
0.630913
0.615972
0.600576
0.584733
0.568448
0.551728
0.534584
0.517031
0.499081
0.480747
0.462042
0.442986
0.423596
0.403896
0.383908
0.363663
0.343189
0.322521
0.301695
0.280752
0.259735
0.238689
0.217666
0.196716
0.175895
0.155257
0.134866
0.11478
0.0950599
0.0757676
0.0569639
0.038713
0.0210746
0.00410929
-0.0121272
-0.0275818
-0.0422054
-0.0559527
-0.0687809
-0.080652
-0.0915345
-0.10137
-0.110198
-0.117992
-0.124745
-0.130452
-0.135122
-0.138772
-0.141425
-0.143108
-0.143856
-0.14374
-0.142787
-0.141043
-0.13856
-0.135396
-0.131609
-0.127264
-0.122425
-0.117161
-0.111538
-0.105625
-0.0994615
-0.0931683
-0.0867817
-0.0803653
-0.0739784
-0.0676789
-0.0615195
-0.0555496
-0.0498164
-0.0443609
-0.0392209
-0.0344294
-0.0300144
-0.0260011
-0.0224092
-0.0192537
-0.0165462
-0.0142941
-0.0125011
-0.0111679
-0.010275
-0.00982801
-0.00981643
-0.010227
-0.0110439
-0.0122493
-0.0138228
-0.0157427
-0.0179861
-0.0205282
-0.0233433
-0.0264056
-0.0296883
-0.033164
-0.036806
-0.040587
-0.0444802
-0.04846
-0.0525001
-0.0565755
-0.0606627
-0.0647387
-0.0687817
-0.0727713
-0.0766876
-0.0805126
-0.0842292
-0.0878174
-0.0912751
-0.0945881
-0.097745
-0.100736
-0.103553
-0.10619
-0.108643
-0.110907
-0.112983
-0.114869
-0.116565
-0.118075
-0.119401
-0.120547
-0.121518
-0.12232
-0.122961
-0.123447
-0.123787
-0.12399
-0.124064
-0.124017
-0.123859
-0.123599
-0.123245
-0.122808
-0.122296
-0.121718
-0.121082
-0.120398
-0.119672
-0.118912
-0.118126
-0.117319
-0.116499
-0.11567
-0.114837
-0.114004
-0.113175
-0.112353
-0.111542
-0.110744
-0.109964
-0.109204
-0.108469
-0.107762
-0.107089
-0.106453
-0.105859
-0.10531
-0.10481
-0.10436
-0.103962
-0.103616
-0.10332
-0.103074
-0.102878
-0.10273
-0.102631
-0.102581
0.886318
0.885847
0.88489
0.883433
0.881463
0.87897
0.875943
0.872375
0.868261
0.863594
0.858372
0.852595
0.846263
0.83938
0.831947
0.823971
0.815458
0.806414
0.796847
0.786766
0.776178
0.765092
0.753516
0.741458
0.728925
0.715924
0.70246
0.688538
0.674162
0.659336
0.64406
0.628337
0.61217
0.595559
0.578506
0.561009
0.543096
0.524753
0.505988
0.486809
0.467227
0.447256
0.426913
0.406219
0.385198
0.363878
0.342292
0.320477
0.298475
0.276329
0.254091
0.231814
0.209556
0.187377
0.165343
0.143519
0.121976
0.100785
0.0800182
0.0597455
0.0400393
0.0209717
0.0026114
-0.0149726
-0.0317201
-0.0475726
-0.0624746
-0.0763853
-0.089254
-0.101011
-0.111683
-0.121233
-0.129642
-0.136902
-0.143014
-0.147988
-0.151839
-0.154592
-0.156285
-0.156964
-0.15679
-0.155674
-0.153682
-0.150877
-0.147325
-0.143094
-0.138256
-0.132885
-0.127052
-0.120834
-0.114303
-0.107533
-0.100601
-0.0935676
-0.0865041
-0.0794753
-0.0725408
-0.065758
-0.0591786
-0.0528505
-0.0468189
-0.0411222
-0.0357953
-0.0308678
-0.0263647
-0.0223069
-0.0187103
-0.0155861
-0.0129417
-0.0107807
-0.00910182
-0.00790049
-0.00717072
-0.00689889
-0.00707246
-0.00767596
-0.00869146
-0.0100986
-0.0118749
-0.0139968
-0.0164396
-0.0191768
-0.0221814
-0.0254264
-0.0288841
-0.0325261
-0.0363249
-0.0402531
-0.0442834
-0.0483898
-0.0525461
-0.0567272
-0.0609097
-0.0650705
-0.0691884
-0.0732433
-0.077216
-0.0810902
-0.0848517
-0.0884423
-0.0919306
-0.0952626
-0.0984299
-0.101424
-0.104238
-0.106868
-0.109308
-0.111556
-0.113611
-0.115474
-0.117145
-0.118627
-0.119923
-0.121039
-0.121978
-0.122749
-0.123356
-0.123808
-0.124119
-0.124292
-0.124336
-0.12426
-0.124073
-0.123786
-0.123408
-0.122947
-0.122413
-0.121814
-0.12116
-0.120458
-0.119716
-0.118943
-0.118144
-0.117327
-0.116498
-0.115661
-0.114822
-0.113984
-0.11315
-0.112324
-0.111509
-0.110708
-0.109924
-0.109161
-0.108421
-0.107711
-0.107034
-0.106394
-0.105798
-0.105248
-0.104747
-0.104299
-0.103903
-0.103559
-0.103266
-0.103023
-0.102828
-0.102682
-0.102584
-0.102535
0.950828
0.950189
0.948894
0.946924
0.944268
0.940918
0.936869
0.932121
0.926678
0.920546
0.913734
0.906256
0.89813
0.889373
0.88001
0.870061
0.859553
0.848512
0.836962
0.824926
0.812429
0.799491
0.786131
0.772364
0.758204
0.743659
0.728734
0.713433
0.697753
0.68169
0.665236
0.64838
0.63111
0.613411
0.595268
0.576671
0.557599
0.53805
0.518019
0.497503
0.476503
0.455026
0.433085
0.410697
0.387886
0.364684
0.34113
0.317266
0.293145
0.268825
0.244369
0.219848
0.195337
0.170915
0.146667
0.122679
0.0990429
0.0758501
0.0531923
0.0311595
0.00984123
-0.01067
-0.030292
-0.0489394
-0.0665618
-0.0830869
-0.0983043
-0.112428
-0.125294
-0.136861
-0.147106
-0.15601
-0.163568
-0.169786
-0.174677
-0.178262
-0.180573
-0.181645
-0.181512
-0.180712
-0.178731
-0.175749
-0.171855
-0.167134
-0.161673
-0.155558
-0.148878
-0.141722
-0.134176
-0.126327
-0.118256
-0.110046
-0.101794
-0.0935361
-0.0853604
-0.0773324
-0.0695117
-0.0619549
-0.0547108
-0.0478236
-0.0413344
-0.0352772
-0.0296802
-0.0245678
-0.0199577
-0.0158643
-0.0122976
-0.00926219
-0.00675884
-0.00478404
-0.00333012
-0.00238255
-0.0019362
-0.00197048
-0.00246745
-0.00340674
-0.00476605
-0.00652094
-0.0086451
-0.0111119
-0.0138938
-0.0169616
-0.0202861
-0.0238386
-0.0275897
-0.0315099
-0.0355711
-0.0397447
-0.0440027
-0.0483192
-0.0526677
-0.057023
-0.0613623
-0.0656626
-0.0699027
-0.0740628
-0.0781236
-0.0820682
-0.0858801
-0.0895435
-0.0930604
-0.0964138
-0.099593
-0.10259
-0.105397
-0.108011
-0.110429
-0.112648
-0.114668
-0.11649
-0.118117
-0.119552
-0.120798
-0.121862
-0.122749
-0.123465
-0.124016
-0.124406
-0.124672
-0.124794
-0.124787
-0.124661
-0.124428
-0.124096
-0.123675
-0.123175
-0.122605
-0.121972
-0.121287
-0.120556
-0.119788
-0.118991
-0.118173
-0.117338
-0.116494
-0.115645
-0.114795
-0.113949
-0.113108
-0.112276
-0.111455
-0.110648
-0.109858
-0.109088
-0.108342
-0.107625
-0.106941
-0.106296
-0.105695
-0.105142
-0.104642
-0.104195
-0.103803
-0.103464
-0.103176
-0.102937
-0.102746
-0.102603
-0.102507
-0.102459
1.04269
1.04172
1.03975
1.03677
1.03277
1.02776
1.02173
1.01472
1.00674
0.997839
0.988052
0.977437
0.966045
0.953937
0.941176
0.927826
0.913955
0.899626
0.884901
0.869837
0.854484
0.838885
0.823075
0.807077
0.790905
0.774565
0.758049
0.741341
0.724417
0.707247
0.689797
0.672025
0.653881
0.635307
0.61625
0.596695
0.576583
0.555877
0.534547
0.512571
0.489936
0.466639
0.442689
0.418102
0.392909
0.36715
0.340876
0.314151
0.287044
0.259638
0.232023
0.204298
0.176569
0.148945
0.121544
0.0944837
0.0678871
0.041875
0.0165692
-0.0079161
-0.0314655
-0.0539711
-0.0753365
-0.0950947
-0.113839
-0.131161
-0.146992
-0.161287
-0.173997
-0.185096
-0.194569
-0.202415
-0.208644
-0.213285
-0.216378
-0.217978
-0.218158
-0.217014
-0.215072
-0.211484
-0.206807
-0.201137
-0.194567
-0.1872
-0.179139
-0.170491
-0.161363
-0.151859
-0.142082
-0.132127
-0.122089
-0.112058
-0.102126
-0.0923502
-0.0828087
-0.073568
-0.0646853
-0.0562133
-0.0481974
-0.0406746
-0.0336798
-0.0272382
-0.0213714
-0.0160944
-0.0114162
-0.0073431
-0.00387449
-0.00100706
0.0012662
0.00295528
0.00407147
0.00466902
0.00472936
0.00428101
0.00335084
0.00196565
0.00015353
-0.00205585
-0.00463194
-0.00754415
-0.0107613
-0.0142517
-0.0179834
-0.0219258
-0.0260478
-0.0303182
-0.034708
-0.0391882
-0.0437304
-0.0483081
-0.0528949
-0.0574659
-0.0619982
-0.0664697
-0.0708597
-0.0751488
-0.0793172
-0.0833483
-0.0872204
-0.0909487
-0.0945083
-0.0978883
-0.10108
-0.104077
-0.106873
-0.109465
-0.111851
-0.11403
-0.116004
-0.117774
-0.119343
-0.120717
-0.121899
-0.122897
-0.123716
-0.124365
-0.124854
-0.125195
-0.125373
-0.125422
-0.125348
-0.125159
-0.124866
-0.124479
-0.124006
-0.123457
-0.122841
-0.122166
-0.121441
-0.120674
-0.119874
-0.119048
-0.118204
-0.117348
-0.116485
-0.115621
-0.11476
-0.113903
-0.113054
-0.112214
-0.111387
-0.110573
-0.109775
-0.108997
-0.108242
-0.107516
-0.106823
-0.106171
-0.105564
-0.105008
-0.104507
-0.104063
-0.103676
-0.103344
-0.103063
-0.10283
-0.102644
-0.102504
-0.102411
-0.102365
1.16646
1.16486
1.16163
1.15676
1.15023
1.1421
1.1324
1.12124
1.10874
1.09475
1.07957
1.06334
1.04621
1.02836
1.00987
0.990914
0.97164
0.952195
0.932705
0.913282
0.894018
0.874985
0.85623
0.83778
0.819635
0.801776
0.784156
0.766712
0.74936
0.732002
0.714519
0.696791
0.678698
0.660124
0.640977
0.621125
0.600487
0.57899
0.556575
0.533201
0.508844
0.483496
0.457168
0.42989
0.401706
0.372679
0.342891
0.312432
0.281415
0.249957
0.218195
0.186267
0.154328
0.122529
0.0910349
0.0600055
0.0296118
1.371e-05
-0.0286314
-0.0561682
-0.0824356
-0.107233
-0.130556
-0.152229
-0.172169
-0.190286
-0.206513
-0.220792
-0.233083
-0.243367
-0.251652
-0.257951
-0.262299
-0.264747
-0.265364
-0.264228
-0.261433
-0.258017
-0.252693
-0.246006
-0.238132
-0.22922
-0.219418
-0.208863
-0.197693
-0.186038
-0.174026
-0.161783
-0.149424
-0.13706
-0.124794
-0.112732
-0.100945
-0.0895035
-0.0784837
-0.0679494
-0.0579533
-0.0485422
-0.0397515
-0.0316106
-0.0241449
-0.0173694
-0.0112939
-0.00592279
-0.00125488
0.00271497
0.00599743
0.00860743
0.0105632
0.011887
0.012605
0.012729
0.0122982
0.0113413
0.00988933
0.0079744
0.0056299
0.00289048
-0.000208644
-0.00363327
-0.00734875
-0.01132
-0.0155131
-0.0198952
-0.0244336
-0.029096
-0.0338526
-0.0386735
-0.0435302
-0.0483962
-0.053245
-0.058052
-0.0627954
-0.0674534
-0.0720068
-0.0764373
-0.0807223
-0.0848199
-0.0887781
-0.0925674
-0.0961697
-0.0995751
-0.102777
-0.105769
-0.108548
-0.111112
-0.113459
-0.115591
-0.11751
-0.119218
-0.12072
-0.122023
-0.123131
-0.124053
-0.124795
-0.125366
-0.125776
-0.126033
-0.12614
-0.126114
-0.125966
-0.125708
-0.125349
-0.124899
-0.124368
-0.123764
-0.123098
-0.122376
-0.121607
-0.120801
-0.119964
-0.119106
-0.118233
-0.117353
-0.116471
-0.115591
-0.114717
-0.11385
-0.112992
-0.112145
-0.111311
-0.110489
-0.109683
-0.108896
-0.108131
-0.107394
-0.106691
-0.106029
-0.105415
-0.104855
-0.104354
-0.103914
-0.103534
-0.103211
-0.102938
-0.102712
-0.102531
-0.102395
-0.102305
-0.10226
1.32935
1.32663
1.32115
1.31288
1.30183
1.28804
1.27161
1.25272
1.23157
1.20844
1.18362
1.15746
1.13032
1.10428
1.07616
1.04814
1.0205
0.993474
0.967284
0.942105
0.918073
0.89528
0.873767
0.853523
0.83449
0.816557
0.799562
0.783303
0.767581
0.75215
0.736734
0.72105
0.704818
0.687849
0.669949
0.650938
0.630669
0.609024
0.585921
0.561305
0.535158
0.507488
0.478331
0.44775
0.41583
0.382684
0.348439
0.313246
0.277267
0.240686
0.20369
0.166488
0.129291
0.0923162
0.0557798
0.0198956
-0.0151106
-0.0490235
-0.0816383
-0.112709
-0.142133
-0.16971
-0.195285
-0.218717
-0.239901
-0.258746
-0.275183
-0.289171
-0.30069
-0.309738
-0.316345
-0.320561
-0.322451
-0.322103
-0.319622
-0.315152
-0.310136
-0.302432
-0.293215
-0.282662
-0.270942
-0.258227
-0.244694
-0.23051
-0.215837
-0.200832
-0.185644
-0.170415
-0.155273
-0.140336
-0.12571
-0.111578
-0.0978711
-0.0847357
-0.0722379
-0.0604341
-0.0493674
-0.0390751
-0.0295817
-0.0209048
-0.0130569
-0.00604097
0.000145302
0.00551085
0.0100688
0.0138372
0.0168376
0.0190957
0.0206406
0.0215057
0.0217286
0.0213228
0.020336
0.0188055
0.0167699
0.0142675
0.0113373
0.00801892
0.00435216
0.000375059
-0.00387472
-0.00835926
-0.0130421
-0.017889
-0.0228658
-0.0279394
-0.0330792
-0.0382551
-0.0434383
-0.0486022
-0.0537208
-0.05877
-0.0637283
-0.0685755
-0.0732949
-0.0778744
-0.0823153
-0.0863856
-0.0904634
-0.0943196
-0.0979623
-0.101389
-0.104596
-0.107579
-0.110335
-0.112865
-0.115168
-0.117246
-0.119102
-0.120743
-0.122172
-0.123397
-0.124426
-0.125266
-0.125925
-0.126413
-0.126737
-0.12691
-0.126937
-0.126832
-0.126607
-0.126274
-0.125845
-0.12533
-0.124739
-0.124079
-0.12336
-0.122589
-0.121775
-0.120927
-0.120052
-0.11916
-0.118258
-0.117353
-0.116451
-0.115555
-0.114668
-0.113792
-0.112926
-0.112072
-0.111231
-0.110402
-0.109588
-0.108791
-0.108015
-0.107266
-0.106551
-0.105878
-0.105256
-0.104691
-0.10419
-0.103755
-0.103384
-0.103071
-0.102808
-0.102589
-0.102413
-0.102281
-0.102194
-0.102153
1.54483
1.54002
1.53033
1.51574
1.49638
1.47262
1.44429
1.41171
1.37555
1.33649
1.29534
1.25293
1.21004
1.1674
1.12558
1.0851
1.04628
1.00948
0.975057
0.943264
0.914298
0.88828
0.865238
0.845102
0.827703
0.812759
0.799865
0.78851
0.778187
0.768274
0.758169
0.747367
0.735527
0.722254
0.707234
0.690234
0.671084
0.649673
0.625939
0.599867
0.571482
0.540848
0.50806
0.473252
0.436577
0.398213
0.358369
0.317263
0.27514
0.232252
0.188874
0.145284
0.101771
0.058626
0.0161377
-0.0254383
-0.0658187
-0.10461
-0.141737
-0.176883
-0.209822
-0.240341
-0.268265
-0.293439
-0.315749
-0.335109
-0.35146
-0.364781
-0.375077
-0.382389
-0.386785
-0.388358
-0.387218
-0.383475
-0.377214
-0.370314
-0.360076
-0.348055
-0.334484
-0.319585
-0.30357
-0.286647
-0.269026
-0.250907
-0.23248
-0.213921
-0.1954
-0.177072
-0.159074
-0.141538
-0.124598
-0.10832
-0.0927625
-0.0780094
-0.064122
-0.0511484
-0.0391198
-0.0280603
-0.0179814
-0.00888704
-0.000776158
0.00636288
0.0125466
0.0177973
0.022142
0.0256107
0.0282369
0.0300574
0.0311105
0.0314372
0.0311059
0.0301156
0.028522
0.0263723
0.0237124
0.0205866
0.0170393
0.0131153
0.00885826
0.00430984
-0.000489277
-0.00549876
-0.0106804
-0.0159985
-0.0214182
-0.0269055
-0.0324296
-0.0379601
-0.0434683
-0.048928
-0.0543133
-0.0596003
-0.0647684
-0.0697979
-0.0746715
-0.0793727
-0.0838773
-0.0881473
-0.0922545
-0.0961508
-0.0998225
-0.103263
-0.106469
-0.109438
-0.112167
-0.114657
-0.116911
-0.118931
-0.120722
-0.12229
-0.123642
-0.124786
-0.125732
-0.126488
-0.127063
-0.127465
-0.127702
-0.127791
-0.127735
-0.127547
-0.127243
-0.126836
-0.126337
-0.125756
-0.125104
-0.124389
-0.123617
-0.122798
-0.121938
-0.121047
-0.120134
-0.119207
-0.118275
-0.117346
-0.116425
-0.115514
-0.114616
-0.113731
-0.112858
-0.111998
-0.11115
-0.110315
-0.109493
-0.108685
-0.107898
-0.107136
-0.106409
-0.105724
-0.105093
-0.104523
-0.104022
-0.103592
-0.103232
-0.102931
-0.102678
-0.102467
-0.102296
-0.102167
-0.102084
-0.102046
1.84148
1.8335
1.81746
1.79339
1.76147
1.72162
1.67401
1.61833
1.5584
1.49425
1.42764
1.35989
1.2922
1.22571
1.16148
1.10053
1.04376
0.991954
0.945708
0.90543
0.871343
0.843481
0.821677
0.805553
0.794496
0.787691
0.784087
0.781866
0.782027
0.782708
0.782166
0.779931
0.775315
0.767841
0.757163
0.743048
0.725378
0.704123
0.679331
0.651098
0.619567
0.584918
0.547354
0.507103
0.46441
0.419558
0.372836
0.324557
0.275045
0.224646
0.173715
0.122622
0.0717545
0.0215269
-0.0275773
-0.0755335
-0.12189
-0.16629
-0.208406
-0.247923
-0.284577
-0.318126
-0.348375
-0.375165
-0.398373
-0.417926
-0.433796
-0.445988
-0.454549
-0.459571
-0.461189
-0.459568
-0.45492
-0.447484
-0.438177
-0.425164
-0.410156
-0.393368
-0.375042
-0.355435
-0.334804
-0.313399
-0.291466
-0.269235
-0.246924
-0.224726
-0.202827
-0.181394
-0.160568
-0.14047
-0.121364
-0.103045
-0.0857335
-0.0694857
-0.0543454
-0.0403434
-0.0274962
-0.0158137
-0.00529068
0.00408423
0.0123275
0.0194666
0.025533
0.030563
0.0345972
0.0376784
0.0398523
0.0411661
0.0416691
0.0414363
0.0404768
0.0388536
0.0366176
0.0338207
0.0305143
0.0267481
0.0225714
0.0180328
0.0131803
0.00805871
0.00271119
-0.00281979
-0.00849459
-0.0142767
-0.0201307
-0.0260223
-0.0319207
-0.0377957
-0.0436186
-0.0493637
-0.0550052
-0.0605198
-0.0658874
-0.0710891
-0.0761082
-0.0809291
-0.0855177
-0.0899002
-0.0940659
-0.0980013
-0.101697
-0.105146
-0.108346
-0.111295
-0.113993
-0.116441
-0.118643
-0.120601
-0.122324
-0.123817
-0.12509
-0.126153
-0.127015
-0.127688
-0.128179
-0.128496
-0.128644
-0.128652
-0.128512
-0.128242
-0.127859
-0.127378
-0.126809
-0.126165
-0.125455
-0.124685
-0.123863
-0.122996
-0.122092
-0.121159
-0.120207
-0.119246
-0.118286
-0.117333
-0.116394
-0.11547
-0.114561
-0.113669
-0.11279
-0.111925
-0.111072
-0.110231
-0.109401
-0.108583
-0.107784
-0.107009
-0.106268
-0.105571
-0.104929
-0.104353
-0.103852
-0.103429
-0.103081
-0.102794
-0.102554
-0.10235
-0.102181
-0.102055
-0.101976
-0.101943
2.23425
2.22048
2.19248
2.1498
2.09213
2.01962
1.93355
1.83646
1.72911
1.61421
1.49804
1.38425
1.27544
1.17341
1.07937
0.994118
0.918151
0.851828
0.795422
0.749179
0.713323
0.688106
0.673765
0.670426
0.67788
0.695376
0.721383
0.750627
0.778585
0.801228
0.818356
0.829266
0.834206
0.833446
0.827066
0.81512
0.797794
0.775334
0.748016
0.716123
0.679954
0.639818
0.596031
0.548928
0.498863
0.446198
0.391321
0.334633
0.276556
0.217516
0.157952
0.098302
0.0389819
-0.019664
-0.074295
-0.12985
-0.182999
-0.233448
-0.280874
-0.324957
-0.365403
-0.40195
-0.434391
-0.462565
-0.486359
-0.505716
-0.520639
-0.531178
-0.537435
-0.539562
-0.537766
-0.532295
-0.523452
-0.511587
-0.496615
-0.47893
-0.458992
-0.437172
-0.413818
-0.38926
-0.363808
-0.337761
-0.311407
-0.285003
-0.258788
-0.232974
-0.207759
-0.183314
-0.159785
-0.137338
-0.116026
-0.0958788
-0.0769972
-0.0594287
-0.043205
-0.0283414
-0.0148384
-0.00268741
0.00813287
0.017651
0.0259
0.0329228
0.0387661
0.0434809
0.047121
0.0497429
0.051403
0.0521563
0.0520477
0.0512134
0.0496177
0.0473422
0.0444485
0.0409939
0.0370355
0.0326278
0.0278237
0.0226764
0.017237
0.0115532
0.00567054
-0.000367056
-0.00651883
-0.012748
-0.0190187
-0.0252971
-0.0315527
-0.0377554
-0.0438771
-0.0498921
-0.0557749
-0.0615029
-0.0670565
-0.0724182
-0.0775724
-0.0824878
-0.0871807
-0.0916408
-0.0958602
-0.0998303
-0.103544
-0.106997
-0.110187
-0.113113
-0.115777
-0.11818
-0.120328
-0.122224
-0.123877
-0.125295
-0.126489
-0.12747
-0.12825
-0.128841
-0.129251
-0.129489
-0.129568
-0.129479
-0.129254
-0.128904
-0.128443
-0.127889
-0.127255
-0.12655
-0.125784
-0.124962
-0.124093
-0.12318
-0.122234
-0.121261
-0.120271
-0.119277
-0.118289
-0.117314
-0.116358
-0.115422
-0.114506
-0.113607
-0.112723
-0.111854
-0.110997
-0.110151
-0.109314
-0.108487
-0.107675
-0.106887
-0.106132
-0.105422
-0.104768
-0.104186
-0.103684
-0.103269
-0.102934
-0.102663
-0.102436
-0.102239
-0.102072
-0.101947
-0.101873
-0.101846
2.76073
2.74167
2.70284
2.64323
2.56131
2.45599
2.32506
2.15851
1.99138
1.79834
1.62708
1.46718
1.3199
1.18601
1.06553
0.958521
0.865105
0.785434
0.719838
0.668388
0.631211
0.608406
0.599956
0.605793
0.625411
0.657964
0.715784
0.747315
0.806925
0.847636
0.880083
0.903956
0.918444
0.923762
0.920271
0.908492
0.889267
0.863408
0.831502
0.794051
0.751507
0.704289
0.652807
0.59748
0.538738
0.477039
0.412857
0.346686
0.279041
0.210452
0.141466
0.0726436
0.00459714
-0.0618557
-0.126546
-0.189151
-0.248989
-0.305538
-0.358338
-0.406997
-0.451172
-0.490577
-0.524987
-0.554235
-0.578232
-0.596948
-0.610431
-0.618784
-0.622169
-0.620818
-0.615005
-0.605062
-0.591378
-0.574388
-0.554145
-0.531157
-0.505872
-0.478717
-0.450107
-0.420435
-0.390063
-0.359326
-0.328543
-0.298002
-0.267957
-0.238631
-0.210229
-0.182923
-0.156853
-0.132247
-0.108953
-0.0871455
-0.0668767
-0.0481733
-0.0310468
-0.015495
-0.00149847
0.0109691
0.021947
0.0314812
0.0396209
0.046425
0.0519551
0.0562764
0.0594568
0.0615648
0.0626705
0.0628445
0.0621777
0.0606444
0.058384
0.0554476
0.0518951
0.0477873
0.0431853
0.0381472
0.0327301
0.0269905
0.020983
0.0147576
0.00836154
0.00184037
-0.00476486
-0.0114173
-0.0180817
-0.0247242
-0.0313152
-0.037825
-0.0442259
-0.0504926
-0.0565998
-0.0625248
-0.068249
-0.0737567
-0.0790414
-0.0840268
-0.0888162
-0.0933433
-0.0976091
-0.101608
-0.105335
-0.108787
-0.111964
-0.114865
-0.117492
-0.11985
-0.121943
-0.123777
-0.12536
-0.126703
-0.127819
-0.12872
-0.129421
-0.129933
-0.130265
-0.130426
-0.130424
-0.130259
-0.129953
-0.129524
-0.128989
-0.128366
-0.127669
-0.126907
-0.126089
-0.12522
-0.124305
-0.123351
-0.122363
-0.121352
-0.120327
-0.119301
-0.118286
-0.117291
-0.11632
-0.115374
-0.11445
-0.113546
-0.112659
-0.111787
-0.110927
-0.110076
-0.109233
-0.108396
-0.107572
-0.10677
-0.106002
-0.105278
-0.104613
-0.104023
-0.103521
-0.103114
-0.102794
-0.102541
-0.102327
-0.102136
-0.10197
-0.101844
-0.101775
-0.101756
3.44474
3.42479
3.38277
3.31463
3.21389
3.07093
2.87235
2.57413
2.17792
1.82777
1.54531
1.30102
1.09018
0.908253
0.751805
0.618303
0.505889
0.413287
0.339745
0.285288
0.25011
0.235249
0.242507
0.274681
0.335603
0.428836
0.582487
0.761011
0.902134
0.977598
1.02342
1.04795
1.05707
1.05464
1.0431
1.02409
0.998206
0.965699
0.926883
0.882067
0.831626
0.775975
0.71556
0.65086
0.582381
0.510657
0.436247
0.359735
0.281727
0.202846
0.123733
0.045033
-0.0320525
-0.107845
-0.181243
-0.251693
-0.318605
-0.381424
-0.439649
-0.49284
-0.540616
-0.582661
-0.618744
-0.648711
-0.672497
-0.690119
-0.701676
-0.707333
-0.707336
-0.701983
-0.691643
-0.676812
-0.65805
-0.635484
-0.609626
-0.581001
-0.550109
-0.517438
-0.483458
-0.448615
-0.413309
-0.377918
-0.34279
-0.308226
-0.274495
-0.241828
-0.21043
-0.180473
-0.152139
-0.125445
-0.100428
-0.0771742
-0.0557199
-0.0360722
-0.0182225
-0.00214901
0.0121882
0.0248334
0.035844
0.0452831
0.0532161
0.0597176
0.0648628
0.0687309
0.0714026
0.0729588
0.0734794
0.0730404
0.0717296
0.0695718
0.0666654
0.0630802
0.0588822
0.0541372
0.0489103
0.0432631
0.0372561
0.0309489
0.0243991
0.0176589
0.0107775
0.00380087
-0.00322955
-0.0102776
-0.0173087
-0.0242898
-0.0311919
-0.0379861
-0.0446452
-0.0511441
-0.0574575
-0.0635626
-0.0694411
-0.0750774
-0.0804557
-0.0855531
-0.0904052
-0.0949862
-0.0992907
-0.103313
-0.107049
-0.110497
-0.113657
-0.11653
-0.119121
-0.121433
-0.123472
-0.125244
-0.12676
-0.12803
-0.129069
-0.129893
-0.130517
-0.130955
-0.131215
-0.131303
-0.131225
-0.130986
-0.130604
-0.130099
-0.129493
-0.128805
-0.128048
-0.127234
-0.126368
-0.125456
-0.1245
-0.123506
-0.122481
-0.121433
-0.120374
-0.119317
-0.118277
-0.117263
-0.116279
-0.115325
-0.114396
-0.113488
-0.112598
-0.111723
-0.110862
-0.110008
-0.109158
-0.108313
-0.107477
-0.106661
-0.105879
-0.105141
-0.104465
-0.103867
-0.103364
-0.102965
-0.102661
-0.102427
-0.102228
-0.102042
-0.101874
-0.101747
-0.101683
-0.101675
4.15029
4.13621
4.10816
4.06664
4.01385
3.95602
3.89491
3.78899
1.05125
1.08047
1.1258
1.15116
1.17173
1.18188
1.1803
1.16784
1.1457
1.11479
1.07585
1.02954
0.976484
0.917191
0.852172
0.781946
0.70706
0.628085
0.545634
0.460347
0.372898
0.283985
0.194332
0.104679
0.0159568
-0.0713021
-0.156358
-0.238446
-0.31686
-0.390938
-0.460054
-0.523647
-0.581232
-0.632399
-0.676813
-0.714245
-0.744558
-0.767723
-0.78381
-0.792981
-0.795492
-0.791664
-0.781881
-0.766486
-0.746815
-0.722366
-0.693988
-0.662287
-0.62784
-0.591214
-0.552957
-0.513596
-0.473621
-0.433471
-0.393552
-0.354232
-0.315826
-0.278611
-0.242814
-0.20864
-0.176263
-0.145897
-0.117351
-0.0908143
-0.0663185
-0.0438746
-0.0234653
-0.00506045
0.011383
0.0259236
0.0386255
0.0495631
0.0588155
0.0664647
0.0725984
0.0773063
0.0806795
0.0828107
0.0837936
0.0837197
0.0826732
0.0807259
0.0779416
0.0744044
0.0701898
0.065369
0.0600117
0.0541866
0.0479585
0.0413907
0.0345459
0.0274843
0.0202605
0.012925
0.00552443
-0.00190032
-0.00931414
-0.0166834
-0.0239762
-0.0311641
-0.0382194
-0.0451152
-0.0518266
-0.0583282
-0.0645969
-0.0706142
-0.0763649
-0.0818296
-0.0870146
-0.0919258
-0.0965526
-0.100889
-0.104931
-0.108672
-0.112112
-0.115253
-0.118098
-0.120652
-0.122919
-0.124905
-0.126618
-0.128068
-0.129268
-0.130234
-0.130983
-0.131535
-0.131903
-0.132095
-0.132116
-0.131969
-0.13166
-0.131205
-0.130628
-0.129954
-0.129205
-0.128394
-0.127532
-0.126623
-0.12567
-0.124677
-0.123648
-0.122587
-0.121505
-0.120413
-0.119327
-0.118264
-0.117232
-0.116237
-0.115276
-0.114344
-0.113433
-0.11254
-0.111664
-0.110801
-0.109945
-0.109091
-0.108237
-0.107389
-0.10656
-0.105764
-0.105013
-0.104324
-0.103718
-0.103214
-0.102824
-0.102537
-0.102323
-0.102138
-0.101957
-0.101785
-0.101655
-0.101597
-0.101603
4.89355
4.88855
4.879
4.86533
4.84804
4.83193
4.80771
4.7944
1.38695
1.37159
1.38396
1.37715
1.36951
1.35655
1.33789
1.31281
1.28024
1.23996
1.19205
1.13675
1.07442
1.0055
0.930464
0.849863
0.764282
0.674352
0.580755
0.484213
0.385485
0.285363
0.18467
0.0842788
-0.0149341
-0.112193
-0.206649
-0.297459
-0.383839
-0.465027
-0.540335
-0.609141
-0.670915
-0.725215
-0.771696
-0.810136
-0.840422
-0.862574
-0.876718
-0.883099
-0.882066
-0.874066
-0.859651
-0.839703
-0.813903
-0.783558
-0.749245
-0.711594
-0.671267
-0.628903
-0.585103
-0.540448
-0.495465
-0.450632
-0.406373
-0.363072
-0.321051
-0.280586
-0.2419
-0.205193
-0.170728
-0.13841
-0.108288
-0.0804511
-0.0549142
-0.0316639
-0.0106602
0.00814993
0.0248298
0.0394579
0.0521158
0.0628944
0.0718895
0.0791964
0.0849169
0.0891526
0.092006
0.0935804
0.0939816
0.0933169
0.091674
0.0891106
0.0857169
0.0815723
0.0767552
0.0713406
0.0654018
0.0590106
0.0522345
0.0451391
0.03779
0.03025
0.0225759
0.0148195
0.00702783
-0.00075934
-0.0085084
-0.0161871
-0.0237644
-0.0312131
-0.0385062
-0.0456175
-0.0525224
-0.059195
-0.0656114
-0.0717525
-0.0776024
-0.0831469
-0.0884023
-0.0933651
-0.0980311
-0.102395
-0.106451
-0.110193
-0.113624
-0.116745
-0.119562
-0.122079
-0.124302
-0.126238
-0.127894
-0.129282
-0.130414
-0.131309
-0.131988
-0.132472
-0.132775
-0.132906
-0.132866
-0.132656
-0.13228
-0.131757
-0.131111
-0.130374
-0.129567
-0.128707
-0.127801
-0.126853
-0.125864
-0.124837
-0.123775
-0.122682
-0.121568
-0.120445
-0.119332
-0.118246
-0.117199
-0.116195
-0.115229
-0.114294
-0.113381
-0.112487
-0.11161
-0.110746
-0.109889
-0.10903
-0.108168
-0.107309
-0.106467
-0.105658
-0.104894
-0.104193
-0.103577
-0.103072
-0.10269
-0.102422
-0.102229
-0.102059
-0.101881
-0.101704
-0.101569
-0.101517
-0.101538
5.57368
5.5708
5.56513
5.55678
5.54609
5.53585
5.52111
5.51358
1.55909
1.54829
1.5556
1.54842
1.53664
1.5177
1.49128
1.45746
1.41596
1.36665
1.30959
1.24494
1.17298
1.0941
1.00877
0.917549
0.821059
0.719986
0.615082
0.507146
0.397025
0.285605
0.173807
0.0626102
-0.0470659
-0.154271
-0.258063
-0.357509
-0.451727
-0.539867
-0.621179
-0.694974
-0.760677
-0.817823
-0.866058
-0.905169
-0.935081
-0.955861
-0.967703
-0.970944
-0.966036
-0.953539
-0.933937
-0.90862
-0.877296
-0.841097
-0.800828
-0.757242
-0.711087
-0.663073
-0.613859
-0.564069
-0.514278
-0.464978
-0.416617
-0.369584
-0.324205
-0.280748
-0.239423
-0.200396
-0.164153
-0.130091
-0.0985938
-0.069656
-0.0432611
-0.01937
0.00208041
0.0211658
0.0379698
0.0525898
0.0651237
0.0756784
0.0843637
0.0912885
0.096567
0.100312
0.102636
0.10365
0.103471
0.102231
0.100006
0.0968604
0.0928849
0.0881626
0.082775
0.0768003
0.0703148
0.063393
0.0561045
0.0485172
0.0406987
0.0327147
0.0246245
0.0164811
0.00833129
0.000213555
-0.00784059
-0.0158005
-0.0236361
-0.0313211
-0.0388296
-0.0461363
-0.0532166
-0.0600438
-0.0665932
-0.072845
-0.078778
-0.0843963
-0.0897087
-0.0947153
-0.0994146
-0.103801
-0.107868
-0.11161
-0.115029
-0.118129
-0.120918
-0.1234
-0.125582
-0.12747
-0.129072
-0.1304
-0.131469
-0.132297
-0.132909
-0.133328
-0.133573
-0.133649
-0.133554
-0.133286
-0.132848
-0.13226
-0.13155
-0.130752
-0.129893
-0.128988
-0.128043
-0.12706
-0.126039
-0.124981
-0.12389
-0.122768
-0.121623
-0.120471
-0.119333
-0.118226
-0.117165
-0.116153
-0.115183
-0.114247
-0.113333
-0.112437
-0.111559
-0.110697
-0.109838
-0.108976
-0.108106
-0.107235
-0.106381
-0.10556
-0.104784
-0.10407
-0.103445
-0.102938
-0.102565
-0.102315
-0.102144
-0.101989
-0.101813
-0.101629
-0.101489
-0.101443
-0.101482
6.1869
6.18522
6.18199
6.17736
6.17177
6.16682
6.15966
6.15746
1.74929
1.73331
1.7319
1.71842
1.69933
1.67331
1.63969
1.59823
1.54869
1.49097
1.42512
1.35132
1.26984
1.18106
1.08547
0.983654
0.876287
0.764111
0.647952
0.528688
0.407256
0.284636
0.161852
0.0399698
-0.0800002
-0.196977
-0.309917
-0.417791
-0.519626
-0.614486
-0.701546
-0.780059
-0.849403
-0.909095
-0.958774
-0.998242
-1.02747
-1.04657
-1.05582
-1.05563
-1.04661
-1.02953
-1.00531
-0.973918
-0.936792
-0.894712
-0.848539
-0.799109
-0.747259
-0.693761
-0.639328
-0.58463
-0.530271
-0.476766
-0.424571
-0.374079
-0.325613
-0.279432
-0.235742
-0.194781
-0.15667
-0.121211
-0.0885552
-0.058703
-0.0316145
-0.00722838
0.0145425
0.0337944
0.0506312
0.0651676
0.0775171
0.0878011
0.0961414
0.10266
0.107483
0.110732
0.112528
0.112988
0.112238
0.110452
0.107675
0.103977
0.0994513
0.0941854
0.0882627
0.0817643
0.074769
0.067354
0.0595903
0.0515473
0.0432948
0.0349014
0.0264289
0.0179318
0.00945631
0.00103897
-0.00729122
-0.0155053
-0.0235742
-0.0314723
-0.0391752
-0.0466582
-0.0538969
-0.0608637
-0.0675325
-0.0738829
-0.0798871
-0.0855687
-0.0909286
-0.0959722
-0.1007
-0.105106
-0.109182
-0.112921
-0.116327
-0.119406
-0.122167
-0.124616
-0.126758
-0.128601
-0.130153
-0.131425
-0.132434
-0.133199
-0.133748
-0.134108
-0.134299
-0.134325
-0.134182
-0.133862
-0.133367
-0.132717
-0.131946
-0.131093
-0.130185
-0.12924
-0.12826
-0.127245
-0.126196
-0.125111
-0.123994
-0.122844
-0.121672
-0.120493
-0.11933
-0.118205
-0.117131
-0.116112
-0.11514
-0.114203
-0.113288
-0.112392
-0.111513
-0.110651
-0.109793
-0.108927
-0.10805
-0.107169
-0.106303
-0.105471
-0.104682
-0.103956
-0.103322
-0.102813
-0.102449
-0.102217
-0.102069
-0.101928
-0.101753
-0.101561
-0.101414
-0.101374
-0.101432
6.73531
6.73434
6.73249
6.72988
6.72684
6.72421
6.72049
6.71975
1.9194
1.90256
1.89633
1.87855
1.85402
1.82203
1.78196
1.73354
1.67656
1.61095
1.53677
1.45417
1.36346
1.26503
1.15941
1.04722
0.929192
0.80613
0.678938
0.548579
0.416079
0.282509
0.149011
0.0166917
-0.113276
-0.239736
-0.361534
-0.477545
-0.586703
-0.687987
-0.780495
-0.863425
-0.936115
-0.998052
-1.04888
-1.08843
-1.1167
-1.13388
-1.1403
-1.13648
-1.1231
-1.10123
-1.07171
-1.03495
-0.992135
-0.94427
-0.892316
-0.83721
-0.779859
-0.721102
-0.6617
-0.602358
-0.543711
-0.486287
-0.430543
-0.376875
-0.325596
-0.276949
-0.231113
-0.188486
-0.148759
-0.112063
-0.0784271
-0.0478212
-0.0201822
0.00457454
0.02656
0.0458904
0.0626881
0.0770841