# Probe 0 (0 0 0)
# Time            0                
0                 0                
0.0025            14.88039803      
0.005             72.39716761      
0.0075            122.2349939      
0.01              165.5555915      
0.0125            203.3255862      
0.015             236.3492474      
0.0175            265.299386       
0.02              290.7415987      
0.0225            313.1534718      
0.025             332.9399233      
0.0275            350.4455503      
0.03              365.9646361      
0.0325            379.7493098      
0.035             392.016238       
0.0375            402.9521389      
0.04              412.7183509      
0.0425            421.4546321      
0.045             429.2823341      
0.0475            436.307063       
0.05              442.6209192      
0.0525            448.3043878      
0.055             453.4279401      
0.0575            458.0533943      
0.06              462.2350741      
0.0625            466.0207993      
0.065             469.4527332      
0.0675            472.5681108      
0.07              475.3998647      
0.0725            477.9771656      
0.075             480.3258884      
0.0775            482.4690169      
0.08              484.4269937      
0.0825            486.2180252      
0.085             487.8583468      
0.0875            489.3624543      
0.09              490.7433055      
0.0925            492.0124979      
0.095             493.1804225      
0.0975            494.2564006      
0.1               495.2488032      
0.1025            496.1651555      
0.105             497.0122303      
0.1075            497.796129       
0.11              498.5223547      
0.1125            499.195875       
0.115             499.8211795      
0.1175            500.4023293      
0.12              500.9430017      
0.1225            501.4465298      
0.125             501.9159375      
0.1275            502.3539708      
0.13              502.763126       
0.1325            503.1456741      
0.135             503.5036835      
0.1375            503.8390394      
0.14              504.153462       
0.1425            504.448522       
0.145             504.7256554      
0.1475            504.9861755      
0.15              505.2312853      
0.1525            505.4620871      
0.155             505.6795921      
0.1575            505.8847289      
0.16              506.0783505      
0.1625            506.2612419      
0.165             506.4341253      
0.1675            506.5976803      
0.17              506.7525055      
0.1725            506.8991676      
0.175             507.0381898      
0.1775            507.1700561      
0.18              507.2952141      
0.1825            507.4140786      
0.185             507.5270336      
0.1875            507.6344357      
0.19              507.7366157      
0.1925            507.8338813      
0.195             507.9265184      
0.1975            508.0147929      
0.2               508.098953       
0.2025            508.1792294      
0.205             508.2558378      
0.2075            508.3289794      
0.21              508.3988422      
0.2125            508.4656021      
0.215             508.5294234      
0.2175            508.5904603      
0.22              508.6488572      
0.2225            508.7047494      
0.225             508.758264       
0.2275            508.8095203      
0.23              508.8586306      
0.2325            508.9057004      
0.235             508.9508289      
0.2375            508.9941098      
0.24              509.0356309      
0.2425            509.0754755      
0.245             509.1137221      
0.2475            509.1504448      
0.25              509.1857134      
0.2525            509.2195941      
0.255             509.2521496      
0.2575            509.2834391      
0.26              509.3135186      
0.2625            509.3424413      
0.265             509.3702578      
0.2675            509.3970158      
0.27              509.4227607      
0.2725            509.4475356      
0.275             509.4713815      
0.2775            509.4943375      
0.28              509.5164404      
0.2825            509.5377255      
0.285             509.5582266      
0.2875            509.5779755      
0.29              509.5970025      
0.2925            509.615337       
0.295             509.6330065      
0.2975            509.6500374      
0.3               509.6664551      
0.3025            509.6822839      
0.305             509.6975463      
0.3075            509.7122646      
0.31              509.7264597      
0.3125            509.7401517      
0.315             509.7533599      
0.3175            509.7661026      
0.32              509.7783976      
0.3225            509.7902616      
0.325             509.8017108      
0.3275            509.8127609      
0.33              509.8234265      
0.3325            509.8337219      
0.335             509.8436608      
0.3375            509.8532563      
0.34              509.8625209      
0.3425            509.8714668      
0.345             509.8801054      
0.3475            509.8884479      
0.35              509.896505       
0.3525            509.9042871      
0.355             509.9118037      
0.3575            509.9190646      
0.36              509.9260788      
0.3625            509.9328552      
0.365             509.9394019      
0.3675            509.9457272      
0.37              509.951839       
0.3725            509.9577446      
0.375             509.9634515      
0.3775            509.9689662      
0.38              509.9742958      
0.3825            509.9794466      
0.385             509.9844248      
0.3875            509.9892364      
0.39              509.9938871      
0.3925            509.9983826      
0.395             510.002728       
0.3975            510.0069287      
0.4               510.0109894      
0.4025            510.0149151      
0.405             510.0187103      
0.4075            510.0223795      
0.41              510.025927       
0.4125            510.0293568      
0.415             510.0326731      
0.4175            510.0358797      
0.42              510.0389802      
0.4225            510.0419784      
0.425             510.0448774      
0.4275            510.0476808      
0.43              510.0503918      
0.4325            510.0530134      
0.435             510.0555487      
0.4375            510.0580006      
0.44              510.0603718      
0.4425            510.062665       
0.445             510.0648829      
0.4475            510.0670281      
0.45              510.0691027      
0.4525            510.0711094      
0.455             510.0730502      
0.4575            510.0749274      
0.46              510.0767432      
0.4625            510.0784995      
0.465             510.0801983      
0.4675            510.0818416      
0.47              510.083431       
0.4725            510.0849686      
0.475             510.0864559      
0.4775            510.0878946      
0.48              510.0892862      
0.4825            510.0906326      
0.485             510.0919349      
0.4875            510.0931948      
0.49              510.0944137      
0.4925            510.0955928      
0.495             510.0967334      
0.4975            510.0978369      
0.5               510.0989044      
