# Probe 0 (0 0 0)
# Time            0                
0                 0                
0.0025            -9.793165193e-07 
0.005             -4.648118653e-06 
0.0075            -7.823310354e-06 
0.01              -1.058054825e-05 
0.0125            -1.298227178e-05 
0.015             -1.508034736e-05 
0.0175            -1.691809907e-05 
0.02              -1.853189734e-05 
0.0225            -1.995241433e-05 
0.025             -2.120562461e-05 
0.0275            -2.2313609e-05   
0.03              -2.329520495e-05 
0.0325            -2.416653589e-05 
0.035             -2.49414448e-05  
0.0375            -2.563185095e-05 
0.04              -2.624804508e-05 
0.0425            -2.679893456e-05 
0.045             -2.729224795e-05 
0.0475            -2.773470637e-05 
0.05              -2.813216747e-05 
0.0525            -2.848974697e-05 
0.055             -2.881192137e-05 
0.0575            -2.910261528e-05 
0.06              -2.936527559e-05 
0.0625            -2.960293492e-05 
0.065             -2.981826582e-05 
0.0675            -3.001362731e-05 
0.07              -3.019110486e-05 
0.0725            -3.035254486e-05 
0.075             -3.049958441e-05 
0.0775            -3.063367705e-05 
0.08              -3.075611508e-05 
0.0825            -3.086804901e-05 
0.085             -3.097050436e-05 
0.0875            -3.106439644e-05 
0.09              -3.115054316e-05 
0.0925            -3.122967625e-05 
0.095             -3.130245115e-05 
0.0975            -3.136945557e-05 
0.1               -3.143121714e-05 
0.1025            -3.148821002e-05 
0.105             -3.154086081e-05 
0.1075            -3.158955369e-05 
0.11              -3.163463505e-05 
0.1125            -3.167641749e-05 
0.115             -3.171518341e-05 
0.1175            -3.17511882e-05  
0.12              -3.178466299e-05 
0.1225            -3.181581726e-05 
0.125             -3.184484096e-05 
0.1275            -3.187190655e-05 
0.13              -3.189717072e-05 
0.1325            -3.192077599e-05 
0.135             -3.194285213e-05 
0.1375            -3.196351735e-05 
0.14              -3.19828795e-05  
0.1425            -3.2001037e-05   
0.145             -3.201807981e-05 
0.1475            -3.203409016e-05 
0.15              -3.204914337e-05 
0.1525            -3.206330839e-05 
0.155             -3.207664849e-05 
0.1575            -3.208922172e-05 
0.16              -3.210108139e-05 
0.1625            -3.211227654e-05 
0.165             -3.212285226e-05 
0.1675            -3.21328509e-05  
0.17              -3.214230989e-05 
0.1725            -3.215126456e-05 
0.175             -3.215974755e-05 
0.1775            -3.216778898e-05 
0.18              -3.217541675e-05 
0.1825            -3.218265667e-05 
0.185             -3.218953264e-05 
0.1875            -3.219606683e-05 
0.19              -3.22022798e-05  
0.1925            -3.220819066e-05 
0.195             -3.221381717e-05 
0.1975            -3.221917584e-05 
0.2               -3.222428204e-05 
0.2025            -3.22291501e-05  
0.205             -3.223379337e-05 
0.2075            -3.223822431e-05 
0.21              -3.224245455e-05 
0.2125            -3.224649499e-05 
0.215             -3.225035577e-05 
0.2175            -3.225404644e-05 
0.22              -3.225757588e-05 
0.2225            -3.226095248e-05 
0.225             -3.226418405e-05 
0.2275            -3.226727797e-05 
0.23              -3.227024115e-05 
0.2325            -3.227308007e-05 
0.235             -3.227580086e-05 
0.2375            -3.227840926e-05 
0.24              -3.228091069e-05 
0.2425            -3.228331025e-05 
0.245             -3.228561277e-05 
0.2475            -3.228782278e-05 
0.25              -3.228994459e-05 
0.2525            -3.229198223e-05 
0.255             -3.229393956e-05 
0.2575            -3.229582019e-05 
0.26              -3.229762755e-05 
0.2625            -3.229936491e-05 
0.265             -3.230103533e-05 
0.2675            -3.230264176e-05 
0.27              -3.230418694e-05 
0.2725            -3.230567352e-05 
0.275             -3.230710399e-05 
0.2775            -3.230848074e-05 
0.28              -3.230980601e-05 
0.2825            -3.231108196e-05 
0.285             -3.231231062e-05 
0.2875            -3.231349394e-05 
0.29              -3.231463376e-05 
0.2925            -3.231573187e-05 
0.295             -3.231678994e-05 
0.2975            -3.231780957e-05 
0.3               -3.23187923e-05  
0.3025            -3.23197396e-05  
0.305             -3.232065285e-05 
0.3075            -3.232153338e-05 
0.31              -3.232238247e-05 
0.3125            -3.232320133e-05 
0.315             -3.232399114e-05 
0.3175            -3.232475299e-05 
0.32              -3.232548795e-05 
0.3225            -3.232619706e-05 
0.325             -3.232688128e-05 
0.3275            -3.232754155e-05 
0.33              -3.232817876e-05 
0.3325            -3.232879378e-05 
0.335             -3.232938743e-05 
0.3375            -3.23299605e-05  
0.34              -3.233051373e-05 
0.3425            -3.233104788e-05 
0.345             -3.233156362e-05 
0.3475            -3.233206164e-05 
0.35              -3.233254256e-05 
0.3525            -3.233300702e-05 
0.355             -3.233345559e-05 
0.3575            -3.233388886e-05 
0.36              -3.233430737e-05 
0.3625            -3.233471166e-05 
0.365             -3.233510221e-05 
0.3675            -3.233547952e-05 
0.37              -3.233584406e-05 
0.3725            -3.233619628e-05 
0.375             -3.233653661e-05 
0.3775            -3.233686547e-05 
0.38              -3.233718326e-05 
0.3825            -3.233749037e-05 
0.385             -3.233778717e-05 
0.3875            -3.233807401e-05 
0.39              -3.233835125e-05 
0.3925            -3.233861922e-05 
0.395             -3.233887822e-05 
0.3975            -3.233912859e-05 
0.4               -3.23393706e-05  
0.4025            -3.233960455e-05 
0.405             -3.233983071e-05 
0.4075            -3.234004935e-05 
0.41              -3.234026073e-05 
0.4125            -3.234046508e-05 
0.415             -3.234066267e-05 
0.4175            -3.23408537e-05  
0.42              -3.234103841e-05 
0.4225            -3.234121702e-05 
0.425             -3.234138972e-05 
0.4275            -3.234155671e-05 
0.43              -3.234171818e-05 
0.4325            -3.234187433e-05 
0.435             -3.234202533e-05 
0.4375            -3.234217136e-05 
0.44              -3.234231258e-05 
0.4425            -3.234244915e-05 
0.445             -3.234258124e-05 
0.4475            -3.234270898e-05 
0.45              -3.234283252e-05 
0.4525            -3.234295201e-05 
0.455             -3.234306758e-05 
0.4575            -3.234317935e-05 
0.46              -3.234328747e-05 
0.4625            -3.234339203e-05 
0.465             -3.234349318e-05 
0.4675            -3.234359102e-05 
0.47              -3.234368565e-05 
0.4725            -3.234377718e-05 
0.475             -3.234386572e-05 
0.4775            -3.234395137e-05 
0.48              -3.234403422e-05 
0.4825            -3.234411437e-05 
0.485             -3.234419189e-05 
0.4875            -3.234426689e-05 
0.49              -3.234433945e-05 
0.4925            -3.234440963e-05 
0.495             -3.234447752e-05 
0.4975            -3.23445432e-05  
0.5               -3.234460675e-05 
