# Probe 0 (0 0 0)
# Time            0                
0                 100000           
0.0025            102216.6076      
0.005             104235.1265      
0.0075            106075.8328      
0.01              107756.6266      
0.0125            109293.2288      
0.015             110699.5055      
0.0175            111987.7347      
0.02              113168.8274      
0.0225            114252.511       
0.025             115247.4843      
0.0275            116161.5475      
0.03              117001.713       
0.0325            117774.3         
0.035             118485.0155      
0.0375            119139.0236      
0.04              119741.0065      
0.0425            120295.2167      
0.045             120805.5226      
0.0475            121275.4486      
0.05              121708.2105      
0.0525            122106.7459      
0.055             122473.7418      
0.0575            122811.6591      
0.06              123122.7536      
0.0625            123409.0952      
0.065             123672.5854      
0.0675            123914.972       
0.07              124137.8635      
0.0725            124342.7404      
0.075             124530.9674      
0.0775            124703.8026      
0.08              124862.4066      
0.0825            125007.8511      
0.085             125141.1257      
0.0875            125263.1451      
0.09              125374.7548      
0.0925            125476.7371      
0.095             125569.8155      
0.0975            125654.66        
0.1               125731.8908      
0.1025            125802.0825      
0.105             125865.7673      
0.1075            125923.4385      
0.11              125975.5533      
0.1125            126022.5356      
0.115             126064.7785      
0.1175            126102.6464      
0.12              126136.4776      
0.1225            126166.5855      
0.125             126193.2612      
0.1275            126216.7745      
0.13              126237.3758      
0.1325            126255.2975      
0.135             126270.7551      
0.1375            126283.9485      
0.14              126295.0633      
0.1425            126304.2714      
0.145             126311.7325      
0.1475            126317.5945      
0.15              126321.9946      
0.1525            126325.06        
0.155             126326.9086      
0.1575            126327.6496      
0.16              126327.3842      
0.1625            126326.2062      
0.165             126324.2022      
0.1675            126321.4527      
0.17              126318.0318      
0.1725            126314.0082      
0.175             126309.4455      
0.1775            126304.4023      
0.18              126298.9328      
0.1825            126293.0868      
0.185             126286.9106      
0.1875            126280.4465      
0.19              126273.7337      
0.1925            126266.8082      
0.195             126259.703       
0.1975            126252.4486      
0.2               126245.0727      
0.2025            126237.6011      
0.205             126230.0569      
0.2075            126222.4617      
0.21              126214.8349      
0.2125            126207.1944      
0.215             126199.5562      
0.2175            126191.9351      
0.22              126184.3444      
0.2225            126176.7962      
0.225             126169.3012      
0.2275            126161.8693      
0.23              126154.5092      
0.2325            126147.2286      
0.235             126140.0345      
0.2375            126132.9331      
0.24              126125.9298      
0.2425            126119.0291      
0.245             126112.2353      
0.2475            126105.5518      
0.25              126098.9817      
0.2525            126092.5273      
0.255             126086.1906      
0.2575            126079.9735      
0.26              126073.8769      
0.2625            126067.9019      
0.265             126062.049       
0.2675            126056.3185      
0.27              126050.7104      
0.2725            126045.2245      
0.275             126039.8604      
0.2775            126034.6174      
0.28              126029.4947      
0.2825            126024.4914      
0.285             126019.6063      
0.2875            126014.8382      
0.29              126010.1858      
0.2925            126005.6475      
0.295             126001.2219      
0.2975            125996.9073      
0.3               125992.702       
0.3025            125988.6043      
0.305             125984.6124      
0.3075            125980.7244      
0.31              125976.9385      
0.3125            125973.2527      
0.315             125969.6652      
0.3175            125966.174       
0.32              125962.7771      
0.3225            125959.4726      
0.325             125956.2586      
0.3275            125953.133       
0.33              125950.0939      
0.3325            125947.1394      
0.335             125944.2676      
0.3375            125941.4766      
0.34              125938.7643      
0.3425            125936.1291      
0.345             125933.5689      
0.3475            125931.082       
0.35              125928.6666      
0.3525            125926.3209      
0.355             125924.0431      
0.3575            125921.8314      
0.36              125919.6843      
0.3625            125917.6         
0.365             125915.5768      
0.3675            125913.6132      
0.37              125911.7076      
0.3725            125909.8584      
0.375             125908.0641      
0.3775            125906.3233      
0.38              125904.6343      
0.3825            125902.996       
0.385             125901.4067      
0.3875            125899.8653      
0.39              125898.3702      
0.3925            125896.9204      
0.395             125895.5143      
0.3975            125894.1509      
0.4               125892.8289      
0.4025            125891.5472      
0.405             125890.3045      
0.4075            125889.0997      
0.41              125887.9318      
0.4125            125886.7997      
0.415             125885.7024      
0.4175            125884.6387      
0.42              125883.6078      
0.4225            125882.6087      
0.425             125881.6404      
0.4275            125880.7021      
0.43              125879.7928      
0.4325            125878.9116      
0.435             125878.0578      
0.4375            125877.2305      
0.44              125876.429       
0.4425            125875.6524      
0.445             125874.9         
0.4475            125874.171       
0.45              125873.4649      
0.4525            125872.7808      
0.455             125872.1181      
0.4575            125871.4761      
0.46              125870.8543      
0.4625            125870.252       
0.465             125869.6686      
0.4675            125869.1035      
0.47              125868.5562      
0.4725            125868.0262      
0.475             125867.5128      
0.4775            125867.0156      
0.48              125866.5341      
0.4825            125866.0677      
0.485             125865.6161      
0.4875            125865.1788      
0.49              125864.7553      
0.4925            125864.3452      
0.495             125863.9481      
0.4975            125863.5636      
0.5               125863.1912      
