#              y        d.bubbles                p       alpha.air1       alpha.air2       alpha.air3    alpha.bubbles
           0.015    0.00305600394       107385.456   8.28961369e-68   7.51995905e-67   5.88534268e-79            3e-06
           0.025    0.00305600394       107284.707    3.0804184e-56   6.32266566e-55   4.20317345e-68            3e-06
           0.035    0.00305600394       107183.957   2.27128083e-16   1.01376105e-25   2.29547858e-31            3e-06
           0.045    0.00300031702       107100.354       0.34096465   1.52185796e-10   3.44597215e-16       0.34096665
           0.055     0.0030009552       107032.798      0.319039483   1.67823256e-08   1.40383211e-15      0.319041483
           0.065    0.00300159809       106964.258      0.321157272   1.09663647e-07   1.25939454e-14      0.321159272
           0.075    0.00300224114       106895.803       0.32070468   4.12446305e-07   1.01131911e-13       0.32070668
           0.085    0.00300288465       106827.334      0.320872646   1.17138792e-06   5.83744286e-13      0.320874817
           0.095    0.00300352858       106758.882        0.3210648   2.77742699e-06   2.58835265e-12      0.321068577
           0.105    0.00300417281       106690.452      0.321278408   5.80005295e-06   9.41922873e-12      0.321285208
           0.115     0.0030048173       106622.043      0.321495094   1.10152394e-05   2.94434736e-11       0.32150711
           0.125    0.00300546201       106553.658      0.321710971   1.94292734e-05   8.15883396e-11        0.3217314
           0.135    0.00300610696       106485.294      0.321923295   3.22968327e-05    2.0498079e-10      0.321956592
           0.145    0.00300675213       106416.954      0.322130183   5.11333783e-05   4.74757743e-10      0.322182317
           0.155    0.00300739744       106348.636      0.322329703   7.77216426e-05   1.02661677e-09      0.322408425
           0.165    0.00300804293       106280.341      0.322519776   0.000114112724   2.09329502e-09      0.322634889
           0.175    0.00300868858       106212.068      0.322698085   0.000162621588   4.05668964e-09      0.322861706
           0.185    0.00300933432       106143.819      0.322862049   0.000225817523   7.51979152e-09      0.323088867
           0.195    0.00300998018       106075.593      0.323009176   0.000306511734   1.34032024e-08      0.323316688
           0.205    0.00301062616       106007.389      0.323134802   0.000407732975   2.30709976e-08      0.323543535
           0.215     0.0030112722       105939.209      0.323238337   0.000532738589   3.84935122e-08      0.323772075
           0.225    0.00301191829       105871.053      0.323361181   0.000684927336   6.24455055e-08      0.324047109
           0.235    0.00301256449       105802.922      0.323378095   0.000867822062   9.87527504e-08      0.324246917
           0.245    0.00301321077       105734.811      0.323371992     0.0010851547   1.52603053e-07      0.324458147
           0.255    0.00301385711       105666.723       0.32334273    0.00134073321   2.30895428e-07      0.324684464
           0.265    0.00301450353       105598.657      0.323274507    0.00163838666   3.42652432e-07      0.324913894
           0.275    0.00301515001       105530.615      0.323160576    0.00198199981   4.99514108e-07      0.325143576
           0.285    0.00301579656       105462.596      0.322997002    0.00237546816   7.16292898e-07       0.32537347
           0.295    0.00301644318         105394.6      0.322780018    0.00282266157   1.01160119e-06      0.325603691
           0.305    0.00301708998       105326.627      0.322505643    0.00332739361    1.4085556e-06      0.325834445
           0.315    0.00301773689       105258.677      0.322170261    0.00389340027   1.93556187e-06      0.326065597
           0.325    0.00301838393       105190.751      0.321770064     0.0045243058   2.62717071e-06      0.326296997
           0.335    0.00301903109       105122.848      0.321301662    0.00522360593   3.52501841e-06      0.326528793
           0.345    0.00301967841       105054.968      0.320761525     0.0059946345   4.67883242e-06      0.326760838
           0.355    0.00302032588       104987.112      0.320146578    0.00684055238   6.14752156e-06      0.326993278
           0.365    0.00302097354       104919.279      0.319453653    0.00776431505   8.00031755e-06      0.327225969
           0.375    0.00302162138        104851.47      0.318680058    0.00876866746       1.0318e-05      0.327459043
           0.385    0.00302226944       104783.684      0.317823147    0.00985611704   1.31941572e-05      0.327692458
           0.395    0.00302291771       104715.922      0.316880536     0.0110289232   1.67365075e-05      0.327926196
           0.405    0.00302356622       104648.183      0.315850095     0.0122890855    2.1068262e-05      0.328160249
           0.415    0.00302421499       104580.468      0.314729954     0.0136383326    2.6329515e-05      0.328394616
           0.425    0.00302486403       104512.777      0.313518506     0.0150781138   3.26786597e-05      0.328629298
           0.435    0.00302551335       104445.109      0.312214409     0.0166095921   4.02938134e-05      0.328864295
           0.445    0.00302616297       104377.465      0.310816593     0.0182336392   4.93742447e-05      0.329099607
           0.455     0.0030268129       104309.844      0.309324259     0.0199508326   6.01417896e-05      0.329335233
           0.465    0.00302746316       104242.248       0.30773688     0.0217614541    7.2842244e-05      0.329571176
           0.475    0.00302811376       104174.675      0.306054198     0.0236654895   8.77467229e-05      0.329807434
           0.485    0.00302876471       104107.126      0.304276225     0.0256626307   0.000105152971      0.330044009
           0.495    0.00302941603         104039.6      0.302403235     0.0277522784   0.000125386615        0.3302809
           0.505    0.00303006771       103972.099      0.300435759     0.0299335465   0.000148802347      0.330518108
           0.515    0.00303071979       103904.622       0.29837458     0.0322052677   0.000175785021      0.330755632
           0.525    0.00303137225       103837.168      0.296220724         0.034566   0.000206750659      0.330993475
           0.535    0.00303202512       103769.739      0.293975453     0.0370140349   0.000242147352      0.331231635
           0.545    0.00303267839       103702.333      0.291640252     0.0395474052   0.000282456043      0.331470113
           0.555    0.00303333208       103634.952      0.289216823     0.0421638954   0.000328191187       0.33170891
           0.565    0.00303398619       103567.594      0.286707073     0.0448610511   0.000379901285      0.331948025
           0.575    0.00303464073       103500.261      0.284113099     0.0476361908   0.000438169266      0.332187459
           0.585     0.0030352957       103432.952      0.281437181     0.0504864171   0.000503612734      0.332427211
           0.595    0.00303595111       103365.667      0.278681771     0.0534086285   0.000576884053      0.332667283
           0.605    0.00303660696       103298.406      0.275849474     0.0563995323   0.000658670272      0.332907677
           0.615    0.00303726325       103231.169      0.272943043     0.0594556567   0.000749692886      0.333148392
           0.625    0.00303791998       103163.957       0.26996536     0.0625733639   0.000850707439      0.333389431
           0.635    0.00303857717       103096.769      0.266919428     0.0657488637   0.000962502951      0.333630795
           0.645    0.00303923479       103029.605      0.263808357     0.0689782263    0.00108590118      0.333872484
           0.655    0.00303989287       102962.466      0.260635348     0.0722573958    0.00122175571      0.334114499
           0.665    0.00304055139       102895.351      0.257403687     0.0755822036    0.00137095089      0.334356841
           0.675    0.00304121036       102828.261      0.254116727     0.0789483815    0.00153440056      0.334599509
           0.685    0.00304186978       102761.195      0.250777881     0.0823515752    0.00171304668      0.334842503
           0.695    0.00304252964       102694.153      0.247390606     0.0857873577    0.00190785777      0.335085821
           0.705    0.00304318994       102627.136      0.243958394      0.089251243    0.00211982725      0.335329464
           0.715    0.00304385068       102560.144      0.240484764     0.0927386984     0.0023499716      0.335573434
           0.725    0.00304451185       102493.176      0.236973248     0.0962451577    0.00259932832      0.335817734
           0.735    0.00304517347       102426.233      0.233427382     0.0997660324     0.0028689539      0.336062369
           0.745    0.00304583551       102359.314      0.229850698      0.103296723    0.00315992143      0.336307342
           0.755    0.00304649798        102292.42      0.226246708      0.106832631     0.0034733183      0.336552657
           0.765    0.00304716087       102225.551      0.222618904      0.110369166    0.00381024366      0.336798313
           0.775    0.00304782417       102158.707       0.21897074      0.113901762    0.00417180587      0.337044307
           0.785    0.00304848789       102091.887      0.215305631      0.117425885    0.00455911997      0.337290636
           0.795    0.00304915201       102025.093      0.211626946      0.120937044    0.00497330494      0.337537296
           0.805    0.00304981654       101958.323      0.207938001      0.124430804    0.00541548107      0.337784285
           0.815    0.00305048145       101891.578       0.20424205       0.12790279    0.00588676711      0.338031607
           0.825    0.00305114676       101824.858      0.200542286      0.131348703    0.00638827748      0.338279266
           0.835    0.00305181244       101758.163       0.19684183       0.13476432    0.00692111932      0.338527269
           0.845    0.00305247851       101691.493      0.193143727      0.138145505    0.00748638954      0.338775621
           0.855    0.00305314493       101624.847      0.189450941      0.141488216    0.00808517189      0.339024328
           0.865    0.00305381172       101558.228      0.185766351      0.144788509    0.00871853402      0.339273393
           0.875    0.00305447885       101491.633      0.182092746      0.148042546     0.0093875246      0.339522816
           0.885    0.00305514633       101425.063      0.178432824      0.151246601     0.0100931705      0.339772596
           0.895    0.00305581414       101358.518      0.174789189      0.154397066     0.0108364742      0.340022729
           0.905    0.00305648227       101291.999      0.171164348      0.157490454     0.0116184108      0.340273213
           0.915    0.00305715072       101225.505      0.167560713      0.160523409     0.0124399256      0.340524048
           0.925    0.00305781946       101159.036      0.163980596      0.163492706     0.0133019315      0.340775233
           0.935     0.0030584885       101092.593      0.160426209      0.166395255     0.0142053065      0.341026771
           0.945    0.00305915782       101026.175      0.156899664      0.169228109     0.0151508913      0.341278664
           0.955     0.0030598274       100959.782      0.153402974      0.171988457     0.0161394866      0.341530918
           0.965    0.00306049724       100893.415      0.149938046      0.174673637     0.0171718514      0.341783534
           0.975    0.00306116731       100827.073      0.146506688      0.177281128     0.0182487003      0.342036516
           0.985    0.00306183762       100760.757      0.143110606      0.179808559     0.0193707023      0.342289868
           0.995    0.00306250813       100694.466      0.139751411      0.182253704     0.0205384764      0.342543591
