/*--------------------------------*- C++ -*----------------------------------*\
  =========                 |
  \\      /  F ield         | OpenFOAM: The Open Source CFD Toolbox
   \\    /   O peration     | Website:  https://openfoam.org
    \\  /    A nd           | Version:  12
     \\/     M anipulation  |
\*---------------------------------------------------------------------------*/
FoamFile
{
    format      ascii;
    class       volScalarField;
    location    "300";
    object      p;
}
// * * * * * * * * * * * * * * * * * * * * * * * * * * * * * * * * * * * * * //

dimensions      [0 2 -2 0 0 0 0];

internalField   nonuniform List<scalar> 
10720
(
-90.2291
-164.279
-251.675
-337.129
-415.541
-495.477
-565.878
-624.597
-675.512
-715.018
-745.099
-767.06
-781.701
-790.228
-793.086
-789.815
-781.337
-766.314
-745.89
-718.686
-685.737
-646.236
-602.415
-555.179
-508.033
-466.059
-428.246
-391.005
-354.056
-317.621
-281.52
-245.612
-209.794
-173.837
-137.486
-99.6367
-59.9244
-12.3733
35.4241
-15.2728
52.8277
126.322
195.436
254.976
300.96
329.725
340.806
340.174
329.275
309.525
286.451
262.999
240.192
218.719
198.454
179.49
161.421
143.993
126.716
109.542
92.1538
74.6448
57.4126
42.3502
30.5254
20.8891
13.0548
7.02545
2.85827
0.456356
-0.286137
0.55143
2.97257
6.98889
13.018
21.614
36.501
61.5897
23.3624
-33.0101
-95.9598
-162.614
-230.897
-300.632
-368.147
-431.337
-489.581
-541.102
-585.58
-623.013
-653.466
-677.004
-693.551
-702.823
-705.422
-700.92
-689.862
-671.635
-646.794
-615.067
-578.136
-537.147
-495.187
-456.572
-420.844
-385.209
-349.498
-314.028
-278.706
-243.43
-208.123
-172.573
-136.537
-98.9299
-59.4034
-11.9426
35.0997
74.1895
122.825
171.568
218.951
261.081
295.355
318.777
330.076
330.617
321.655
305.762
286.324
265.472
244.319
223.626
203.662
184.593
166.267
148.511
131.007
113.662
96.2701
78.9141
62.0022
47.0077
34.8457
24.7968
16.5358
10.0855
5.50097
2.71205
1.62133
2.14703
4.29171
8.07674
13.9236
22.3771
37.1748
61.2497
39.8432
-10.6129
-67.1997
-129.485
-193.877
-259.692
-325.341
-388.121
-446.457
-499.362
-545.599
-584.864
-616.968
-641.857
-659.726
-670.778
-675.243
-672.935
-664.045
-648.342
-626.125
-597.449
-563.573
-525.781
-486.624
-449.642
-414.946
-380.374
-345.607
-310.924
-276.262
-241.527
-206.653
-171.449
-135.682
-98.2866
-58.9334
-11.6648
34.8479
85.4801
130.047
174.57
217.028
254.039
283.994
304.846
315.901
317.871
311.602
298.988
282.317
263.436
243.622
223.753
204.292
185.476
167.302
149.651
132.296
115.115
97.9698
80.9245
64.3516
49.4198
37.024
26.7579
18.3103
11.6831
6.92205
3.96667
2.7197
3.10124
5.11512
8.79104
14.5516
22.9388
37.6136
60.7034
64.8371
22.3847
-25.9467
-79.004
-134.583
-192.609
-251.409
-309.156
-364.514
-416.345
-463.51
-505.34
-541.354
-571.261
-594.844
-612.099
-622.785
-626.631
-623.584
-613.525
-596.625
-573.096
-543.952
-510.523
-475.016
-440.452
-407.416
-374.321
-340.788
-307.103
-273.269
-239.213
-204.889
-170.125
-134.703
-97.5872
-58.472
-11.5222
34.4497
102.927
139.665
176.636
212.527
244.214
270.461
289.434
300.368
303.553
299.517
289.715
275.853
259.423
241.595
223.216
204.807
186.672
168.929
151.544
134.388
117.373
100.426
83.6195
67.3037
52.4392
39.8691
29.3923
20.7228
13.8558
8.84215
5.63367
4.14458
4.3043
6.12218
9.6355
15.2659
23.5427
38.0191
60.1278
73.0581
35.3312
-7.83305
-55.5338
-105.645
-158.569
-212.903
-267
-319.829
-370.235
-417.065
-459.528
-496.952
-528.808
-554.712
-574.429
-587.593
-594.091
-593.79
-586.677
-572.86
-552.623
-526.798
-496.643
-464.058
-431.562
-399.965
-368.152
-335.739
-302.996
-269.976
-236.615
-202.877
-168.6
-133.577
-96.7999
-57.9912
-11.4665
33.8148
107
139.562
172.417
204.307
232.483
256.111
273.707
284.533
288.656
286.479
279.104
267.808
253.75
237.93
221.143
203.923
186.635
169.478
152.508
135.682
118.954
102.299
85.8052
69.7981
55.0764
42.4111
31.7634
22.9052
15.8338
10.6038
7.18026
5.48772
5.46149
7.11257
10.4835
15.9938
24.1557
38.4039
59.5165
78.3508
44.91
6.43913
-36.0627
-80.7401
-128.301
-177.442
-226.85
-275.767
-323.136
-367.972
-409.506
-446.997
-479.809
-507.446
-529.504
-545.614
-555.524
-558.961
-555.778
-545.977
-529.791
-507.898
-481.447
-452.092
-421.962
-392.028
-361.62
-330.411
-298.667
-266.49
-233.848
-200.716
-166.95
-132.355
-95.9581
-57.5138
-11.526
32.9501
108.434
137.176
166.372
194.907
220.246
241.779
258.274
268.957
273.762
273.065
267.693
258.634
246.786
232.971
217.894
202.057
185.836
169.478
153.107
136.75
120.414
104.117
87.9663
72.2734
57.7177
45.0009
34.2087
25.181
17.9171
12.4743
8.832
6.92551
6.69793
8.16533
11.377
16.75
24.776
38.7507
58.8516
79.5636
49.3958
14.5924
-23.8873
-64.2602
-107.473
-152.36
-197.772
-243.201
-287.696
-330.406
-370.632
-407.615
-440.673
-469.233
-492.779
-510.833
-523.001
-528.95
-528.493
-521.619
-508.547
-489.849
-466.544
-440.058
-412.161
-383.873
-354.863
-324.875
-294.153
-262.843
-230.938
-198.432
-165.197
-131.057
-95.0758
-57.0519
-11.7111
31.8683
106.732
132.603
159.014
184.929
208.026
227.871
243.444
253.938
259.23
259.689
255.951
248.795
238.926
227.005
213.628
199.239
184.194
168.768
153.125
137.351
121.499
105.633
89.8751
74.528
60.1819
47.4766
36.5867
27.4208
19.9865
14.3459
10.4941
8.3796
7.95401
9.23885
12.2895
17.5179
25.3932
39.0509
58.1395
78.9147
51.525
19.8551
-15.133
-51.7481
-91.0695
-132.024
-173.609
-215.494
-256.866
-296.985
-335.267
-371.008
-403.537
-432.247
-456.571
-475.954
-489.97
-498.239
-500.478
-496.578
-486.675
-471.215
-451.068
-427.458
-401.872
-375.331
-347.786
-319.072
-289.423
-259.018
-227.885
-196.033
-163.354
-129.693
-94.1589
-56.6063
-12.0139
30.5828
103.618
127.086
151.172
174.915
196.157
214.596
229.36
239.625
245.251
246.597
244.172
238.608
230.469
220.28
208.533
195.6
181.804
167.414
152.615
137.533
122.261
106.896
91.5828
76.6131
62.5161
49.8763
38.931
29.6553
22.0711
16.2468
12.1934
9.87408
9.24959
10.3477
13.23
18.3018
26.0073
39.304
57.3852
76.8948
51.8176
22.7838
-9.26709
-42.7052
-78.6769
-116.209
-154.398
-193.055
-231.473
-269.028
-305.246
-339.485
-371.117
-399.549
-424.183
-444.43
-459.799
-469.854
-474.234
-472.763
-465.533
-452.895
-435.582
-414.635
-391.284
-366.499
-340.435
-313.019
-284.476
-255.012
-224.684
-193.518
-161.426
-128.271
-93.2145
-56.1743
-12.4191
29.1177
99.545
121.028
143.181
165.104
184.775
202.026
216.064
226.071
231.917
233.936
232.559
228.313
221.659
213.018
202.788
191.269
178.74
165.445
151.571
137.267
122.655
107.86
93.0423
78.4885
64.6822
52.1629
41.209
31.8572
24.1482
18.1583
13.9149
11.3969
10.5754
11.4848
14.1936
19.0978
26.6146
39.5086
56.5897
74.0858
50.9917
24.2319
-5.2729
-35.9576
-68.9953
-103.481
-138.598
-174.263
-209.851
-244.852
-278.885
-311.377
-341.78
-369.525
-394.014
-414.66
-430.934
-442.375
-448.583
-449.294
-444.526
-434.526
-419.896
-401.5
-380.354
-357.353
-332.798
-306.711
-279.309
-250.819
-221.33
-190.884
-159.41
-126.793
-92.2491
-55.7567
-12.9161
27.505
94.9811
114.771
135.274
155.638
173.96
190.179
203.559
213.285
219.259
221.786
221.241
218.076
212.682
205.401
196.553
186.374
175.091
162.915
150.022
136.563
122.681
108.518
94.2458
80.1475
66.6737
54.3272
43.4129
34.0202
26.213
20.0772
15.6567
12.9469
11.9309
12.6499
15.1795
19.9043
27.213
39.6647
55.7548
70.7895
49.409
24.622
-2.67096
-30.9568
-61.4236
-93.2192
-125.6
-158.544
-191.508
-224.075
-255.949
-286.627
-315.628
-342.437
-366.488
-387.199
-404.033
-416.489
-424.16
-426.693
-424.047
-416.39
-404.194
-388.172
-369.149
-347.926
-324.894
-300.153
-273.921
-246.438
-217.821
-188.127
-157.303
-125.259
-91.2656
-55.3577
-13.4992
25.7694
90.1677
108.502
127.577
146.588
163.736
179.042
191.813
201.25
207.28
210.185
210.296
208.016
203.684
197.582
189.973
181.036
170.949
159.885
147.997
135.432
122.334
108.856
95.1776
81.574
68.4746
56.3519
45.5255
36.1296
28.2533
21.9938
17.4112
14.5187
13.3123
13.84
16.1852
20.7189
27.7999
39.7725
54.8841
67.2278
47.3495
24.2966
-1.05032
-27.2296
-55.4236
-84.8246
-114.747
-145.22
-175.761
-206.027
-235.796
-264.633
-292.132
-317.827
-341.194
-361.683
-378.762
-391.912
-400.728
-404.794
-404.004
-398.447
-388.481
-374.677
-357.696
-338.235
-316.732
-293.353
-268.315
-241.869
-214.154
-185.244
-155.106
-123.668
-90.2656
-54.9816
-14.1665
23.9261
85.28
102.343
120.169
137.987
154.1
168.587
180.79
189.935
195.962
199.142
199.77
198.211
194.768
189.681
183.169
175.365
166.404
156.421
145.54
133.893
121.62
108.873
95.8293
82.7593
70.0745
58.224
47.5335
38.1736
30.2591
23.8998
19.1723
16.1078
14.7162
15.0526
17.2085
21.5393
28.3731
39.833
53.9803
63.5465
44.994
23.4791
-0.142936
-24.4574
-50.631
-77.8958
-105.61
-133.844
-162.168
-190.29
-218.053
-245.083
-271.039
-295.516
-318.039
-338.094
-355.17
-368.743
-378.414
-383.732
-384.521
-380.806
-372.846
-361.086
-346.043
-328.308
-308.329
-286.317
-262.495
-237.112
-210.328
-182.234
-152.815
-122.02
-89.2496
-54.6314
-14.9148
21.9839
80.4224
96.3696
113.083
129.838
145.029
158.775
170.445
179.298
185.282
188.654
189.687
188.714
186.012
181.795
176.243
169.459
161.541
152.589
142.699
131.977
120.551
108.567
96.1943
83.6944
71.4632
59.9302
49.4227
40.1391
32.2187
25.7856
20.9324
17.7082
16.138
16.2843
18.2464
22.3629
28.9303
39.8473
53.0472
59.8434
42.4724
22.3329
0.252698
-22.3976
-46.7647
-72.1153
-97.841
-124.047
-150.341
-176.476
-202.345
-227.63
-252.046
-275.252
-296.821
-316.278
-333.144
-346.911
-357.176
-363.492
-365.609
-363.497
-357.333
-347.447
-334.232
-318.174
-299.703
-279.059
-256.464
-232.168
-206.343
-179.097
-150.43
-120.315
-88.2182
-54.3102
-15.7398
19.9508
75.6686
90.6193
106.341
122.139
136.501
149.566
160.734
169.299
175.207
178.709
180.057
179.558
177.473
173.994
169.279
163.405
156.442
148.459
139.523
129.716
119.147
107.946
96.2728
84.3748
72.6326
61.4596
51.1805
42.0137
34.1211
27.6417
22.6835
19.3137
17.5732
17.5313
19.2959
23.1868
29.4691
39.8174
52.0883
56.1835
39.8756
20.974
0.282047
-20.8754
-43.619
-67.2429
-91.1754
-115.539
-139.974
-164.275
-188.371
-211.994
-234.912
-256.828
-277.374
-296.117
-312.616
-326.388
-337.029
-344.109
-347.32
-346.585
-342.005
-333.82
-322.313
-307.866
-290.875
-271.59
-250.231
-227.04
-202.201
-175.831
-147.95
-118.553
-87.1713
-54.0179
-16.6376
17.836
71.0643
85.119
99.9437
114.876
128.485
140.921
151.617
159.896
165.705
169.286
170.876
170.76
169.188
166.337
162.346
157.277
151.178
144.094
136.064
127.147
117.429
107.022
96.0687
84.7983
73.5765
62.8025
52.7946
43.7848
35.9547
29.4577
24.4171
20.9176
19.0161
18.7893
20.3533
24.0082
29.9873
39.7452
51.108
52.6112
37.2674
19.4871
0.052968
-19.7575
-41.0316
-63.0925
-85.4003
-108.087
-130.823
-153.435
-175.882
-197.934
-219.403
-240.044
-259.532
-277.484
-293.495
-307.114
-317.942
-325.583
-329.676
-330.105
-326.912
-320.256
-310.329
-297.419
-281.87
-263.928
-243.805
-221.734
-197.902
-172.438
-145.377
-116.733
-86.1092
-53.7552
-17.6015
15.6486
66.6369
79.8808
93.8898
108.031
120.951
132.803
143.053
151.052
156.743
160.365
162.138
162.331
161.184
158.863
155.497
151.136
145.814
139.553
132.374
124.311
115.427
105.812
95.5883
84.9658
74.2923
63.9518
54.2547
45.441
37.708
31.2232
26.1242
22.5123
20.4607
20.0535
21.4146
24.8236
30.4829
39.6333
50.1104
49.1574
34.6908
17.9323
-0.354815
-18.9433
-38.881
-59.5231
-80.3522
-101.511
-122.695
-143.752
-164.664
-185.241
-205.328
-224.724
-243.147
-260.259
-275.695
-289.038
-299.9
-307.915
-312.7
-314.097
-312.101
-306.807
-298.33
-286.872
-272.716
-256.092
-237.2
-216.258
-193.452
-168.919
-142.709
-114.856
-85.0318
-53.5203
-18.6246
13.3981
62.4023
74.9089
88.1705
101.585
113.87
125.178
135.005
142.729
148.29
151.922
153.831
154.271
153.476
151.605
148.776
145.035
140.403
134.892
128.503
121.249
113.17
104.336
94.8443
84.8823
74.7785
64.9016
55.5515
46.9711
39.3699
32.9276
27.7953
24.0899
21.9006
21.3187
22.4754
25.6299
30.954
39.4845
49.0997
45.8406
32.1768
16.3574
-0.882537
-18.3532
-37.0737
-56.4194
-75.9005
-95.6619
-115.422
-135.047
-154.541
-173.738
-192.518
-210.712
-228.08
-244.328
-259.125
-272.094
-282.864
-291.095
-296.403
-298.59
-297.615
-293.523
-286.364
-276.263
-263.442
-248.103
-230.428
-210.619
-188.855
-165.277
-139.948
-112.923
-83.9382
-53.3118
-19.6987
11.0966
58.3688
70.1998
82.774
95.5177
107.214
118.013
127.438
134.893
140.315
143.933
145.94
146.578
146.074
144.582
142.214
139.014
134.996
130.16
124.497
118.001
110.693
102.618
93.8517
84.5558
75.0375
65.6489
56.6777
48.3656
40.9297
34.5604
29.4207
25.6419
23.3283
22.5791
23.5311
26.4235
31.3989
39.3021
48.0815
42.6717
29.7476
14.7915
-1.48281
-17.931
-35.5338
-53.6927
-71.938
-90.421
-108.874
-127.182
-145.362
-163.272
-180.818
-197.864
-214.201
-229.577
-243.698
-256.22
-266.798
-275.111
-280.791
-283.609
-283.491
-280.445
-274.473
-265.631
-254.08
-239.986
-223.508
-204.829
-184.118
-161.516
-137.097
-110.933
-82.8283
-53.1272
-20.8148
8.75569
54.5394
65.7477
77.686
89.8081
100.954
111.275
120.319
127.512
132.789
136.373
138.448
139.243
138.981
137.809
135.837
133.106
129.63
125.401
120.399
114.607
108.027
100.683
92.6271
83.9964
75.0741
66.1931
57.628
49.6158
42.3774
36.1112
30.9905
27.1595
24.7364
23.8283
24.5764
27.2009
31.816
39.0892
47.0604
39.6573
27.4173
13.2594
-2.12374
-17.6295
-34.2049
-51.2713
-68.3834
-85.6913
-102.942
-120.034
-136.998
-153.71
-170.097
-186.051
-201.393
-215.905
-229.328
-241.353
-251.659
-259.942
-265.865
-269.169
-269.759
-267.615
-262.701
-255.016
-244.662
-231.765
-216.458
-198.901
-179.248
-157.64
-134.158
-108.889
-81.7009
-52.9634
-21.9633
6.38778
50.9126
61.5452
72.8927
84.4365
95.0676
104.937
113.619
120.555
125.685
129.221
131.34
132.259
132.195
131.294
129.662
127.339
124.339
120.65
116.248
111.104
105.206
98.5581
91.1919
83.2183
74.8951
66.5354
58.3989
50.7147
43.7039
37.5701
32.4949
28.6336
26.1168
25.0598
25.6061
27.9582
32.204
38.8495
46.0413
36.7993
25.1944
11.7782
-2.77867
-17.4142
-33.0401
-49.0999
-65.1677
-81.393
-97.5367
-113.508
-129.346
-144.945
-160.246
-175.166
-189.554
-203.219
-215.936
-227.426
-237.399
-245.563
-251.618
-255.282
-256.446
-255.069
-251.089
-244.457
-235.222
-223.468
-209.3
-192.849
-174.257
-153.655
-131.133
-106.791
-80.5546
-52.8157
-23.1338
4.00641
47.4862
57.583
68.3795
79.3826
89.5308
98.9738
107.31
113.999
118.978
122.455
124.598
125.614
125.714
125.042
123.7
121.732
119.149
115.942
112.079
107.528
102.262
96.2719
89.5684
82.237
74.51
66.6796
58.989
51.657
44.9012
38.9277
33.9241
30.0548
27.4613
26.2663
26.6145
28.6918
32.5618
38.5863
45.0295
34.0979
23.0847
10.3587
-3.42898
-17.2572
-32.0039
-47.1318
-62.2353
-77.4594
-92.5812
-107.518
-122.315
-136.877
-151.165
-165.112
-178.588
-191.432
-203.445
-214.38
-223.973
-231.948
-238.038
-241.954
-243.57
-242.838
-239.673
-233.992
-225.795
-215.125
-202.055
-186.692
-169.156
-149.57
-128.028
-104.641
-79.388
-52.6795
-24.3152
1.62581
44.2543
53.8512
64.1319
74.6279
84.3215
93.3616
101.368
107.816
112.645
116.055
118.207
119.297
119.532
119.053
117.96
116.299
114.083
111.301
107.922
103.908
99.2258
93.8516
87.7786
81.0694
73.9305
66.6319
59.3992
52.4389
45.9626
40.1754
35.2688
31.4139
28.7612
27.4403
27.5956
29.3978
32.8883
38.3031
44.0298
31.551
21.09
9.00952
-4.06019
-17.1391
-31.0673
-45.3312
-59.5409
-73.8398
-88.0147
-101.994
-115.825
-129.426
-142.767
-155.799
-168.41
-180.462
-191.784
-202.154
-211.335
-219.066
-225.112
-229.184
-231.149
-230.947
-228.487
-223.656
-216.414
-206.763
-194.748
-180.447
-163.958
-145.393
-124.847
-102.44
-78.199
-52.5489
-25.497
-0.74073
41.2099
50.3404
60.1369
70.1553
79.4204
88.0784
95.7691
101.985
106.662
110
112.148
113.294
113.641
113.326
112.447
111.052
109.156
106.749
103.803
100.275
96.1264
91.3242
85.8465
79.7347
73.1703
66.4002
59.6324
53.0587
46.8825
41.3055
36.5199
32.7016
30.008
28.5744
28.5435
30.0723
33.1829
38.0031
43.0471
29.1548
19.2111
7.73539
-4.66231
-17.042
-30.2081
-43.6678
-57.0479
-70.4877
-83.7869
-96.878
-109.813
-122.52
-134.978
-147.15
-158.943
-170.239
-180.885
-190.689
-199.436
-206.883
-212.82
-216.969
-219.19
-219.418
-217.559
-213.483
-207.111
-198.415
-187.405
-174.134
-158.677
-141.133
-121.595
-100.189
-76.9857
-52.4173
-26.6672
-3.07853
38.3469
47.0392
56.3807
65.9492
74.8091
83.1034
90.4921
96.482
101.012
104.272
106.407
107.595
108.033
107.856
107.161
105.996
104.38
102.305
99.7427
96.6517
92.9895
88.7153
83.7954
78.2526
72.2443
65.9944
59.6927
53.5165
47.6574
42.3114
37.6694
33.9093
31.1929
29.6606
29.452
30.7115
33.4447
37.6895
42.0857
26.9043
17.4473
6.53946
-5.22818
-16.9533
-29.4079
-42.1173
-54.7249
-67.367
-79.8524
-92.1196
-104.223
-116.098
-127.734
-139.101
-150.122
-160.695
-170.689
-179.933
-188.232
-195.368
-201.143
-205.302
-207.698
-208.268
-206.916
-203.502
-197.919
-190.109
-180.052
-167.774
-153.331
-136.803
-118.28
-97.8926
-75.7451
-52.2778
-27.8142
-5.37357
35.6576
43.9382
52.8502
61.993
70.4688
78.4172
85.5175
91.29
95.674
98.8543
100.968
102.185
102.698
102.638
102.101
101.137
99.765
97.9814
95.7598
93.0603
89.8385
86.0485
81.6475
76.6427
71.168
65.4259
59.5872
53.8138
48.2848
43.188
38.7099
35.0284
32.3077
30.6913
30.315
31.3117
33.6732
37.365
41.1496
24.7949
15.7961
5.42271
-5.75285
-16.8645
-28.6529
-40.661
-52.5482
-64.447
-76.1751
-87.677
-99.0067
-110.108
-120.976
-131.59
-141.883
-151.771
-161.139
-169.833
-177.681
-184.484
-190.059
-194.174
-196.678
-197.51
-196.58
-193.741
-188.867
-181.872
-172.713
-161.39
-147.935
-132.413
-114.909
-95.5506
-74.4757
-52.122
-28.926
-7.61179
33.1346
41.0268
49.5328
58.2719
66.3837
74.003
80.8263
86.3894
90.6306
93.7292
95.8154
97.0525
97.627
97.6663
97.2648
96.4741
95.3158
93.7884
91.8687
89.5187
86.694
83.3454
79.424
74.9236
69.9579
64.7069
59.3237
53.9542
48.7642
43.9309
39.6349
36.0513
33.3444
31.659
31.1264
31.8691
33.8678
37.0321
40.2424
22.8212
14.2541
4.38549
-6.23276
-16.768
-27.9313
-39.2829
-50.4967
-61.7018
-72.7239
-83.5135
-94.1236
-104.505
-114.657
-124.566
-134.176
-143.415
-152.182
-160.342
-167.742
-174.199
-179.543
-183.57
-186.125
-187.151
-186.567
-184.225
-179.983
-173.735
-165.416
-155.003
-142.508
-127.977
-111.488
-93.1679
-73.1742
-51.9428
-29.9926
-9.77989
30.7698
38.2952
46.4169
54.7736
62.5388
69.8448
76.4025
81.7633
85.865
88.8813
90.9358
92.1846
92.8084
92.9321
92.6479
92.008
91.0364
89.7341
88.081
86.0419
83.5737
80.6259
77.1453
73.1156
68.6309
63.8509
58.9113
53.9429
49.0965
44.5379
40.4391
36.9709
34.2951
32.5563
31.8802
32.38
34.028
36.6926
39.3668
20.9771
12.8186
3.42605
-6.66553
-16.6589
-27.2344
-37.9699
-48.5541
-59.1103
-69.474
-79.5994
-89.5398
-99.2494
-108.734
-117.984
-126.952
-135.577
-143.772
-151.417
-158.375
-164.48
-169.574
-173.476
-176.035
-177.198
-176.893
-174.973
-171.291
-165.723
-158.186
-148.637
-137.068
-123.51
-108.027
-90.7459
-71.8387
-51.7329
-31.0019
-11.865
28.5555
35.7341
43.4917
51.4845
58.9201
65.9272
72.2302
77.3957
81.3615
84.2955
86.3152
87.5693
88.2334
88.4285
88.2453
87.7365
86.9279
85.8231
84.4053
82.6422
80.4927
77.9076
74.8303
71.2362
67.2031
62.8714
58.3607
53.7861
49.2841
45.0075
41.1188
37.7813
35.1531
33.3764
32.5709
32.841
34.1532
36.3483
38.5251
19.2568
11.485
2.54315
-7.05072
-16.5335
-26.5561
-36.7121
-46.7056
-56.6546
-66.4031
-75.9078
-85.2234
-94.3077
-103.169
-111.802
-120.169
-128.216
-135.867
-143.017
-149.542
-155.294
-160.124
-163.876
-166.401
-167.651
-167.566
-166.005
-162.814
-157.861
-151.049
-142.315
-131.635
-119.023
-104.535
-88.2889
-70.4665
-51.4823
-31.9442
-13.8541
26.4845
33.3341
40.7458
48.3923
55.5139
62.2357
68.2947
73.2717
77.1054
79.9576
81.9401
83.1943
83.8907
84.1468
84.0504
83.6557
82.9895
82.058
80.8475
79.3291
77.4646
75.2054
72.4948
69.3022
65.6903
61.7824
57.6825
53.4915
49.331
45.3404
41.6709
38.4777
35.9121
34.1131
33.1931
33.2487
34.243
36.0001
37.7186
17.6545
10.249
1.73458
-7.3885
-16.389
-25.8898
-35.5009
-44.9391
-54.3188
-63.4912
-72.4165
-81.1484
-89.649
-97.9285
-105.986
-113.788
-121.291
-128.427
-135.104
-141.21
-146.612
-151.172
-154.753
-157.213
-158.51
-158.594
-157.333
-154.571
-150.172
-144.026
-136.058
-126.228
-114.534
-101.021
-85.8008
-69.0556
-51.1855
-32.8086
-15.736
24.5492
31.0862
38.1694
45.4864
52.3082
58.7571
64.5822
69.3774
73.083
75.8543
77.7978
79.0482
79.7698
80.0779
80.0569
79.7616
79.2201
78.4403
77.4121
76.1102
74.4989
72.5322
70.1539
67.3292
64.1081
60.5978
56.8886
53.0675
49.2421
45.5382
42.0945
39.0562
36.5672
34.7607
33.7421
33.6
34.2965
35.6486
36.9477
16.1642
9.10655
0.997447
-7.67928
-16.2241
-25.2324
-34.3297
-43.246
-52.0912
-60.7238
-69.1069
-77.2932
-85.2486
-92.9845
-100.504
-107.778
-114.769
-121.418
-127.643
-133.345
-138.404
-142.691
-146.088
-148.46
-149.771
-149.981
-148.968
-146.58
-142.675
-137.14
-129.887
-120.864
-110.056
-97.4964
-83.2852
-67.6048
-50.8346
-33.5869
-17.5012
22.7425
28.9826
35.7529
42.7556
49.2911
55.4791
61.0794
65.7003
69.2816
71.9733
73.8763
75.1194
75.8611
76.2129
76.2572
76.0484
75.616
74.9693
74.1016
72.9908
71.6045
69.8992
67.8206
65.3313
62.4706
59.3312
55.9906
52.5236
49.0239
45.6038
42.3893
39.5146
37.1143
35.3145
34.2135
33.8922
34.313
35.2939
36.2124
14.7803
8.05297
0.328975
-7.92441
-16.0381
-24.5808
-33.1933
-41.6184
-49.9614
-58.0874
-65.9627
-73.6386
-81.0842
-88.312
-95.3277
-102.107
-108.618
-114.808
-120.605
-125.92
-130.644
-134.66
-137.863
-140.13
-141.428
-141.728
-140.918
-138.852
-135.389
-130.41
-123.823
-115.563
-105.604
-93.9694
-80.7471
-66.1133
-50.4233
-34.2709
-19.1414
21.0574
27.0152
33.4874
40.1897
46.4518
52.3901
57.7746
62.2275
65.6882
68.3021
70.1643
71.3975
72.1545
72.5432
72.6439
72.5107
72.1734
71.6437
70.9169
69.9745
68.7874
67.3152
65.5062
63.3215
60.7912
57.9955
55.0005
51.8693
48.6835
45.5415
42.5568
39.8516
37.5503
35.7708
34.6038
34.1226
34.2916
34.9356
35.5114
13.4968
7.08376
-0.273975
-8.1254
-15.8306
-23.9325
-32.0871
-40.0489
-47.9193
-55.5695
-62.9691
-70.1672
-77.1361
-83.8895
-90.434
-96.7501
-102.81
-108.568
-113.959
-118.905
-123.306
-127.056
-130.061
-132.209
-133.474
-133.834
-133.188
-131.398
-128.327
-123.854
-117.883
-110.341
-101.193
-90.4509
-78.1914
-64.5798
-49.9466
-34.8536
-20.6484
19.4871
25.1761
31.3639
37.7795
43.7801
49.4792
54.6568
58.9475
62.292
64.8295
66.6505
67.8713
68.6396
69.0599
69.2093
69.142
68.8881
68.4604
67.8575
67.0634
66.0524
64.7876
63.2199
61.3106
59.082
56.6028
53.9295
51.115
48.2287
45.3568
42.5997
40.0675
37.8737
36.1268
34.9102
34.2892
34.2314
34.5727
34.8431
12.3083
6.19451
-0.814683
-8.28405
-15.6018
-23.2866
-31.0079
-38.5328
-45.9575
-53.1607
-60.1136
-66.864
-73.3866
-79.6963
-85.8008
-91.6835
-97.3206
-102.673
-107.681
-112.275
-116.366
-119.856
-122.662
-124.684
-125.9
-126.295
-125.782
-124.228
-121.502
-117.488
-112.084
-105.215
-96.8362
-86.9509
-75.6233
-63.0057
-49.3994
-35.3291
-22.0168
18.0254
23.4582
29.3744
35.5159
41.2663
46.7362
51.7149
55.8495
59.0815
61.5444
63.324
64.5309
65.307
65.7537
65.9455
65.9355
65.7543
65.4164
64.922
64.2582
63.4026
62.3216
60.9694
59.308
57.3537
55.1648
52.7891
50.2706
47.6681
45.0558
42.5217
40.1638
38.0839
36.3808
35.1304
34.3901
34.1315
34.204
34.2049
11.2096
5.38071
-1.29646
-8.40247
-15.3525
-22.6418
-29.9535
-37.0655
-44.0706
-50.8528
-57.3863
-63.7171
-69.8221
-75.7163
-81.409
-86.8862
-92.1273
-97.0978
-101.745
-106.006
-109.801
-113.04
-115.649
-117.54
-118.695
-119.107
-118.697
-117.345
-114.925
-111.323
-106.441
-100.199
-92.547
-83.4795
-73.0485
-61.3913
-48.7794
-35.6937
-23.2418
16.6659
21.8541
27.5112
33.3904
38.9012
44.1514
48.9389
52.9234
56.0464
58.4364
60.1751
61.3663
62.1476
62.6166
62.8448
62.8846
62.7671
62.5077
62.1081
61.5588
60.8399
59.9215
58.7612
57.3222
55.616
53.6918
51.5897
49.3462
47.0104
44.6456
42.3279
40.1431
38.1819
36.5324
35.2633
34.4242
33.9907
33.8278
33.5938
10.1953
4.63813
-1.72271
-8.48284
-15.0836
-21.9976
-28.9211
-35.6431
-42.2525
-48.6384
-54.7778
-60.7148
-66.4284
-71.9341
-77.2418
-82.3396
-87.2099
-91.8226
-96.1306
-100.077
-103.59
-106.588
-109.005
-110.764
-111.85
-112.263
-111.934
-110.753
-108.602
-105.372
-100.967
-95.3067
-88.3376
-80.0462
-70.4733
-59.7386
-48.0849
-35.9439
-24.3203
15.4027
20.3576
25.7667
31.3951
36.6764
41.7157
46.3194
50.159
53.1769
55.496
57.1938
58.3684
59.1523
59.6394
59.8991
59.9823
59.9205
59.7294
59.4131
58.9639
58.3651
57.5901
56.6002
55.3603
53.8773
52.1933
50.3416
48.3518
46.2649
44.1338
42.0239
40.0094
38.1696
36.5822
35.3085
34.3906
33.8083
33.4422
33.0062
9.26033
3.96252
-2.09675
-8.52758
-14.7963
-21.3543
-27.91
-34.2632
-40.4987
-46.5114
-52.28
-57.8476
-63.1942
-68.336
-73.2835
-78.0268
-82.5503
-86.8278
-90.8172
-94.4677
-97.7135
-100.482
-102.713
-104.34
-105.352
-105.755
-105.488
-104.452
-102.536
-99.6405
-95.6713
-90.5493
-84.2187
-76.6603
-67.9031
-58.0506
-47.3145
-36.0785
-25.2506
14.2303
18.9622
24.1342
29.5222
34.5836
39.4204
43.8474
47.5475
50.4637
52.7136
54.3708
55.528
56.3124
56.8145
57.1008
57.2218
57.2083
57.077
56.8332
56.4717
55.9782
55.3294
54.4902
53.4276
52.145
50.6779
49.0538
47.2969
45.4404
43.5286
41.6165
39.7677
38.0503
36.532
35.2664
34.2892
33.5833
33.0451
32.4381
8.40006
3.3498
-2.42185
-8.53879
-14.4919
-20.7117
-26.9189
-32.9229
-38.8052
-44.4662
-49.8862
-55.1067
-60.1095
-64.9107
-69.5213
-73.9327
-78.1322
-82.0962
-85.7871
-89.159
-92.1533
-94.7034
-96.7556
-98.2538
-99.1898
-99.5736
-99.3544
-98.4404
-96.7324
-94.1358
-90.5628
-85.9366
-80.2004
-73.33
-65.3447
-56.3306
-46.4696
-36.0971
-26.0326
13.1429
17.662
22.6067
27.7646
32.6151
37.2576
41.5144
45.0801
47.8978
50.0805
51.6973
52.8361
53.6191
54.1332
54.4424
54.596
54.6245
54.5452
54.3646
54.0795
53.6783
53.1401
52.4338
51.5287
50.4253
49.1531
47.7351
46.1904
44.546
42.8382
41.113
39.4236
37.8282
36.3844
35.1386
34.1203
33.3152
32.6343
31.8856
7.60982
2.79579
-2.70118
-8.51894
-14.172
-20.0701
-25.9468
-31.6204
-37.1692
-42.4985
-47.5904
-52.4847
-57.165
-61.6475
-65.9429
-70.0443
-73.9409
-77.6119
-81.0235
-84.1343
-86.8918
-89.2359
-91.1182
-92.4914
-93.3507
-93.7098
-93.5254
-92.7156
-91.1898
-88.8611
-85.6476
-81.4766
-76.2913
-70.0636
-62.8042
-54.5825
-45.5521
-36.0012
-26.6677
12.1356
16.4509
21.1784
26.1154
30.7637
35.2194
39.3125
42.7484
45.471
47.5881
49.1651
50.2849
51.0646
51.5881
51.9166
52.0981
52.163
52.1288
52.0032
51.7846
51.4637
51.0225
50.4333
49.6674
48.7234
47.6258
46.3933
45.0411
43.5906
42.0713
40.521
38.9839
37.5084
36.1432
34.9273
33.8848
33.0034
32.2076
31.3443
6.88515
2.29686
-2.938
-8.47045
-13.8378
-19.4304
-24.9933
-30.354
-35.5874
-40.6039
-45.3867
-49.9747
-54.3527
-58.5365
-62.5373
-66.3491
-69.963
-73.3603
-76.5109
-79.3778
-81.9132
-84.0636
-85.7853
-87.0389
-87.8224
-88.1528
-87.994
-87.2726
-85.907
-83.8181
-80.9304
-77.1753
-72.4982
-66.8681
-60.2877
-52.8112
-44.5653
-35.7935
-27.1582
11.2033
15.3239
19.8431
24.5685
29.0227
33.2989
37.2343
40.5449
43.1753
45.2284
46.766
47.8661
48.6411
49.1715
49.516
49.7215
49.8178
49.8226
49.7446
49.5837
49.3326
48.9761
48.4895
47.8464
47.0438
46.1017
45.0356
43.8568
42.5827
41.2364
39.8487
38.4556
37.097
35.8129
34.6357
33.5843
32.6479
31.7628
30.81
6.22182
1.84921
-3.13527
-8.39563
-13.4912
-18.7932
-24.0581
-29.1227
-34.0578
-38.779
-43.2711
-47.5712
-51.6653
-55.5695
-59.2947
-62.836
-66.186
-69.3281
-72.2355
-74.8745
-77.2025
-79.1713
-80.7422
-81.882
-82.5922
-82.892
-82.7514
-82.1052
-80.8807
-79.0062
-76.4129
-73.0374
-68.8271
-63.7498
-57.8015
-51.0222
-43.5135
-35.478
-27.508
10.3415
14.2755
18.5953
23.1176
27.3854
31.4889
35.2724
38.4621
41.0032
42.994
44.4925
45.5724
46.3412
46.8764
47.2341
47.4597
47.5829
47.6213
47.5844
47.4734
47.2828
46.9999
46.6028
46.0678
45.3902
44.5861
43.6682
42.6452
41.5303
40.3419
39.1043
37.8465
36.6006
35.3989
34.2675
33.2207
32.2488
31.298
30.2786
5.61573
1.44937
-3.29598
-8.29677
-13.1333
-18.1592
-23.1412
-27.9251
-32.5783
-37.0208
-41.239
-45.2684
-49.0965
-52.7387
-56.2063
-59.4951
-62.5989
-65.5032
-68.184
-70.6109
-72.7456
-74.5448
-75.9746
-77.0076
-77.6477
-77.916
-77.7881
-77.2063
-76.1062
-74.4233
-72.0958
-69.0654
-65.2826
-60.7143
-55.3511
-49.2209
-42.4021
-35.0597
-27.7222
9.54542
13.301
17.4295
21.7571
25.8457
29.7831
33.4203
36.4932
38.9476
40.8774
42.3373
43.3965
44.1579
44.6957
45.0639
45.3065
45.4525
45.5197
45.518
45.4499
45.3116
45.0924
44.7735
44.333
43.7654
43.0833
42.297
41.413
40.4413
39.3961
38.2962
37.1645
36.0263
34.907
33.8272
32.7969
31.8069
30.8116
29.7464
5.06313
1.09383
-3.42289
-8.17612
-12.7659
-17.5291
-22.2427
-26.7605
-31.1469
-35.3264
-39.2865
-43.0616
-46.64
-50.0371
-53.2638
-56.317
-59.1916
-61.8747
-64.3445
-66.5743
-68.5291
-70.1708
-71.4692
-72.4023
-72.9761
-73.2131
-73.0941
-72.5679
-71.5775
-70.0661
-67.9781
-65.2608
-61.8677
-57.7661
-52.9425
-47.4132
-41.237
-34.5449
-27.8068
8.81094
12.3956
16.3407
20.4813
24.3979
28.1754
31.6715
34.6312
37.0017
38.872
40.2936
41.3315
42.0843
42.623
42.9993
43.2558
43.4211
43.5126
43.5411
43.5099
43.4165
43.2522
43.0009
42.6429
42.1717
41.5971
40.9271
40.1666
39.323
38.4068
37.4325
36.4176
35.3815
34.3437
33.3197
32.316
31.323
30.3023
29.2098
4.56027
0.779468
-3.51883
-8.03574
-12.3906
-16.9039
-21.3624
-25.628
-29.7622
-33.6934
-37.4106
-40.9465
-44.2908
-47.4583
-50.46
-53.2934
-55.9545
-58.4317
-60.7058
-62.7524
-64.5406
-66.0363
-67.2129
-68.0533
-68.5651
-68.772
-68.6587
-68.1809
-67.2879
-65.9298
-64.0575
-61.6234
-58.5845
-54.9092
-50.5804
-45.6053
-40.025
-33.9406
-27.7688
8.13402
11.555
15.3242
19.2852
23.0363
26.66
30.0197
32.8704
35.1592
36.9712
38.3549
39.3711
40.1141
40.652
41.0341
41.302
41.4832
41.5953
41.6492
41.6493
41.5943
41.4773
41.2846
40.9982
40.6111
40.1306
39.563
38.9119
38.1822
37.3817
36.5212
35.6138
34.6739
33.7158
32.7506
31.7814
30.7987
29.7691
28.6658
4.10368
0.503182
-3.58641
-7.87773
-12.0089
-16.2842
-20.5006
-24.5273
-28.4228
-32.1196
-35.6078
-38.9189
-42.0436
-44.9963
-47.788
-50.4164
-52.8788
-55.1648
-57.2572
-59.1343
-60.7684
-62.129
-63.1933
-63.948
-64.4024
-64.5808
-64.4716
-64.0359
-63.2295
-62.0085
-60.3302
-58.1516
-55.4338
-52.1463
-48.2695
-43.8032
-38.7733
-33.2547
-27.6159
7.51078
10.7748
14.3754
18.1638
21.756
25.2314
28.4597
31.2045
33.414
35.1691
36.5151
37.509
38.2412
38.7767
39.1627
39.4395
39.6338
39.7629
39.8382
39.8648
39.8425
39.7659
39.6233
39.3989
39.085
38.6867
38.2089
37.6539
37.0251
36.328
35.5702
34.7611
33.9111
33.0301
32.1253
31.1973
30.2358