/*--------------------------------*- C++ -*----------------------------------*\
  =========                 |
  \\      /  F ield         | OpenFOAM: The Open Source CFD Toolbox
   \\    /   O peration     | Website:  https://openfoam.org
    \\  /    A nd           | Version:  12
     \\/     M anipulation  |
\*---------------------------------------------------------------------------*/
FoamFile
{
    format      ascii;
    class       surfaceScalarField;
    location    "300";
    object      phi;
}
// * * * * * * * * * * * * * * * * * * * * * * * * * * * * * * * * * * * * * //

dimensions      [0 3 -1 0 0 0 0];

internalField   nonuniform List<scalar> 
21254
(
-0.241941
0.261452
-0.0195113
0.283415
-0.0219631
0.302211
-0.0187963
0.318954
-0.0167427
0.334787
-0.0158331
0.347384
-0.0125966
0.357294
-0.00991028
0.365327
-0.00803282
0.370561
-0.00523424
0.374072
-0.00351046
0.376111
-0.0020399
0.376509
-0.000397275
0.375624
0.000885175
0.373421
0.00220296
0.369841
0.00357964
0.365177
0.00466427
0.35925
0.00592632
0.35217
0.0070807
0.343799
0.00837023
0.334382
0.00941779
0.3236
0.0107815
0.312037
0.0115636
0.299964
0.0120728
0.288692
0.0112717
0.279421
0.00927067
0.271465
0.00795608
0.263695
0.00777052
0.255794
0.00790106
0.247428
0.0083654
0.238511
0.00891687
0.229018
0.00949379
0.218939
0.0100789
0.20821
0.010729
0.196592
0.0116174
0.183559
0.0130329
0.168053
0.0155067
0.147716
0.0203369
0.117117
0.0305992
0.0951961
0.0219216
-0.218841
-0.0230996
-0.194948
-0.0238929
-0.165496
-0.0294523
-0.133112
-0.0323838
-0.098912
-0.0342
-0.0634919
-0.0354201
-0.0284286
-0.0350633
0.0041542
-0.0325828
0.0336655
-0.0295113
0.0598325
-0.026167
0.0822154
-0.0223829
0.101234
-0.0190191
0.11724
-0.0160052
0.130596
-0.0133562
0.142022
-0.0114262
0.151853
-0.00983102
0.160571
-0.00871757
0.168413
-0.00784232
0.175694
-0.00728055
0.182538
-0.00684481
0.18912
-0.0065815
0.195431
-0.00631064
0.201403
-0.00597241
0.206412
-0.00500905
0.210271
-0.00385893
0.213258
-0.00298668
0.215369
-0.00211165
0.216723
-0.00135336
0.217332
-0.000609033
0.217139
0.000192432
0.216049
0.00109021
0.214196
0.00185276
0.211706
0.00249033
0.208641
0.00306515
0.20486
0.00378076
0.199938
0.00492217
0.192692
0.00724564
0.17778
0.0149123
0.155046
0.0227335
-0.220801
0.242376
-0.0410866
0.264433
-0.0440203
0.28745
-0.0418133
0.308911
-0.0382035
0.329839
-0.0367607
0.349215
-0.0319728
0.366641
-0.0273363
0.382378
-0.0237703
0.39602
-0.0188761
0.407627
-0.0151176
0.41722
-0.0116325
0.42494
-0.00811721
0.431099
-0.00527435
0.435849
-0.00254659
0.43907
0.000358369
0.440446
0.00328884
0.439899
0.00647276
0.437557
0.0094229
0.432919
0.0130082
0.426281
0.0160555
0.417248
0.0198153
0.406117
0.022694
0.392889
0.0253007
0.378208
0.0259527
0.363345
0.0241342
0.348745
0.0225555
0.334506
0.0220096
0.320849
0.0215587
0.307592
0.0216214
0.294593
0.0219164
0.281643
0.0224439
0.268583
0.0231386
0.255165
0.024147
0.241177
0.0256054
0.226225
0.0279855
0.209313
0.0324184
0.189171
0.0404789
0.156916
0.0628539
0.113447
0.0653914
-0.198741
-0.0451588
-0.175105
-0.0475294
-0.147426
-0.057131
-0.118136
-0.0616742
-0.0870166
-0.0653194
-0.0545019
-0.0679348
-0.0221211
-0.0674441
0.00888348
-0.0635874
0.0373831
-0.058011
0.0627556
-0.0515394
0.0849096
-0.044537
0.104146
-0.0382556
0.120907
-0.0327665
0.13542
-0.0278686
0.148122
-0.024128
0.159314
-0.0210231
0.169287
-0.0186913
0.178351
-0.016906
0.186759
-0.0156887
0.194626
-0.014711
0.20211
-0.0140659
0.209284
-0.0134842
0.216073
-0.0127623
0.222022
-0.0109572
0.226853
-0.00869048
0.230772
-0.00690553
0.233774
-0.00511416
0.235912
-0.00349089
0.237231
-0.00192831
0.23788
-0.000456628
0.23796
0.00101012
0.237412
0.00240102
0.236106
0.00379642
0.233998
0.00517345
0.23103
0.00674829
0.226959
0.00899348
0.221764
0.0124402
0.210837
0.0258394
0.18973
0.0438405
-0.214241
0.235984
-0.062829
0.257878
-0.065915
0.281502
-0.0654364
0.303097
-0.0597992
0.323624
-0.0572877
0.343269
-0.0516177
0.360739
-0.044806
0.376446
-0.0394773
0.389947
-0.0323767
0.401529
-0.0266998
0.411223
-0.0213266
0.419192
-0.0160868
0.425268
-0.0113496
0.429928
-0.00720713
0.432923
-0.00263661
0.434994
0.00121825
0.435827
0.0056397
0.43577
0.00947968
0.434492
0.0142865
0.431931
0.0186166
0.42797
0.0237756
0.42244
0.0282248
0.415312
0.0324288
0.406682
0.0345819
0.397073
0.0337431
0.386548
0.0330809
0.374997
0.0335602
0.362568
0.0339875
0.349435
0.0347553
0.335693
0.0356576
0.321493
0.0366447
0.306864
0.0377672
0.291751
0.0392603
0.27598
0.0413762
0.259164
0.0448016
0.240308
0.051274
0.218236
0.0625511
0.185268
0.0958222
0.13769
0.112969
-0.192357
-0.0670437
-0.16836
-0.0715261
-0.139641
-0.0858499
-0.109743
-0.0915725
-0.0784863
-0.0965756
-0.0460234
-0.100398
-0.0139706
-0.0994968
0.0160023
-0.0935603
0.0435662
-0.0855749
0.0685463
-0.0765195
0.0906442
-0.0666348
0.110017
-0.0576289
0.127023
-0.0497721
0.141935
-0.0427807
0.155065
-0.0372574
0.166747
-0.0327056
0.177249
-0.0291928
0.186836
-0.026493
0.195717
-0.0245699
0.204057
-0.0230509
0.21204
-0.0220496
0.219682
-0.021126
0.226891
-0.0199709
0.233365
-0.0174317
0.238819
-0.0141447
0.243355
-0.0114415
0.247031
-0.00878955
0.249877
-0.00633745
0.251959
-0.00401031
0.25327
-0.00176763
0.253881
0.000398871
0.253787
0.00249559
0.253009
0.00457426
0.251475
0.00670725
0.249081
0.00914262
0.245441
0.0126333
0.240126
0.0177552
0.229438
0.036527
0.209411
0.0638681
-0.206638
0.229392
-0.0855832
0.252202
-0.0887246
0.277275
-0.0905096
0.300153
-0.0826774
0.322317
-0.079451
0.343548
-0.0728493
0.36303
-0.0642879
0.380575
-0.0570226
0.396399
-0.0482008
0.410278
-0.0405789
0.422329
-0.0333774
0.432549
-0.0263067
0.440971
-0.0197713
0.447632
-0.013868
0.452852
-0.00785721
0.456261
-0.00219007
0.458003
0.00389711
0.457837
0.00964605
0.456089
0.0160347
0.452636
0.0220688
0.447628
0.0287843
0.441312
0.0345405
0.433818
0.0399231
0.42565
0.0427493
0.417241
0.0421529
0.408644
0.0416775
0.399488
0.0427158
0.389624
0.0438518
0.378871
0.0455083
0.367052
0.0474768
0.354162
0.0495343
0.340192
0.0517377
0.325143
0.0543091
0.308893
0.0576258
0.29119
0.0625046
0.271089
0.0713755
0.247337
0.0863033
0.21306
0.1301
0.164851
0.161178
-0.184166
-0.0895158
-0.160057
-0.0956346
-0.130804
-0.115103
-0.100764
-0.121613
-0.0694353
-0.127904
-0.0368624
-0.132971
-0.00488692
-0.131472
0.0247119
-0.123159
0.0517652
-0.112628
0.0763433
-0.101098
0.0981065
-0.088398
0.117293
-0.076815
0.134311
-0.0667905
0.149401
-0.0578706
0.162879
-0.050735
0.174969
-0.0447956
0.18596
-0.0401842
0.196032
-0.0365648
0.205414
-0.0339523
0.214246
-0.0318831
0.222641
-0.0304438
0.230663
-0.0291482
0.238254
-0.0275616
0.245095
-0.0242728
0.250945
-0.0199948
0.255864
-0.0163608
0.259897
-0.0128225
0.263092
-0.0095327
0.265482
-0.00640018
0.267124
-0.00340895
0.268044
-0.00052198
0.26827
0.00227001
0.267799
0.00504551
0.266615
0.0078907
0.264599
0.0111585
0.261371
0.0158615
0.256337
0.0227897
0.246148
0.0467156
0.226479
0.0835375
-0.20252
0.226091
-0.109154
0.249785
-0.112419
0.276278
-0.117002
0.299927
-0.106327
0.323119
-0.102644
0.34546
-0.09519
0.365849
-0.0846768
0.384388
-0.0755614
0.401378
-0.0651912
0.416162
-0.0553624
0.429132
-0.0463478
0.440227
-0.0374011
0.449723
-0.0292681
0.457289
-0.0214336
0.463103
-0.0136712
0.467167
-0.00625444
0.46964
0.00142473
0.470559
0.0087265
0.46968
0.016914
0.467266
0.0244831
0.46317
0.0328797
0.457533
0.0401777
0.450591
0.0468654
0.44274
0.0505997
0.434557
0.050336
0.426249
0.0499863
0.417668
0.0512967
0.40875
0.0527691
0.399354
0.0549046
0.38931
0.0575209
0.378369
0.0604747
0.366304
0.0638026
0.3529
0.0677135
0.337869
0.0726574
0.320801
0.0795725
0.300818
0.0913578
0.276491
0.110631
0.241501
0.16509
0.193207
0.209473
-0.179006
-0.11303
-0.154192
-0.120448
-0.123698
-0.145597
-0.0928309
-0.15248
-0.0607963
-0.159939
-0.0276105
-0.166156
0.00478575
-0.163869
0.0344368
-0.15281
0.0613082
-0.1395
0.0856305
-0.12542
0.107104
-0.109871
0.126064
-0.0957758
0.143007
-0.0837326
0.15814
-0.073004
0.171777
-0.0643724
0.18418
-0.0571981
0.195523
-0.0515277
0.205991
-0.047032
0.215775
-0.0437363
0.225013
-0.0411219
0.2338
-0.0392306
0.242175
-0.0375233
0.250104
-0.0354903
0.257312
-0.0314807
0.263539
-0.0262219
0.268817
-0.0216387
0.273178
-0.0171838
0.276675
-0.0130295
0.279335
-0.00906036
0.281191
-0.00526522
0.282284
-0.00161457
0.282666
0.00188764
0.282332
0.00537981
0.281243
0.00897992
0.279346
0.0130555
0.276249
0.0189577
0.271348
0.0276914
0.261703
0.0563599
0.242703
0.102538
-0.199196
0.223784
-0.133743
0.248809
-0.137444
0.276682
-0.144874
0.301543
-0.131188
0.325757
-0.126858
0.349475
-0.118908
0.370836
-0.106037
0.390661
-0.0953871
0.40864
-0.08317
0.424657
-0.071379
0.43894
-0.0606312
0.451301
-0.0497614
0.461961
-0.0399281
0.470897
-0.0303699
0.477968
-0.0207427
0.483491
-0.0117774
0.487085
-0.00216867
0.488843
0.00696809
0.488876
0.0168808
0.487008
0.0263515
0.48329
0.0365974
0.477947
0.0455206
0.471133
0.0536802
0.463268
0.058464
0.454871
0.0587338
0.446203
0.0586535
0.437222
0.0602783
0.42794
0.0620508
0.418362
0.0644824
0.408416
0.0674668
0.39803
0.0708611
0.386971
0.0748616
0.374969
0.0797159
0.361593
0.0860332
0.346229
0.0949367
0.32769
0.109896
0.30436
0.13396
0.270004
0.199446
0.222225
0.257252
-0.174714
-0.137512
-0.149084
-0.146078
-0.117283
-0.177399
-0.0852765
-0.184486
-0.052245
-0.19297
-0.0181324
-0.200269
0.0149696
-0.196971
0.04496
-0.182801
0.0719263
-0.166466
0.0961741
-0.149668
0.117466
-0.131163
0.136207
-0.114517
0.152994
-0.100519
0.168083
-0.0880926
0.181778
-0.0780677
0.194336
-0.0697565
0.205918
-0.0631092
0.216713
-0.0578274
0.226848
-0.0538713
0.23645
-0.0507236
0.245609
-0.0483898
0.254347
-0.0462611
0.26261
-0.0437531
0.270212
-0.0390834
0.276827
-0.0328367
0.282445
-0.0272566
0.287151
-0.0218891
0.290938
-0.0168173
0.293856
-0.0119781
0.295933
-0.00734245
0.297208
-0.00288945
0.297706
0.00138935
0.297434
0.00565199
0.296407
0.0100072
0.294475
0.0149877
0.291344
0.0220884
0.286324
0.0327119
0.276965
0.0657186
0.258671
0.120832
-0.197178
0.223097
-0.159662
0.249159
-0.163506
0.278603
-0.174319
0.304744
-0.157329
0.33022
-0.152333
0.355017
-0.143705
0.377555
-0.128575
0.398235
-0.116067
0.417269
-0.102204
0.434231
-0.0883407
0.449351
-0.0757513
0.46277
-0.0631804
0.474352
-0.0515104
0.484161
-0.0401789
0.492259
-0.0288409
0.498466
-0.0179841
0.502936
-0.00663847
0.505572
0.0043321
0.506397
0.0160551
0.505349
0.0273997
0.502467
0.0394793
0.497815
0.0501731
0.491717
0.0597778
0.484358
0.0658228
0.476249
0.0668436
0.467626
0.0672759
0.458498
0.0694067
0.448898
0.071651
0.438911
0.0744689
0.428506
0.0778717
0.417691
0.0816763
0.406423
0.0861296
0.394572
0.0915669
0.381805
0.0988006
0.367614
0.109127
0.350794
0.126717
0.329511
0.155243
0.297477
0.23148
0.251242
0.303488
-0.171488
-0.163202
-0.144753
-0.172813
-0.111504
-0.210647
-0.0781904
-0.2178
-0.0439603
-0.2272
-0.00860771
-0.235621
0.0254624
-0.231041
0.0561073
-0.213446
0.0834192
-0.193778
0.107819
-0.174068
0.129037
-0.152381
0.147624
-0.133105
0.164259
-0.117155
0.179238
-0.103071
0.192897
-0.0917265
0.20552
-0.0823796
0.217274
-0.0748635
0.2283
-0.0688534
0.23873
-0.0643007
0.248654
-0.0606477
0.258142
-0.0578782
0.267208
-0.0553272
0.275828
-0.0523729
0.283756
-0.0470117
0.290764
-0.0398443
0.296773
-0.0332656
0.301804
-0.0269198
0.305906
-0.0209192
0.30908
-0.0151528
0.311389
-0.00965132
0.312832
-0.00433229
0.313466
0.000755366
0.313298
0.00582008
0.312275
0.0110304
0.310342
0.0169207
0.307117
0.0253134
0.30191
0.0379188
0.29263
0.074998
0.274961
0.138501
-0.195889
0.223144
-0.186917
0.250642
-0.191003
0.281772
-0.205449
0.309115
-0.184672
0.335883
-0.179102
0.361934
-0.169757
0.385494
-0.152134
0.407391
-0.137965
0.427243
-0.122056
0.445144
-0.106241
0.461319
-0.0919264
0.475603
-0.0774647
0.488071
-0.0639785
0.49884
-0.0509482
0.507843
-0.0378432
0.515033
-0.0251743
0.520439
-0.0120444
0.523989
0.00078192
0.525596
0.0144483
0.525264
0.027732
0.523078
0.0416649
0.519041
0.0542103
0.513394
0.0654247
0.506492
0.0727251
0.498659
0.0746762
0.490156
0.0757792
0.481039
0.0785237
0.471311
0.0813783
0.46102
0.0847604
0.450228
0.0886639
0.438886
0.093018
0.427044
0.097972
0.414609
0.104001
0.401485
0.111925
0.387281
0.123331
0.371151
0.142847
0.351586
0.174807
0.32278
0.260287
0.279297
0.346971
-0.168969
-0.190123
-0.141077
-0.200705
-0.106113
-0.245611
-0.0712802
-0.252633
-0.035626
-0.262855
0.00109631
-0.272344
0.0363875
-0.266332
0.0678985
-0.244957
0.095746
-0.221625
0.120437
-0.198758
0.141732
-0.173676
0.160237
-0.15161
0.176742
-0.133659
0.191591
-0.11792
0.205166
-0.105301
0.217808
-0.0950219
0.229634
-0.0866892
0.240822
-0.0800414
0.251468
-0.074947
0.261663
-0.0708428
0.271436
-0.0676509
0.280828
-0.0647199
0.289776
-0.061321
0.298073
-0.0553081
0.30545
-0.0472218
0.311826
-0.0396415
0.317211
-0.0323052
0.321634
-0.0253422
0.325088
-0.0186066
0.327616
-0.0121786
0.329262
-0.00597868
0.33003
-1.22641e-05
0.329949
0.00590032
0.328975
0.0120047
0.326994
0.0189022
0.323676
0.0286309
0.318297
0.0432976
0.309016
0.0842797
0.291958
0.155558
-0.195451
0.224073
-0.215539
0.253019
-0.21995
0.285849
-0.238278
0.314585
-0.213408
0.342826
-0.207343
0.370239
-0.197169
0.395023
-0.176918
0.417808
-0.160749
0.438779
-0.143027
0.457517
-0.12498
0.474404
-0.108813
0.48951
-0.0925706
0.502847
-0.0773157
0.514424
-0.0625251
0.524242
-0.0476612
0.532323
-0.0332552
0.538532
-0.0182532
0.542824
-0.00351019
0.545188
0.0120842
0.545578
0.0273422
0.544074
0.043169
0.540716
0.0575679
0.535674
0.0704672
0.529261
0.0791384
0.521808
0.0821288
0.513523
0.0840643
0.504459
0.0875876
0.49469
0.0911476
0.484276
0.0951735
0.473211
0.0997292
0.461504
0.104725
0.449159
0.110317
0.436122
0.117038
0.422277
0.125769
0.407406
0.138203
0.390869
0.159384
0.371784
0.193892
0.345791
0.28628
0.305506
0.387256
-0.167039
-0.218535
-0.137792
-0.229952
-0.101054
-0.282349
-0.0646621
-0.289024
-0.0273539
-0.300163
0.0109432
-0.310641
0.0476972
-0.303086
0.0802581
-0.277517
0.108827
-0.250194
0.133986
-0.223917
0.155478
-0.195168
0.174009
-0.170142
0.190438
-0.150088
0.20517
-0.132652
0.218641
-0.118772
0.231212
-0.107593
0.243068
-0.0985457
0.254344
-0.0913173
0.265144
-0.0857468
0.275556
-0.0812544
0.285611
-0.0777066
0.295275
-0.0743835
0.30453
-0.0705758
0.313179
-0.063957
0.320946
-0.0549892
0.327675
-0.0463707
0.333418
-0.0380477
0.338144
-0.0300679
0.341899
-0.0223617
0.34468
-0.0149599
0.346516
-0.00781484
0.347443
-0.000939062
0.347449
0.00589445
0.346519
0.012935
0.344536
0.0208849
0.341143
0.0320239
0.335576
0.0488646
0.326312
0.0935437
0.309857
0.172013
-0.195456
0.225693
-0.245776
0.25619
-0.250446
0.290916
-0.273004
0.32111
-0.243602
0.350641
-0.236874
0.379531
-0.226059
0.405489
-0.202877
0.429418
-0.184679
0.451379
-0.164987
0.471
-0.144601
0.488747
-0.12656
0.504734
-0.108558
0.518781
-0.091363
0.53108
-0.074824
0.541766
-0.0583467
0.550555
-0.042045
0.557545
-0.0252432
0.562594
-0.00855918
0.565759
0.00891935
0.566938
0.0261631
0.56605
0.0440578
0.563344
0.0602737
0.558882
0.0749286
0.552974
0.0850464
0.545876
0.0892275
0.537761
0.0921795
0.528804
0.0965439
0.519052
0.1009
0.5085
0.105726
0.497254
0.110974
0.485268
0.116711
0.472517
0.123069
0.458963
0.130593
0.444484
0.140248
0.428857
0.15383
0.411462
0.176778
0.391767
0.213588
0.367271
0.310776
0.329755
0.424772
-0.165674
-0.248316
-0.134962
-0.260664
-0.0962624
-0.321049
-0.0580106
-0.327276
-0.0190214
-0.339152
0.0211117
-0.350774
0.0593947
-0.341369
0.0931961
-0.311319
0.122658
-0.279656
0.148455
-0.249714
0.17027
-0.216983
0.188898
-0.18877
0.205319
-0.166509
0.21996
-0.147292
0.23332
-0.132132
0.245811
-0.120085
0.257631
-0.110365
0.268932
-0.102619
0.279855
-0.0966696
0.290431
-0.0918305
0.300669
-0.0879451
0.310609
-0.0843233
0.320169
-0.0801358
0.329149
-0.0729364
0.337265
-0.063105
0.344378
-0.0534839
0.350453
-0.0441229
0.355523
-0.0351378
0.359562
-0.0264012
0.362597
-0.0179943
0.364659
-0.00987761
0.365731
-0.00201019
0.365857
0.00576817
0.364983
0.0138083
0.362981
0.022887
0.3595
0.0355055
0.353812
0.0545527
0.344588
0.102767
0.328712
0.187889
-0.196088
0.227895
-0.277583
0.25997
-0.282521
0.296627
-0.309661
0.328506
-0.275481
0.359656
-0.268024
0.390021
-0.256424
0.417127
-0.229983
0.442289
-0.209841
0.465288
-0.187987
0.485855
-0.165168
0.504396
-0.145101
0.521021
-0.125182
0.535871
-0.106213
0.549018
-0.087971
0.560295
-0.0696238
0.569863
-0.0516133
0.577575
-0.0329552
0.583415
-0.0143987
0.587241
0.00509291
0.589092
0.0243126
0.588923
0.0442264
0.586797
0.0624
0.582916
0.0788093
0.577519
0.0904431
0.570822
0.0959249
0.563012
0.0999892
0.554176
0.10538
0.544395
0.110681
0.533795
0.116326
0.522334
0.122435
0.510076
0.128969
0.496995
0.13615
0.483007
0.14458
0.467978
0.155277
0.451648
0.17016
0.433446
0.19498
0.412691
0.234343
0.388508
0.334959
0.352821
0.460459
-0.164629
-0.279775
-0.13241
-0.292884
-0.0916349
-0.361824
-0.0514519
-0.367459
-0.0104979
-0.380106
0.0315008
-0.392773
0.0715475
-0.381415
0.106739
-0.346511
0.137268
-0.310185
0.163778
-0.276224
0.186057
-0.239262
0.204897
-0.20761
0.221385
-0.182998
0.235968
-0.161875
0.249229
-0.145393
0.26162
-0.132475
0.273373
-0.122117
0.284676
-0.113922
0.295626
-0.107619
0.306312
-0.102517
0.316754
-0.0983864
0.326916
-0.0944856
0.336732
-0.0899524
0.346041
-0.0822449
0.354508
-0.0715721
0.361973
-0.0609492
0.368416
-0.0505656
0.373809
-0.0405305
0.378164
-0.0307568
0.381461
-0.0212909
0.383724
-0.0121409
0.38499
-0.00327627
0.385224
0.00553387
0.384416
0.0146167
0.382405
0.0248985
0.378873
0.0390374
0.373048
0.0603772
0.363883
0.111933
0.348644
0.203127
-0.197039
0.230648
-0.311192
0.264484
-0.316357
0.30318
-0.348357
0.336662
-0.308962
0.369426
-0.300789
0.401379
-0.288376
0.429996
-0.2586
0.456295
-0.23614
0.480371
-0.212063
0.501845
-0.186642
0.521288
-0.164544
0.53878
-0.142675
0.554249
-0.121682
0.56802
-0.101742
0.580073
-0.0816766
0.59033
-0.0618704
0.598703
-0.0413283
0.605177
-0.0208727
0.609685
0.00058451
0.612227
0.021771
0.612735
0.0437182
0.611273
0.0638624
0.607975
0.0821066
0.603077
0.0953414
0.596769
0.102233
0.589234
0.107524
0.580551
0.114063
0.570843
0.120389
0.560149
0.12702
0.548542
0.134042
0.536024
0.141487
0.522586
0.149588
0.508198
0.158969
0.492656
0.170818
0.475711
0.187105
0.456803
0.213888
0.43502
0.256126
0.410403
0.359577
0.375806
0.495057
-0.163943
-0.31287
-0.129994
-0.326833
-0.0870866
-0.404732
-0.0448124
-0.409733
-0.00181485
-0.423103
0.0422338
-0.436821
0.0842219
-0.423404
0.120911
-0.383199
0.152611
-0.341885
0.180023
-0.303636
0.202876
-0.262116
0.222028
-0.226761
0.238616
-0.199587
0.253207
-0.176465
0.266393
-0.158579
0.278688
-0.144771
0.290344
-0.133773
0.301594
-0.125172
0.312569
-0.118594
0.323317
-0.113265
0.333877
-0.108947
0.34422
-0.104828
0.35431
-0.100043
0.363918
-0.0918534
0.372724
-0.0803775
0.380542
-0.068767
0.387323
-0.0573469
0.393063
-0.0462704
0.397702
-0.0353963
0.401282
-0.024871
0.403782
-0.0146404
0.405217
-0.0047111
0.405596
0.00515458
0.40484
0.015373
0.402844
0.026894
0.399251
0.0426305
0.39332
0.0663087
0.384278
0.120974
0.369697
0.217709
-0.198494
0.233811
-0.346509
0.269509
-0.352055
0.310366
-0.389214
0.345704
-0.344301
0.380223
-0.335308
0.413818
-0.321971
0.443857
-0.28864
0.471495
-0.263778
0.496635
-0.237203
0.519098
-0.209105
0.53938
-0.184825
0.557612
-0.160907
0.573904
-0.137974
0.588383
-0.116221
0.601054
-0.0943474
0.611908
-0.0727244
0.620954
-0.0503743
0.628118
-0.0280366
0.633287
-0.00458488
0.6364
0.0186579
0.637539
0.0425798
0.636659
0.0647416
0.633927
0.0848388
0.629577
0.0996913
0.623762
0.108049
0.616525
0.11476
0.608047
0.122541
0.598393
0.130043
0.587655
0.137758
0.575911
0.145787
0.563165
0.154232
0.549397
0.163356
0.534563
0.173803
0.518509
0.186873
0.50097
0.204644
0.481408
0.233449
0.458813
0.278721
0.433527
0.384863
0.399578
0.529006
-0.163477
-0.347887
-0.127869
-0.362441
-0.0825941
-0.450007
-0.0381303
-0.454197
0.00711292
-0.468347
0.0534271
-0.483136
0.097378
-0.467354
0.135769
-0.42159
0.168767
-0.374883
0.197184
-0.332053
0.220708
-0.285639
0.240257
-0.24631
0.257072
-0.216401
0.271717
-0.191111
0.284859
-0.171721
0.297067
-0.156978
0.308626
-0.145332
0.319796
-0.136343
0.330729
-0.129527
0.341512
-0.124048
0.352155
-0.11959
0.362665
-0.115338
0.372963
-0.110341
0.382863
-0.101754
0.391984
-0.0894981
0.40014
-0.0769231
0.407264
-0.064471
0.413312
-0.0523191
0.418276
-0.0403601
0.422134
-0.0287288
0.424879
-0.0173858
0.42652
-0.00635182
0.42703
0.00464477
0.426364
0.0160389
0.424373
0.0288847
0.42076
0.0462442
0.41475
0.0723182
0.405798
0.129926
0.391924
0.231582
-0.200193
0.237456
-0.383772
0.27512
-0.389719
0.318277
-0.432371
0.355507
-0.38153
0.39181
-0.371611
0.427166
-0.357327
0.458756
-0.32023
0.48771
-0.292732
0.514087
-0.26358
0.537549
-0.232567
0.5588
-0.206076
0.577821
-0.179928
0.594827
-0.154979
0.609983
-0.131378
0.623199
-0.107564
0.634738
-0.0842626
0.644407
-0.0600432
0.652164
-0.0357942
0.657986
-0.0104068
0.661764
0.0148795
0.663485
0.0408594
0.663218
0.0650088
0.661062
0.0869947
0.657218
0.103535
0.651823
0.113444
0.644915
0.121669
0.636673
0.130783
0.627142
0.139574
0.616394
0.148507
0.604524
0.157657
0.591542
0.167213
0.577462
0.177436
0.562191
0.189075
0.545646
0.203417
0.52751
0.22278
0.507303
0.253656
0.483953
0.302071
0.458071
0.410746
0.424616
0.56246
-0.163397
-0.384683
-0.125742
-0.400095
-0.0780885
-0.497661
-0.0312474
-0.501038
0.0163065
-0.515901
0.0649509
-0.53178
0.111166
-0.51357
0.151341
-0.461765
0.185811
-0.409352
0.215333
-0.361575
0.239639
-0.309945
0.259662
-0.266333
0.276753
-0.233493
0.291504
-0.205861
0.304629
-0.184846
0.316777
-0.169126
0.328248
-0.156804
0.339311
-0.147406
0.350185
-0.140401
0.360964
-0.134827
0.371662
-0.130288
0.38228
-0.125956
0.392781
-0.120841
0.402934
-0.111906
0.412349
-0.098914
0.420826
-0.0853993
0.428281
-0.0719264
0.43467
-0.0587082
0.439946
-0.0456359
0.444087
-0.0328701
0.447075
-0.0203738
0.448907
-0.00818409
0.449575
0.00397749
0.449
0.0166141
0.447039
0.030845
0.4434
0.0498838
0.437346
0.0783718
0.42857
0.138703
0.415389
0.244763
-0.202207
0.241578
-0.423144
0.281265
-0.429406
0.326837
-0.477943
0.366023
-0.420717
0.404261
-0.409849
0.441574
-0.394641
0.474693
-0.353348
0.505095
-0.323135
0.532834
-0.291318
0.557401
-0.257134
0.579543
-0.228218
0.599416
-0.199801
0.617056
-0.172619
0.632892
-0.147214
0.646865
-0.121536
0.658972
-0.0963697
0.669245
-0.0703164
0.677575
-0.0441245
0.683887
-0.0167184
0.688237
0.0105298
0.690572
0.0385242
0.690828
0.0647529
0.689229
0.0885938
0.68591
0.106853
0.680985
0.118369
0.674483
0.12817
0.666453
0.138813
0.65706
0.148967
0.64637
0.159197
0.634407
0.169619
0.621235
0.180386
0.606833
0.191838
0.59119
0.204717
0.57413
0.220477
0.555375
0.241536
0.534514
0.274517
0.510519
0.326066
0.484062
0.437203
0.451132
0.59539
-0.163408
-0.423482
-0.123877
-0.439626
-0.0735606
-0.547977
-0.024236
-0.550363
0.0258085
-0.565945
0.0770202
-0.582992
0.125525
-0.562075
0.167681
-0.503922
0.203671
-0.445342
0.234457
-0.39236
0.259618
-0.335106
0.280242
-0.286958
0.297688
-0.250939
0.312609
-0.220783
0.325784
-0.198021
0.337873
-0.181214
0.349246
-0.168177
0.36023
-0.15839
0.37102
-0.151191
0.381749
-0.145556
0.392464
-0.141003
0.403184
-0.136676
0.413845
-0.131503
0.424223
-0.122284
0.433931
-0.108622
0.442707
-0.0941757
0.45048
-0.0796994
0.457177
-0.0654052
0.462764
-0.0512222
0.467179
-0.0372856
0.470428
-0.0236231
0.472488
-0.0102441
0.473299
0.00316689
0.472841
0.0170718
0.47093
0.0327566
0.467282
0.0535312
0.461215
0.0844395
0.452586
0.147331
0.440154
0.257195
-0.20459
0.246122
-0.464675
0.287938
-0.471223
0.336025
-0.526029
0.377279
-0.461971
0.417638
-0.450208
0.456909
-0.433911
0.491736
-0.388175
0.523699
-0.355098
0.552735
-0.320354
0.578402
-0.282802
0.60154
-0.251356
0.622293
-0.220555
0.64081
-0.191135
0.657279
-0.163683
0.671841
-0.136099
0.684534
-0.109062
0.695359
-0.0811417
0.704248
-0.0530133
0.711209
-0.0236793
0.71608
0.00565901
0.718911
0.0356928
0.719754
0.0639095
0.718655
0.0896935
0.715835
0.109673
0.711349
0.122855
0.70522
0.134299
0.697497
0.146536
0.688274
0.15819
0.677624
0.169847
0.665602
0.181641
0.65227
0.193718
0.637606
0.206502
0.621551
0.220773
0.603997
0.238031
0.584667
0.260866
0.563176
0.296008
0.538513
0.350729
0.511555
0.464161
0.479172
0.627773
-0.163625
-0.464447
-0.121948
-0.481304
-0.0689301
-0.600995
-0.0169761
-0.602317
0.0357128
-0.618634
0.0896111
-0.63689
0.140614
-0.613077
0.184842
-0.54815
0.222533
-0.483033
0.254641
-0.424469
0.280795
-0.36126
0.302063
-0.308226
0.319921
-0.268797
0.33508
-0.235941
0.348331
-0.211273
0.360416
-0.193299
0.37171
-0.179471
0.382591
-0.169271
0.39329
-0.161889
0.403963
-0.156229
0.414662
-0.151702
0.425425
-0.147439
0.436224
-0.142303
0.44683
-0.132889
0.456781
-0.118574
0.465835
-0.103229
0.473908
-0.0877725
0.480914
-0.0724116
0.486806
-0.0571137
0.49152
-0.0420003
0.495026
-0.0271288
0.497284
-0.0125023
0.498289
0.00216239
0.497937
0.0174234
0.49609
0.0346039
0.492459
0.0571617
0.486396
0.0905034
0.477978
0.155749
0.466323
0.26885
-0.207187
0.250938
-0.508426
0.295086
-0.515371
0.345856
-0.576799
0.389346
-0.505461
0.431868
-0.49273
0.473174
-0.475217
0.50986
-0.424861
0.543437
-0.388674
0.573856
-0.350773
0.600758
-0.309704
0.625034
-0.275632
0.646645
-0.242165
0.665928
-0.210419
0.68313
-0.180884
0.698293
-0.151263
0.711587
-0.122356
0.722953
-0.092508
0.732408
-0.0624677
0.739837
-0.0311087
0.745266
0.000229767
0.748605
0.0323547
0.749918
0.0625963
0.749351
0.0902599
0.747009
0.112016
0.743004
0.126859
0.737246
0.140057
0.729814
0.153968
0.720788
0.167216
0.710211
0.180425
0.698181
0.193671
0.684705
0.207194
0.669792
0.221414
0.653382
0.237183
0.635355
0.256058
0.615474
0.280747
0.593313
0.318169
0.568049
0.375992
0.540633
0.491577
0.508767
0.659639
-0.164
-0.507635
-0.120112
-0.525192
-0.064226
-0.65688
-0.00943796
-0.657105
0.0460242
-0.674096
0.10273
-0.693596
0.156438
-0.666786
0.20285
-0.594562
0.242374
-0.522557
0.275921
-0.458016
0.303122
-0.388461
0.325126
-0.33023
0.3435
-0.28717
0.358941
-0.251382
0.372324
-0.224656
0.384441
-0.205417
0.39569
-0.19072
0.406481
-0.180062
0.417081
-0.172489
0.427666
-0.166814
0.438339
-0.162375
0.449126
-0.158227
0.460032
-0.153208
0.470804
-0.143661
0.480979
-0.128749
0.490307
-0.112557
0.49866
-0.0961254
0.505974
-0.0797256
0.51215
-0.06329
0.517151
-0.0470009
0.520915
-0.0308931
0.523418
-0.0150055
0.524589
0.000991349
0.524359
0.0176537
0.522598
0.0363649
0.518996
0.0607638
0.513
0.0964994
0.504785
0.163964
0.493887
0.279747
-0.210112
0.256264
-0.554579
0.302854
-0.56196
0.35631
-0.630255
0.402268
-0.551419
0.446958
-0.537421
0.490537
-0.518796
0.529073
-0.463397
0.564367
-0.423968
0.59633
-0.382736
0.624543
-0.337917
0.649804
-0.300893
0.672454
-0.264815
0.692504
-0.230469
0.710424
-0.198804
0.726322
-0.167161
0.740157
-0.136191
0.752102
-0.104453
0.76206
-0.0724259
0.770043
-0.0390911
0.775926
-0.00565385
0.779738
0.0285431
0.781575
0.060759
0.781427
0.0904081
0.779549
0.113893
0.775959
0.130449
0.770585
0.145432
0.763477
0.161075
0.754673
0.17602
0.744251
0.190847
0.732212
0.20571
0.718626
0.22078
0.703481
0.236559
0.686732
0.253933
0.668274
0.274515
0.64781
0.301212
0.625067
0.340912
0.599201
0.401857
0.571308
0.51947
0.539983
0.690964
-0.164583
-0.553164
-0.118313
-0.571461
-0.059345
-0.715848
-0.00164992
-0.7148
0.0568057
-0.732552
0.11652
-0.75331
0.172967
-0.723233
0.221806
-0.643401
0.263236
-0.563986
0.298373
-0.493153
0.326733
-0.416822
0.349563
-0.35306
0.368493
-0.306101
0.38428
-0.267169
0.397851
-0.238226
0.410012
-0.217578
0.421253
-0.201961
0.431954
-0.190763
0.442454
-0.182989
0.45295
-0.177309
0.463566
-0.17299
0.474356
-0.169017
0.485347
-0.164198
0.496275
-0.15459
0.506659
-0.139133
0.516213
-0.12211
0.524823
-0.104735
0.532402
-0.0873054
0.538878
-0.0697654
0.544147
-0.0522702
0.548184
-0.0349301
0.5509
-0.0177218
0.552276
-0.000383912
0.552207
0.0177222
0.550511
0.0380605
0.547003
0.0642722
0.541068
0.102434
0.533132
0.1719
0.523007
0.289872
-0.213269
0.261951
-0.60326
0.311011
-0.61102
0.367536
-0.68678
0.415805
-0.599688
0.463019
-0.584636
0.508865
-0.564642
0.549512
-0.504043
0.586537
-0.460994
0.620084
-0.416283
0.649631
-0.367463
0.676172
-0.327435
0.699753
-0.288396
0.720745
-0.251461
0.739421
-0.21748
0.75595
-0.18369
0.770406
-0.150647
0.78287
-0.116917
0.793312
-0.082868
0.801728
-0.0475069
0.808097
-0.0120234
0.812404
0.0242359
0.814616
0.0585479
0.814917
0.0901061
0.813494
0.115316
0.810323
0.133621
0.80537
0.150384
0.798581
0.167864
0.790001
0.184599
0.779694
0.201154
0.767714
0.21769
0.754053
0.234442
0.738711
0.251901
0.721655
0.270989
0.70277
0.2934
0.681812
0.322171
0.658477
0.364247
0.632052
0.428282
0.60373
0.547792
0.572905
0.721789
-0.165272
-0.601161
-0.116499
-0.620234
-0.0543147
-0.778033
0.00644642
-0.775561
0.0680409
-0.794146
0.130943
-0.816212
0.190394
-0.782684
0.241706
-0.694714
0.285207
-0.607486
0.321997
-0.529943
0.351623
-0.446448
0.375363
-0.3768
0.394922
-0.325659
0.411129
-0.283377
0.424932
-0.252029
0.437201
-0.229847
0.448435
-0.213195
0.459084
-0.201412
0.469489
-0.193394
0.479912
-0.187732
0.490443
-0.183522
0.501229
-0.179803
0.512268
-0.175236
0.523327
-0.165649
0.533892
-0.149698
0.543642
-0.131859
0.552508
-0.113602
0.560347
-0.0951441
0.567071
-0.0764893
0.572638
-0.0578377
0.576922
-0.0392138
0.579881
-0.0206813
0.581432
-0.00193449
0.581516
0.0176385
0.579959
0.0396171
0.57652
0.0677113
0.570727
0.108227
0.563046
0.179581
0.55371
0.299208
-0.216719
0.268018
-0.654559
0.319751
-0.662753
0.379328
-0.746357
0.430321
-0.650681
0.479979
-0.634294
0.528356
-0.613019
0.571019
-0.546707
0.61
-0.499974
0.645245
-0.451529
0.676278
-0.398495
0.703996
-0.355153
0.72873
-0.31313
0.750605
-0.273335
0.770076
-0.236952
0.787249
-0.200863
0.802347
-0.165744
0.815321
-0.129891
0.826251
-0.0937976
0.835174
-0.0564298
0.841954
-0.0188039
0.846649
0.0195411
0.84929
0.0559068
0.849995
0.0894014
0.848972
0.116339
0.846217
0.136376
0.841618
0.154984
0.835149
0.174334
0.826861
0.192887
0.816728
0.211287
0.804787
0.22963
0.79107
0.24816
0.775583
0.267388
0.758257
0.288314
0.738979
0.312678
0.717537
0.343612
0.693652
0.388132
0.666704
0.45523
0.637973
0.576523
0.607601
0.752162
-0.166076
-0.651804
-0.114675