/*--------------------------------*- C++ -*----------------------------------*\
  =========                 |
  \\      /  F ield         | OpenFOAM: The Open Source CFD Toolbox
   \\    /   O peration     | Website:  https://openfoam.org
    \\  /    A nd           | Version:  12
     \\/     M anipulation  |
\*---------------------------------------------------------------------------*/
FoamFile
{
    format      ascii;
    class       volVectorField;
    location    "300";
    object      U;
}
// * * * * * * * * * * * * * * * * * * * * * * * * * * * * * * * * * * * * * //

dimensions      [0 1 -1 0 0 0 0];

internalField   nonuniform List<vector> 
10720
(
(0.350537 28.5655 1.69939e-17)
(2.17527 30.8403 -1.57624e-17)
(4.44471 33.0254 0)
(7.03957 34.7002 -4.12522e-16)
(9.89613 35.9603 4.62127e-16)
(12.9473 36.7631 3.33321e-16)
(16.0354 37.0052 4.56255e-16)
(19.0673 36.7289 0)
(21.9647 35.9978 0)
(24.65 34.8515 0)
(27.0949 33.3717 1.17532e-16)
(29.2877 31.6497 0)
(31.1988 29.7054 2.3738e-15)
(32.8238 27.5764 0)
(34.1518 25.2931 0)
(35.1953 22.9022 0)
(35.9422 20.4236 -4.00169e-15)
(36.3964 17.9093 -5.98227e-15)
(36.539 15.3834 5.3224e-15)
(36.381 12.9058 0)
(35.9047 10.513 4.37612e-15)
(35.1468 8.27768 -8.5742e-15)
(34.1544 6.2516 4.27005e-15)
(33.0373 4.49796 -1.28062e-16)
(31.9942 3.06453 0)
(31.1103 1.8987 1.69357e-15)
(30.2893 0.912223 2.62058e-17)
(29.4326 0.0635936 -7.42034e-16)
(28.5029 -0.669983 -2.70897e-15)
(27.4968 -1.30325 -9.83477e-15)
(26.4176 -1.84283 4.38352e-15)
(25.2686 -2.29208 7.99265e-15)
(24.048 -2.65204 6.89517e-15)
(22.7472 -2.92326 2.3569e-14)
(21.3195 -3.10151 -9.53653e-15)
(19.7276 -3.18493 -6.74646e-17)
(17.6705 -3.12154 2.20815e-17)
(15.2482 -2.89783 3.96561e-15)
(9.82893 -2.32941 1.36713e-14)
(-1.10544 26.126 1.11332e-18)
(-2.29578 23.3663 -8.50907e-18)
(-3.15182 20.2512 4.56767e-17)
(-3.53754 16.6268 -1.36747e-16)
(-3.2978 12.8734 -4.70049e-16)
(-2.38633 9.12289 8.40722e-16)
(-0.863417 5.65218 4.19022e-15)
(1.03284 2.75595 2.56773e-15)
(3.01517 0.383423 0)
(5.2189 -1.69081 0)
(7.50105 -3.25781 2.08499e-15)
(9.62454 -4.27934 7.61285e-16)
(11.5111 -4.87568 -1.26752e-15)
(13.1652 -5.17393 1.04389e-15)
(14.6111 -5.27583 1.72248e-15)
(15.8812 -5.24724 1.11024e-15)
(17.0058 -5.13741 1.41718e-15)
(18.0171 -4.97635 9.40864e-16)
(18.9459 -4.78471 0)
(19.8148 -4.56607 0)
(20.6419 -4.32227 -1.29959e-15)
(21.4384 -4.04325 -5.98912e-17)
(22.2066 -3.71381 8.81823e-16)
(22.9162 -3.30321 -6.14648e-16)
(23.5014 -2.80617 2.36274e-17)
(23.9437 -2.26003 0)
(24.2686 -1.69104 1.04585e-16)
(24.4924 -1.11514 0)
(24.6212 -0.543599 0)
(24.654 0.012134 1.98688e-17)
(24.5682 0.543861 0)
(24.3773 1.04468 5.3118e-18)
(24.1002 1.5086 -4.89821e-17)
(23.752 1.93016 -5.88153e-16)
(23.3273 2.30551 5.44862e-16)
(22.8162 2.63529 -2.75971e-18)
(22.0931 2.91177 0)
(21.0894 3.0965 5.17334e-15)
(18.2557 3.23119 9.2401e-15)
(7.07932 24.8174 -5.49259e-18)
(9.01081 26.5559 -2.74925e-18)
(11.3591 28.1265 0)
(14.0552 29.4253 0)
(16.9498 30.3922 -1.35654e-16)
(20.047 30.9667 -3.19483e-16)
(23.2286 31.1048 0)
(26.3592 30.8296 0)
(29.3829 30.1527 6.74159e-16)
(32.2107 29.1255 0)
(34.7886 27.8091 2.47299e-15)
(37.0865 26.2515 0)
(39.099 24.5351 8.82864e-16)
(40.8332 22.7128 -8.69798e-16)
(42.2944 20.8043 1.74939e-15)
(43.4512 18.8383 -3.49781e-15)
(44.303 16.8272 3.743e-15)
(44.8396 14.7962 3.42515e-15)
(45.0614 12.7539 3.35427e-15)
(44.9511 10.7315 2.03832e-16)
(44.5096 8.75509 -3.50223e-15)
(43.7286 6.87971 3.32562e-15)
(42.6342 5.14697 -1.87626e-16)
(41.2623 3.61464 0)
(39.7224 2.33436 0)
(38.1624 1.25243 0)
(36.6401 0.291257 1.41309e-16)
(35.1466 -0.559137 -3.15686e-17)
(33.6832 -1.30133 1.98562e-15)
(32.2446 -1.94189 3.76482e-17)
(30.8151 -2.48356 -2.98231e-17)
(29.3769 -2.92888 -8.71755e-17)
(27.9114 -3.2802 4.74689e-15)
(26.4033 -3.53992 -7.96719e-15)
(24.8126 -3.70799 -4.3299e-17)
(23.1205 -3.78548 -9.22676e-15)
(21.0687 -3.732 0)
(18.8769 -3.54715 -1.14737e-15)
(13.5883 -2.78718 7.24583e-15)
(5.4419 22.9625 6.97364e-18)
(4.01592 20.8969 -3.91775e-17)
(2.75525 18.4756 -4.93775e-16)
(1.78778 15.7217 6.07673e-16)
(1.2897 12.7303 0)
(1.34745 9.63377 -1.31271e-15)
(1.99033 6.62686 -9.40363e-16)
(3.14563 3.93529 -7.34461e-15)
(4.63531 1.59005 2.37018e-15)
(6.37258 -0.36485 -1.79156e-15)
(8.24707 -1.80259 2.25138e-15)
(10.0962 -2.76372 -6.40596e-16)
(11.8308 -3.36612 0)
(13.4183 -3.70961 -4.27784e-16)
(14.8502 -3.87705 5.24837e-17)
(16.137 -3.92192 -9.54207e-16)
(17.2943 -3.88942 0)
(18.3448 -3.80531 0)
(19.3123 -3.68793 -9.87467e-17)
(20.2193 -3.5352 9.48503e-17)
(21.0812 -3.34553 -1.12246e-15)
(21.9101 -3.10258 -1.21267e-16)
(22.7079 -2.78659 5.32718e-17)
(23.4515 -2.361 5.93695e-16)
(24.0869 -1.83866 -4.20962e-16)
(24.5895 -1.28635 -3.10232e-16)
(24.9752 -0.732869 0)
(25.2567 -0.189342 0)
(25.4375 0.337822 0)
(25.5227 0.839781 8.5505e-18)
(25.5418 1.30892 0)
(25.4909 1.74224 0)
(25.3595 2.13863 1.2213e-16)
(25.1412 2.49713 2.18182e-16)
(24.8276 2.81947 -4.4172e-16)
(24.4275 3.11101 8.12917e-16)
(23.8398 3.36969 -2.49931e-15)
(23.2498 3.58921 -3.96294e-15)
(21.1558 3.62545 -6.222e-15)
(8.3606 22.8455 -9.76669e-19)
(9.76554 24.369 1.98768e-17)
(11.468 25.8452 -1.62464e-17)
(13.4206 27.1995 -4.37524e-17)
(15.5679 28.3135 -1.78189e-16)
(17.9103 29.1624 6.15559e-16)
(20.3729 29.7065 -4.30388e-16)
(22.8792 29.909 -5.02348e-16)
(25.3743 29.7688 4.39782e-18)
(27.8001 29.2979 -6.51846e-16)
(30.1046 28.5179 6.04189e-16)
(32.2564 27.4583 -1.5683e-15)
(34.2282 26.1508 -7.48365e-16)
(36.0061 24.6239 0)
(37.5735 22.9133 -1.79022e-15)
(38.945 21.044 3.59621e-15)
(40.1253 19.0365 0)
(41.0947 16.9346 -6.8082e-15)
(41.8436 14.768 -3.40358e-15)
(42.3441 12.589 3.9681e-16)
(42.5838 10.4354 -3.93228e-16)
(42.5411 8.37537 -1.7825e-16)
(42.2177 6.45795 -2.53311e-15)
(41.6213 4.74582 1.27271e-15)
(40.8034 3.28405 0)
(39.8414 2.01657 1.11178e-15)
(38.7567 0.874461 -1.3132e-16)
(37.5436 -0.142439 0)
(36.22 -1.031 1.74585e-15)
(34.8133 -1.79558 3.24074e-15)
(33.3441 -2.43906 -5.71351e-15)
(31.8262 -2.96544 -4.91805e-15)
(30.2622 -3.37985 -1.05668e-16)
(28.648 -3.68703 -6.98957e-15)
(26.9491 -3.88933 -5.606e-15)
(25.1473 -3.98638 8.04654e-15)
(23.0009 -3.94517 0)
(20.7331 -3.72199 -8.98411e-16)
(15.8587 -3.03311 -1.10364e-14)
(7.20578 21.2369 -1.24661e-17)
(6.18812 19.4738 -5.01099e-17)
(5.32732 17.3939 1.94621e-16)
(4.62744 15.0591 0)
(4.23763 12.5486 3.80371e-16)
(4.20773 9.92823 0)
(4.56792 7.32457 2.70031e-15)
(5.30445 4.90337 1.63501e-15)
(6.36808 2.74635 1.54194e-15)
(7.70077 0.908317 0)
(9.18697 -0.556008 -2.26287e-15)
(10.7095 -1.65964 -4.85016e-16)
(12.193 -2.45887 2.19434e-15)
(13.5963 -3.01197 0)
(14.8999 -3.37157 -1.02174e-15)
(16.1011 -3.58245 -3.08499e-16)
(17.2053 -3.68378 1.27309e-15)
(18.2254 -3.70285 6.59823e-16)
(19.1777 -3.6591 1.81539e-16)
(20.0791 -3.55871 -9.84158e-17)
(20.9419 -3.40477 1.02305e-15)
(21.7747 -3.18931 0)
(22.5777 -2.89922 0)
(23.3315 -2.5128 2.32891e-17)
(23.9926 -2.04332 0)
(24.5374 -1.53906 6.42058e-16)
(24.9763 -1.01949 -8.44755e-18)
(25.3205 -0.492455 -4.05181e-17)
(25.5737 0.0342458 0)
(25.7375 0.55051 -2.53177e-17)
(25.8171 1.04888 3.8614e-17)
(25.8178 1.52292 0)
(25.7419 1.96665 -8.11329e-17)
(25.5895 2.37484 0)
(25.3485 2.74562 0)
(25.0181 3.07968 3.87669e-17)
(24.4865 3.37607 -5.22309e-17)
(23.8744 3.59336 3.96059e-15)
(21.9998 3.6301 1.20389e-14)
(10.9046 20.9335 -9.98554e-18)
(12.2015 22.2334 -6.29106e-18)
(13.7518 23.4961 -7.11506e-18)
(15.5304 24.6473 -1.18906e-17)
(17.4876 25.5963 0)
(19.6296 26.3247 0)
(21.899 26.7894 -7.18302e-16)
(24.2333 26.9563 8.58507e-16)
(26.5852 26.8188 0)
(28.8991 26.3801 -1.03528e-15)
(31.1229 25.6554 -1.30951e-15)
(33.2186 24.6681 -1.23649e-15)
(35.1519 23.4489 1.47222e-15)
(36.8959 22.0311 1.38766e-15)
(38.4317 20.4481 0)
(39.744 18.7343 2.1999e-15)
(40.8047 16.9318 7.61527e-16)
(41.6047 15.0731 6.13813e-15)
(42.1414 13.1842 3.71779e-16)
(42.4204 11.2938 -3.68661e-16)
(42.4495 9.43313 3.11559e-15)
(42.2437 7.64676 -5.10184e-16)
(41.8312 5.97536 2.7774e-15)
(41.2478 4.46344 1.15925e-15)
(40.5495 3.14274 -6.8618e-17)
(39.7931 1.97597 -1.00582e-15)
(38.9817 0.908522 7.4248e-18)
(38.0823 -0.0639922 -7.44874e-18)
(37.0758 -0.937941 -1.67258e-15)
(35.956 -1.71375 -4.42786e-17)
(34.7205 -2.38762 2.79272e-15)
(33.3724 -2.95523 -4.75206e-15)
(31.9163 -3.41394 -3.83762e-15)
(30.3574 -3.76237 -1.89306e-18)
(28.674 -3.99885 5.09938e-15)
(26.8569 -4.11776 0)
(24.6868 -4.0897 4.19182e-15)
(22.3499 -3.82443 7.78158e-16)
(17.7255 -3.17704 4.60294e-15)
(9.80986 19.5709 -2.52423e-17)
(8.82377 18.0898 6.49108e-17)
(7.95274 16.3409 2.92562e-16)
(7.21673 14.3616 0)
(6.74328 12.2243 -3.39595e-16)
(6.57108 9.97201 0)
(6.72625 7.7028 -2.17189e-15)
(7.19706 5.5494 -1.01398e-16)
(7.95371 3.58204 1.12566e-15)
(8.95841 1.85275 1.00282e-15)
(10.1272 0.414622 3.61132e-17)
(11.3774 -0.722089 1.69197e-15)
(12.6467 -1.58597 -1.10023e-15)
(13.8907 -2.21697 3.48683e-16)
(15.0816 -2.65499 1.18993e-15)
(16.2062 -2.9396 1.31e-15)
(17.2608 -3.10533 -1.17421e-15)
(18.2488 -3.17959 5.32958e-18)
(19.1797 -3.18241 0)
(20.0646 -3.12348 1.22124e-15)
(20.9129 -3.00636 5.98222e-17)
(21.7306 -2.82582 -9.18403e-16)
(22.5172 -2.57112 0)
(23.2562 -2.2256 2.20592e-17)
(23.9113 -1.79651 0)
(24.4596 -1.3223 -3.01673e-16)
(24.9067 -0.8258 0)
(25.2626 -0.318823 3.80208e-17)
(25.5314 0.188503 -1.20572e-18)
(25.7154 0.685688 6.81134e-19)
(25.8189 1.16372 -3.49913e-17)
(25.8471 1.61506 -1.14641e-18)
(25.8033 2.03559 0)
(25.6893 2.42278 1.87015e-16)
(25.4955 2.77668 3.45761e-18)
(25.221 3.09727 -8.20037e-16)
(24.7596 3.38509 5.0765e-15)
(24.2015 3.57149 1.21112e-17)
(22.5058 3.59742 0)
(12.4704 19.4711 -1.43186e-17)
(13.5717 20.6221 -3.39127e-19)
(14.8949 21.762 -1.1895e-17)
(16.4052 22.8273 1.67353e-16)
(18.0599 23.7349 -5.64847e-17)
(19.881 24.4789 -1.96707e-16)
(21.8208 25.0194 3.09939e-16)
(23.8313 25.3206 0)
(25.882 25.3719 1.20119e-15)
(27.9264 25.1662 5.57783e-16)
(29.9232 24.7045 0)
(31.8389 23.997 1.1884e-15)
(33.6399 23.0607 -6.25488e-16)
(35.298 21.9148 1.7392e-15)
(36.7914 20.582 0)
(38.0991 19.0858 -2.8858e-15)
(39.2091 17.4435 2.74058e-15)
(40.1115 15.6765 -1.68108e-16)
(40.7913 13.8171 0)
(41.233 11.9097 2.9636e-15)
(41.4269 10.0001 -2.99092e-15)
(41.3722 8.14626 -1.52572e-16)
(41.0867 6.40141 -2.32341e-15)
(40.606 4.81735 -2.13265e-15)
(39.9901 3.42989 0)
(39.3062 2.21177 0)
(38.5794 1.11116 -2.30405e-16)
(37.7984 0.114711 -2.57974e-17)
(36.9541 -0.779322 1.59076e-15)
(36.0399 -1.57557 -4.2225e-17)
(35.0427 -2.27444 4.21591e-17)
(33.9458 -2.87352 4.44919e-15)
(32.7308 -3.36959 0)
(31.3824 -3.75833 1.23975e-14)
(29.868 -4.03401 -4.2693e-17)
(28.1749 -4.18448 0)
(26.1008 -4.18059 -3.21958e-17)
(23.8067 -3.89454 0)
(19.4025 -3.26599 -3.91227e-15)
(11.5351 18.2708 2.38333e-17)
(10.6902 16.9789 -1.55693e-16)
(9.92312 15.4524 1.72133e-16)
(9.24681 13.727 2.76928e-16)
(8.77418 11.8693 -1.09232e-15)
(8.53448 9.90228 -1.41631e-15)
(8.55893 7.90081 1.74172e-15)
(8.84648 5.97391 -1.92993e-15)
(9.38262 4.18637 -8.70444e-16)
(10.1425 2.5845 -7.74651e-16)
(11.0642 1.21138 1.49403e-15)
(12.0864 0.0829803 -1.43647e-15)
(13.1602 -0.815719 -6.30067e-16)
(14.2454 -1.51022 6.12952e-16)
(15.3127 -2.02614 -1.33343e-15)
(16.3449 -2.3934 2.44018e-16)
(17.3327 -2.63862 0)
(18.2734 -2.78453 -9.2963e-16)
(19.1706 -2.84855 3.28979e-16)
(20.0303 -2.84115 -1.27766e-15)
(20.8586 -2.76659 0)
(21.6589 -2.62228 7.95884e-16)
(22.4292 -2.40068 6.26296e-16)
(23.1546 -2.09092 -4.7662e-16)
(23.8044 -1.69889 0)
(24.3559 -1.2566 -3.18636e-16)
(24.8105 -0.787749 0)
(25.1759 -0.304364 0)
(25.4556 0.183862 0)
(25.6518 0.666616 4.07061e-17)
(25.7682 1.13481 0)
(25.8099 1.58165 0)
(25.7801 2.00195 -1.65593e-16)
(25.6815 2.39141 -1.77518e-16)
(25.5059 2.74829 0)
(25.2541 3.07022 -8.5108e-16)
(24.8287 3.35715 6.27198e-17)
(24.3178 3.52617 0)
(22.8128 3.53935 -5.22784e-15)
(13.9559 18.1907 1.70564e-17)
(14.9531 19.2104 -1.21411e-17)
(16.1469 20.2268 0)
(17.5042 21.1806 8.06111e-18)
(18.9841 21.9986 -1.35681e-16)
(20.6169 22.6808 1.85489e-16)
(22.3614 23.1891 4.55012e-17)
(24.1784 23.4916 -7.72439e-16)
(26.0469 23.5754 -9.34208e-17)
(27.9282 23.4297 1.1457e-15)
(29.7866 23.0506 -4.08372e-16)
(31.5922 22.4416 9.18436e-16)
(33.3115 21.613 4.5928e-16)
(34.9154 20.5786 3.32849e-16)
(36.3783 19.3571 0)
(37.6766 17.9701 -6.26172e-16)
(38.7891 16.4435 -1.3807e-15)
(39.6913 14.8148 -5.10526e-15)
(40.3662 13.1177 1.50515e-15)
(40.8046 11.3834 -1.91039e-15)
(41.0022 9.64651 -2.99248e-16)
(40.963 7.94841 0)
(40.7032 6.33235 2.08041e-15)
(40.2542 4.84102 1.32519e-16)
(39.6669 3.50707 -5.91581e-17)
(38.9991 2.31756 -8.24183e-16)
(38.2794 1.23477 1.90039e-16)
(37.5075 0.24808 3.97621e-16)
(36.684 -0.6414 -1.48794e-15)
(35.814 -1.43661 -7.9477e-17)
(34.8967 -2.13914 2.53356e-15)
(33.9238 -2.74826 4.11526e-15)
(32.8783 -3.26228 0)
(31.7361 -3.67728 -1.86479e-17)
(30.448 -3.98612 -4.64251e-15)
(28.9813 -4.17115 0)
(27.1258 -4.2008 -7.42172e-15)
(25.0211 -3.91587 0)
(20.9125 -3.31824 3.54787e-15)
(13.1005 17.1314 -2.40544e-17)
(12.3239 15.9985 6.36004e-17)
(11.6049 14.6568 0)
(10.957 13.1368 0)
(10.4801 11.5012 4.69642e-16)
(10.1942 9.76335 2.34912e-15)
(10.1287 7.98069 0)
(10.2882 6.24658 -1.41218e-15)
(10.6648 4.62234 -1.35668e-15)
(11.2392 3.14521 1.36496e-15)
(11.9664 1.84962 -5.51183e-17)
(12.7999 0.754332 5.95972e-16)
(13.7031 -0.147666 2.93199e-17)
(14.6423 -0.87191 1.57733e-15)
(15.5903 -1.43394 1.4163e-15)
(16.5287 -1.85514 -1.32988e-15)
(17.4456 -2.15566 1.87435e-16)
(18.3339 -2.35402 -3.48552e-16)
(19.1922 -2.46526 1.61353e-16)
(20.0223 -2.4996 9.38715e-16)
(20.8267 -2.46195 1.21533e-16)
(21.6064 -2.3517 -8.83247e-17)
(22.3579 -2.16349 -5.33903e-16)
(23.0676 -1.89003 0)
(23.7089 -1.53621 2.23413e-17)
(24.26 -1.12796 5.92852e-16)
(24.7187 -0.688 -3.16626e-18)
(25.0905 -0.228777 3.14017e-18)
(25.3781 0.239515 0)
(25.5832 0.705943 -3.823e-17)
(25.709 1.1608 0)
(25.7602 1.59625 0)
(25.7399 2.00637 1.52413e-16)
(25.6504 2.38666 2.21348e-16)
(25.4841 2.73515 0)
(25.242 3.04788 7.92215e-16)
(24.8329 3.32435 -4.70889e-15)
(24.3417 3.46984 2.17892e-17)
(22.9912 3.4601 4.78181e-15)
(15.1633 17.1024 -3.07146e-19)
(16.0611 18.0174 -1.19039e-17)
(17.1355 18.9367 -3.25273e-18)
(18.3519 19.8052 3.17076e-18)
(19.6697 20.5573 9.13493e-17)
(21.125 21.1987 0)
(22.6804 21.6958 -3.49971e-16)
(24.3029 22.0193 9.37493e-18)
(25.9799 22.1575 -3.45338e-16)
(27.6787 22.0984 -6.97084e-16)
(29.3706 21.8344 0)
(31.0315 21.3643 -1.67115e-15)
(32.6308 20.6918 -1.4304e-15)
(34.1413 19.8245 -3.47141e-15)
(35.5378 18.775 0)
(36.7952 17.5594 -2.13057e-15)
(37.8905 16.1983 -2.23037e-15)
(38.805 14.711 2.40934e-15)
(39.5222 13.122 -2.36837e-15)
(40.0264 11.4654 2.19245e-15)
(40.3072 9.78076 2.69015e-16)
(40.3611 8.11596 -2.31589e-15)
(40.1974 6.51918 0)
(39.8407 5.03528 -1.98426e-15)
(39.3327 3.69662 1.16353e-16)
(38.7234 2.4967 8.63205e-16)
(38.0425 1.40501 0)
(37.2954 0.410469 -2.95573e-17)
(36.4862 -0.486114 6.33459e-17)
(35.6241 -1.28728 2.43477e-15)
(34.716 -1.99499 -2.2569e-15)
(33.7648 -2.6094 -3.92021e-15)
(32.767 -3.13021 3.32376e-15)
(31.7133 -3.55583 -6.13856e-17)
(30.5658 -3.88131 4.4513e-15)
(29.2967 -4.08917 6.22263e-15)
(27.695 -4.14853 3.606e-15)
(25.8918 -3.87661 -1.14651e-17)
(22.2058 -3.32796 -3.56138e-18)
(14.3875 16.1541 9.77116e-18)
(13.6802 15.1461 1.25201e-16)
(13.013 13.9504 1.72566e-16)
(12.3988 12.5942 -3.22735e-16)
(11.9281 11.1376 -1.29067e-15)
(11.6159 9.58611 4.25079e-16)
(11.4889 7.98429 1.11007e-15)
(11.5572 6.41493 2.9006e-15)
(11.8163 4.93644 1.17279e-15)
(12.2498 3.57684 -1.10019e-15)
(12.8241 2.36439 -3.81345e-17)
(13.5038 1.3176 -5.34176e-16)
(14.261 0.432719 0)
(15.0689 -0.299746 -2.59741e-17)
(15.9037 -0.88868 -8.72833e-16)
(16.7486 -1.34891 3.81748e-16)
(17.5908 -1.69476 -3.74286e-16)
(18.4207 -1.93989 0)
(19.2337 -2.09607 5.68794e-16)
(20.0284 -2.17209 -9.9371e-16)
(20.8042 -2.17238 0)
(21.5597 -2.09724 7.29967e-16)
(22.2902 -1.94312 0)
(22.9829 -1.70546 -2.7871e-17)
(23.6141 -1.38868 2.75808e-17)
(24.163 -1.01404 -2.8975e-16)
(24.6245 -0.60278 -5.23579e-18)
(25.0019 -0.167928 -3.19867e-18)
(25.2969 0.279863 8.53576e-19)
(25.5107 0.729408 -4.88486e-17)
(25.6458 1.17057 -7.09187e-17)
(25.7063 1.59523 1.10033e-16)
(25.6949 1.99704 3.10056e-18)
(25.6138 2.37072 2.5888e-17)
(25.4554 2.7134 0)
(25.2204 3.01898 1.5082e-17)
(24.8232 3.28584 2.17715e-15)
(24.3428 3.40944 -1.04575e-17)
(23.1094 3.37329 4.37429e-15)
(16.2202 16.145 3.66454e-18)
(17.0431 16.9703 1.77707e-17)
(18.0262 17.8034 0)
(19.1352 18.5923 -2.54119e-17)
(20.3295 19.2778 3.88352e-17)
(21.6481 19.8696 0)
(23.0569 20.3366 -1.30194e-16)
(24.5271 20.6529 1.00608e-15)
(26.0518 20.8079 -1.3832e-15)
(27.6038 20.7893 4.41353e-16)
(29.1594 20.588 5.93898e-16)
(30.6992 20.1997 2.13e-15)
(32.1966 19.624 1.5196e-15)
(33.6264 18.864 1.8051e-15)
(34.964 17.9272 4.75233e-16)
(36.1842 16.8259 1.5669e-15)
(37.2629 15.5761 2.14274e-15)
(38.178 14.1997 2.06547e-15)
(38.9072 12.7266 -1.51696e-15)
(39.4344 11.1877 -4.63685e-15)
(39.7492 9.61743 0)
(39.8492 8.05509 8.49837e-17)
(39.7422 6.54264 1.80295e-15)
(39.4495 5.11995 1.88872e-15)
(39.0057 3.81723 -1.07238e-16)
(38.4522 2.63526 -7.79257e-16)
(37.817 1.55319 5.58411e-18)
(37.1073 0.562596 -3.95614e-16)
(36.3274 -0.33439 4.16275e-17)
(35.4855 -1.1383 -4.56873e-15)
(34.589 -1.84993 -7.73298e-18)
(33.643 -2.4686 -6.16515e-17)
(32.6494 -2.99349 -3.19685e-15)
(31.6092 -3.42298 -6.10826e-17)
(30.5008 -3.75329 -4.15751e-15)
(29.3205 -3.96825 -1.18982e-14)
(27.8889 -4.04252 3.41581e-15)
(26.3809 -3.78041 6.59402e-16)
(23.2156 -3.28818 2.84819e-15)
(15.5042 15.2913 -4.51847e-17)
(14.8497 14.3875 -1.70839e-16)
(14.2233 13.3134 -1.25317e-16)
(13.6378 12.0932 -3.2016e-16)
(13.1755 10.7845 7.21718e-16)
(12.8478 9.38753 -5.23057e-17)
(12.6788 7.93757 -2.85015e-15)
(12.6812 6.51016 -1.00037e-15)
(12.8523 5.16042 1.37161e-17)
(13.178 3.90876 0)
(13.6319 2.77896 -9.42684e-16)
(14.1864 1.78812 8.82027e-16)
(14.8201 0.933513 -8.5187e-16)
(15.5121 0.208892 -4.37151e-16)
(16.2427 -0.390327 3.6652e-16)
(16.9977 -0.87426 3.64114e-16)
(17.7647 -1.25224 1.31112e-15)
(18.5334 -1.53362 -3.10628e-16)
(19.2974 -1.727 -5.31365e-16)
(20.0526 -1.83933 0)
(20.7962 -1.87429 -8.10969e-16)
(21.5246 -1.8325 -6.05908e-16)
(22.2321 -1.71151 -1.19545e-17)
(22.906 -1.50872 -6.56122e-17)
(23.5252 -1.22822 -2.17489e-17)
(24.0695 -0.887226 3.33202e-16)
(24.5319 -0.505341 -6.54513e-18)
(24.9134 -0.0958679 5.28571e-17)
(25.2146 0.330283 9.56781e-18)
(25.4361 0.761818 4.47717e-17)
(25.5799 1.18826 -1.02012e-17)
(25.6493 1.60098 -2.37985e-16)
(25.6467 1.99304 -2.22008e-16)
(25.5738 2.35847 -2.2004e-16)
(25.4233 2.69364 -9.42131e-18)
(25.1956 2.99061 5.24174e-18)
(24.8101 3.24637 -2.1841e-15)
(24.3415 3.34918 -3.03129e-15)
(23.2058 3.28719 -4.02136e-15)
(17.134 15.2982 -1.11912e-17)
(17.8925 16.0472 -6.22787e-18)
(18.7976 16.8061 -7.54825e-18)
(19.8147 17.5264 -4.47501e-17)
(20.9037 18.1536 7.18901e-17)
(22.1045 18.7006 -1.58333e-16)
(23.3858 19.1392 4.95516e-16)
(24.7217 19.4462 0)
(26.1095 19.6133 4.22193e-16)
(27.5257 19.6285 1.06755e-17)
(28.9514 19.4823 -5.10189e-16)
(30.3715 19.1691 -1.96419e-15)
(31.763 18.686 -7.93934e-16)
(33.1036 18.0325 0)
(34.3708 17.2126 0)
(35.5402 16.2341 0)
(36.5876 15.11 0)
(37.4904 13.8578 -2.00149e-15)
(38.2284 12.4979 1.98494e-15)
(38.7832 11.058 1.94144e-15)
(39.1417 9.57146 -1.56144e-15)
(39.2979 8.07771 1.3684e-15)
(39.2557 6.61878 -1.40987e-15)
(39.0318 5.23449 -1.03144e-16)
(38.6548 3.95442 -4.69278e-17)
(38.16 2.78332 7.88992e-16)
(37.5741 1.7069 1.69766e-16)
(36.9072 0.718504 0)
(36.1646 -0.179424 0)
(35.3539 -0.986175 3.83208e-17)
(34.482 -1.70189 0)
(33.553 -2.32522 3.40453e-15)
(32.5689 -2.85457 -3.02589e-15)
(31.532 -3.28741 -4.88431e-15)
(30.4265 -3.61965 7.76246e-15)
(29.2629 -3.83383 5.6696e-15)
(27.8946 -3.9098 -3.26347e-15)
(26.5644 -3.64375 -1.28189e-15)
(23.9149 -3.19705 -2.73126e-15)
(16.4701 14.5242 0)
(15.8614 13.7077 4.775e-17)
(15.2717 12.7354 2.38937e-16)
(14.7133 11.6294 -1.03478e-15)
(14.2621 10.4451 9.12057e-16)
(13.9261 9.17826 -7.46955e-16)
(13.7286 7.85742 6.76693e-18)
(13.6828 6.55317 7.58839e-16)
(13.7874 5.31708 8.08e-16)
(14.0298 4.16377 0)
(14.3887 3.11334 3.91238e-16)
(14.8414 2.18138 -1.19646e-15)
(15.3714 1.36502 1.90112e-15)
(15.9626 0.659534 3.47165e-16)
(16.5992 0.062482 -7.07303e-16)
(17.2695 -0.432811 -6.5971e-16)
(17.9628 -0.832101 -6.07344e-16)
(18.6691 -1.14118 0)
(19.3813 -1.3656 0)
(20.0938 -1.51016 0)
(20.8019 -1.57738 7.62274e-16)
(21.5004 -1.56767 0)
(22.1827 -1.47917 -4.93434e-16)
(22.8364 -1.31048 -6.32137e-17)
(23.4417 -1.06528 -3.82873e-16)
(23.9795 -0.757684 -2.95556e-16)
(24.441 -0.405397 0)
(24.825 -0.0217413 -4.41117e-17)
(25.1315 0.382233 -1.01606e-17)
(25.3601 0.795144 1.89915e-18)
(25.512 1.20624 1.58416e-16)
(25.59 1.60644 -1.74966e-17)
(25.596 1.98835 2.15632e-16)
(25.5316 2.34528 -2.56385e-16)
(25.3891 2.67274 0)
(25.169 2.96099 -1.44462e-17)
(24.7958 3.20539 -3.34723e-17)
(24.341 3.2893 2.88216e-15)
(23.2951 3.20337 -2.41693e-17)
(17.9373 14.5393 1.37015e-17)
(18.6419 15.222 0)
(19.4815 15.9154 3.65586e-17)
(20.4216 16.5742 -1.94024e-18)
(21.4227 17.148 -4.0918e-17)
(22.5251 17.6515 1.4867e-16)
(23.699 18.0592 -2.19108e-16)
(24.9211 18.3506 -2.60015e-16)
(26.1915 18.5189 0)
(27.4898 18.5528 -4.41668e-16)
(28.8008 18.4435 -4.70731e-16)
(30.1129 18.1846 4.67228e-16)
(31.4066 17.7715 1.73542e-15)
(32.6628 17.2013 6.92e-16)
(33.8613 16.4748 -2.09224e-15)
(34.9786 15.5969 -1.50291e-15)
(35.9918 14.5767 1.18084e-15)
(36.8784 13.4281 8.69494e-16)
(37.6166 12.171 -4.34541e-16)
(38.1867 10.8316 4.32728e-16)
(38.5741 9.43987 1.09794e-15)
(38.7718 8.03096 2.04305e-16)
(38.7812 6.64289 -1.91819e-16)
(38.6155 5.31257 -1.27589e-15)
(38.2977 4.06813 0)
(37.8573 2.91754 -6.68683e-16)
(37.3186 1.85313 -3.19216e-16)
(36.6936 0.871256 -2.94462e-16)
(35.9888 -0.0246235 -1.08925e-15)
(35.2119 -0.83232 4.07833e-15)
(34.3696 -1.55092 1.67963e-15)
(33.4658 -2.17841 3.89575e-18)
(32.5015 -2.71231 3.89692e-17)
(31.4781 -3.14903 0)
(30.3796 -3.48351 -3.66809e-15)
(29.2183 -3.6959 0)
(27.8644 -3.76926 0)
(26.5868 -3.48976 6.18907e-16)
(24.3466 -3.0652 4.36244e-18)
(17.3175 13.8341 -4.64129e-17)
(16.7479 13.0923 1.60554e-16)
(16.1902 12.2074 1.06391e-17)
(15.6566 11.199 2.30185e-16)
(15.2178 10.1207 -8.3735e-16)
(14.8786 8.96497 6.29476e-16)
(14.6616 7.75533 3.62547e-17)
(14.5807 6.55901 -6.3347e-16)
(14.6345 5.42322 -6.24322e-16)
(14.8121 4.35876 -6.67512e-16)
(15.0953 3.38304 -1.33105e-15)
(15.4652 2.50999 0)
(15.9087 1.73603 -6.87102e-16)
(16.413 1.05693 -2.45574e-17)
(16.9657 0.47148 0)
(17.5579 -0.0251433 -5.82478e-16)
(18.1806 -0.43603 -2.77853e-16)
(18.825 -0.764362 -2.62283e-16)
(19.4842 -1.01318 9.08665e-16)
(20.1517 -1.18507 8.13616e-16)
(20.8217 -1.28112 -8.4887e-17)
(21.4881 -1.30126 6.33485e-16)
(22.1432 -1.24383 1.27002e-16)
(22.775 -1.10793 -6.07697e-17)
(23.3647 -0.89687 3.41744e-16)
(23.894 -0.622238 2.08992e-17)
(24.3527 -0.299703 0)
(24.7379 0.057689 0)
(25.0484 0.438815 -1.98712e-18)
(25.2832 0.83232 5.04943e-18)
(25.4427 1.22725 -1.73693e-16)
(25.529 1.61414 -1.70407e-17)
(25.5435 1.98511 2.72745e-16)
(25.4874 2.33277 2.45558e-16)
(25.3532 2.65183 1.09575e-17)
(25.1411 2.93081 3.62236e-18)
(24.7811 3.16344 4.05555e-15)
(24.3414 3.2299 -2.75229e-15)
(23.3814 3.12264 2.25558e-17)
(18.6468 13.8539 5.22992e-18)
(19.3046 14.4785 0)
(20.0874 15.1141 -2.47904e-17)
(20.961 15.7181 0)
(21.8864 16.2439 -8.91316e-17)
(22.9037 16.7073 8.63792e-17)
(23.9846 17.0851 1.67155e-16)
(25.1076 17.3592 2.45349e-16)
(26.2745 17.5241 0)
(27.4675 17.57 -2.95581e-16)
(28.6744 17.4886 4.82739e-16)
(29.8866 17.2735 -9.87912e-16)
(31.0875 16.9192 -5.51468e-16)
(32.2609 16.4215 -5.58778e-16)
(33.389 15.7792 1.33374e-15)
(34.4506 14.9941 1.43764e-15)
(35.4239 14.0727 -1.53502e-15)
(36.2866 13.0259 -1.52158e-15)
(37.0178 11.8695 0)
(37.5976 10.6255 3.97541e-16)
(38.0099 9.32087 -7.69683e-16)
(38.2455 7.9887 1.89658e-16)
(38.3033 6.66498 4.24913e-18)
(38.1924 5.38501 3.01846e-15)
(37.9313 4.17574 -1.65027e-16)
(37.5439 3.04712 1.00027e-16)
(37.0522 1.99645 2.96432e-16)
(36.4691 1.02283 3.13842e-16)
(35.802 0.130608 9.41518e-16)
(35.0589 -0.67667 -1.88585e-15)
(34.2468 -1.39706 -1.54687e-15)
(33.3702 -2.02788 -6.06982e-15)
(32.4301 -2.56588 5.23111e-15)
(31.4273 -3.00647 -7.41313e-17)
(30.3455 -3.3437 3.43079e-15)
(29.1948 -3.55507 -1.07465e-16)
(27.855 -3.6261 5.99244e-17)
(26.5693 -3.33323 3.84516e-18)
(24.6011 -2.90758 -2.10539e-15)
(18.0655 13.2088 2.25159e-17)
(17.5304 12.5313 -8.34666e-17)
(17.0013 11.722 1.65765e-16)
(16.4907 10.7982 0)
(16.065 9.81157 4.89945e-16)
(15.7262 8.75173 0)
(15.4963 7.63921 0)
(15.3896 6.53785 0)
(15.4044 5.49103 1.16287e-15)
(15.5312 4.50679 -5.77003e-16)
(15.7541 3.60052 6.51735e-16)
(16.0565 2.78473 0)
(16.4278 2.05495 0)
(16.8577 1.40678 -5.94198e-16)
(17.3364 0.839541 0)
(17.8575 0.349501 5.42705e-16)
(18.4138 -0.0651117 1.27245e-17)
(18.9982 -0.405378 0)
(19.6042 -0.672247 -6.49582e-16)
(20.2254 -0.866529 -9.64558e-16)
(20.8555 -0.987976 -6.73058e-16)
(21.4877 -1.03566 -5.88027e-16)
(22.1139 -1.00765 1.01053e-15)
(22.7222 -0.903144 0)
(23.2947 -0.725023 3.42135e-16)
(23.8134 -0.482624 3.19643e-16)
(24.2675 -0.189728 1.21309e-16)
(24.6525 0.141145 0)
(24.9659 0.498939 -9.52545e-18)
(25.206 0.872388 -5.98087e-17)
(25.3725 1.25046 1.8178e-16)
(25.4667 1.62334 -1.65562e-17)
(25.4896 1.98274 -2.4995e-16)
(25.4418 2.32057 2.69476e-16)
(25.3161 2.6307 -2.04369e-18)
(25.1124 2.90006 1.06868e-17)
(24.7663 3.12061 -3.94958e-15)
(24.343 3.17134 2.57802e-15)
(23.4652 3.04559 6.27546e-15)
(19.278 13.2301 2.1248e-18)
(19.8948 13.8035 -1.51969e-17)
(20.6279 14.3876 0)
(21.4436 14.9421 1.16653e-18)
(22.3035 15.4243 0)
(23.247 15.8502 0)
(24.2471 16.1991 1.84437e-17)
(25.2835 16.4545 2.11744e-16)
(26.3596 16.6123 4.87145e-16)
(27.4594 16.6639 1.23338e-15)
(28.5729 16.6019 6.93468e-16)
(29.6942 16.4202 7.96578e-16)
(30.8089 16.1131 0)
(31.904 15.6753 1.53819e-15)
(32.9637 15.104 -5.44048e-16)
(33.969 14.3994 0)
(34.8999 13.5651 1.28189e-15)
(35.7351 12.6092 1.45803e-15)
(36.4541 11.5449 0)
(37.037 10.3912 1.41392e-15)
(37.4665 9.17276 -1.38121e-15)
(37.7323 7.9192 0)
(37.831 6.66336 -1.63457e-16)
(37.7688 5.4381 3.16572e-17)
(37.5596 4.26898 7.78582e-17)
(37.2227 3.16721 1.16618e-15)
(36.777 2.13409 -3.98806e-18)
(36.2354 1.17164 -3.10554e-17)
(35.6061 0.285441 -2.6142e-17)
(34.897 -0.519714 5.72062e-17)
(34.1154 -1.2406 1.55895e-15)
(33.2663 -1.87372 5.49436e-15)
(32.3511 -2.4151 4.31432e-17)
(31.3709 -2.85914 -3.99445e-15)
(30.3106 -3.19909 -3.11881e-15)
(29.1781 -3.41014 -4.62335e-15)
(27.8648 -3.47939 -2.70503e-15)
(26.5679 -3.1794 2.17679e-17)
(24.7675 -2.73918 1.96342e-15)
(18.7306 12.6379 -5.28654e-17)
(18.2258 12.017 -2.0085e-16)
(17.7228 11.2737 4.01097e-16)
(17.2337 10.424 0)
(16.821 9.51734 8.01802e-16)
(16.4853 8.54141 0)
(16.2474 7.51441 -4.54503e-16)
(16.1217 6.4972 1.82836e-15)
(16.1067 5.52958 -1.41839e-15)
(16.1934 4.61798 0)
(16.3677 3.77585 1.05832e-15)
(16.6151 3.01451 1.02622e-15)
(16.9261 2.32883 0)
(17.2925 1.71418 -1.0172e-15)
(17.7066 1.16978 2.47115e-16)
(18.1636 0.692111 -2.47232e-16)
(18.6585 0.280303 2.41474e-16)
(19.1855 -0.0654672 4.25606e-16)
(19.7392 -0.344651 -1.50865e-17)
(20.3137 -0.556509 5.18523e-16)
(20.9027 -0.699513 1.54827e-16)
(21.4992 -0.771849 -1.47537e-16)
(22.095 -0.771184 -4.79657e-16)
(22.6784 -0.69643 4.13944e-16)
(23.232 -0.549764 -3.03812e-16)
(23.7385 -0.338736 -3.24037e-16)
(24.1861 -0.0752291 -1.15396e-16)
(24.5693 0.228967 -1.33486e-18)
(24.8844 0.562992 1.04308e-17)
(25.1289 0.915794 5.71979e-17)
(25.3018 1.27633 8.81637e-18)
(25.4035 1.6345 -1.6034e-17)
(25.4344 1.98163 3.04692e-16)
(25.395 2.30899 -2.76403e-16)
(25.278 2.60959 1.11733e-17)
(25.0831 2.86893 -7.95439e-16)
(24.7518 3.07723 1.91811e-15)
(24.3458 3.11377 0)
(23.5466 2.97199 -6.01669e-15)
(19.8422 12.6591 8.67569e-18)
(20.4227 13.1867 0)
(21.1119 13.7246 0)
(21.8764 14.2347 -2.25725e-17)
(22.6786 14.6772 -1.95221e-17)
(23.5572 15.0686 0)
(24.4861 15.3898 0)
(25.4463 15.6263 -7.00354e-16)
(26.4418 15.775 -3.49791e-17)
(27.4585 15.8284 -4.21521e-17)
(28.4879 15.7802 -1.60478e-15)
(29.5261 15.6245 -4.17209e-16)
(30.561 15.3558 7.93066e-16)
(31.5817 14.9686 -6.77511e-17)
(32.5751 14.459 0)
(33.5241 13.8257 0)
(34.4106 13.0702 -3.51835e-15)
(35.2146 12.1983 -6.44387e-16)
(35.9165 11.2206 6.5842e-16)
(36.4971 10.1526 -1.37188e-15)
(36.9384 9.01625 2.60373e-15)
(37.2287 7.83819 1.23234e-15)
(37.363 6.6486 -1.19187e-15)
(37.3443 5.47822 -1.34401e-15)
(37.1831 4.35117 2.12863e-16)
(36.8941 3.27913 -1.14918e-15)
(36.4934 2.26633 -1.29619e-16)
(35.9933 1.3175 2.88914e-17)
(35.402 0.439381 -2.8857e-17)
(34.7274 -0.361901 9.69647e-17)
(33.9769 -1.08193 -4.01081e-17)
(33.1556 -1.71632 -2.71468e-15)
(32.2657 -2.26021 -1.02935e-16)
(31.3086 -2.70714 1.22271e-16)
(30.2709 -3.04943 0)
(29.1598 -3.26052 4.30009e-15)
(27.8801 -3.32777 2.53382e-15)
(26.5906 -3.02718 0)
(24.9037 -2.56892 0)
(19.3252 12.1138 0)
(18.8476 11.5427 1.80222e-16)
(18.3686 10.8579 -6.02326e-16)
(17.8995 10.0738 -2.94127e-16)
(17.4999 9.23757 -7.31362e-16)
(17.1692 8.33563 0)
(16.9267 7.38465 0)
(16.7871 6.44249 -8.18215e-16)
(16.7491 5.54588 8.58248e-16)
(16.8041 4.69993 0)
(16.9393 3.91669 -4.48985e-16)
(17.1414 3.20663 -4.85257e-16)
(17.4023 2.56415 4.60223e-16)
(17.7147 1.98402 4.78362e-16)
(18.0725 1.46513 -8.89159e-16)
(18.4725 1.0041 0)
(18.9111 0.600252 -2.0224e-16)
(19.3841 0.254466 1.19881e-17)
(19.8872 -0.0317993 9.00206e-16)
(20.4154 -0.256641 -1.68037e-16)
(20.9628 -0.417381 1.61187e-16)
(21.5226 -0.511378 -1.23844e-16)
(22.0868 -0.535739 1.75521e-16)
(22.6439 -0.488893 -8.40771e-16)
(23.1772 -0.372143 -3.00198e-16)
(23.6696 -0.191385 2.63166e-16)
(24.1091 0.0432087 -1.61973e-17)
(24.4889 0.32076 0)
(24.8044 0.630763 -9.84066e-18)
(25.0523 0.962431 6.01701e-17)
(25.2308 1.30481 -9.25372e-17)
(25.3395 1.6476 1.62918e-16)
(25.3784 1.9818 -6.14515e-16)
(25.3472 2.29806 6.32868e-16)
(25.2391 2.58857 -9.5996e-18)
(25.0536 2.83755 7.53396e-16)
(24.7378 3.03341 3.4893e-17)
(24.3499 3.05742 -7.48584e-17)
(23.6255 2.90228 -5.39799e-15)
(20.3491 12.1336 -8.41636e-18)
(20.897 12.6203 0)
(21.5468 13.1164 0)
(22.2658 13.586 1.81382e-17)
(23.0168 13.9924 2.02578e-17)