#           v             n
     0.523599             0
     0.648652             0
     0.790112             0
     0.953116             0
      1.13449             0
      1.34047             0
      1.56672             0
      1.82069             0
      2.09677   8.65228e-06
      2.40376   8.56171e-05
      2.73462   0.000429216
      3.09966    0.00127665
      3.49026    0.00283659
      3.91837    0.00472917
      4.37366    0.00661418
      4.86986    0.00740322
       5.3948    0.00698779
      5.96412    0.00528962
      6.56366    0.00337047
      7.21112     0.0017472
      7.89023   0.000773477
      8.62085   0.000284666
      9.38447    9.1108e-05
      10.2033   2.47354e-05
      11.0564   5.93616e-06
      11.9684   1.22882e-06
      12.9159   2.27931e-07
      13.9262    3.6965e-08
      14.9731   1.31065e-08
