/*--------------------------------*- C++ -*----------------------------------*\
  =========                 |
  \\      /  F ield         | OpenFOAM: The Open Source CFD Toolbox
   \\    /   O peration     | Website:  https://openfoam.org
    \\  /    A nd           | Version:  12
     \\/     M anipulation  |
\*---------------------------------------------------------------------------*/
FoamFile
{
    format      ascii;
    class       volVectorField;
    location    "11.32";
    object      U;
}
// * * * * * * * * * * * * * * * * * * * * * * * * * * * * * * * * * * * * * //

dimensions      [0 1 -1 0 0 0 0];

internalField   nonuniform List<vector> 
3829
(
(-5.55368e-06 -0.000157327 0)
(-1.7245e-05 -0.000164138 0)
(-2.87681e-05 -0.000163201 0)
(-4.09127e-05 -0.000161607 0)
(-5.34184e-05 -0.000159481 0)
(-6.65134e-05 -0.000156814 0)
(-8.02266e-05 -0.000153634 0)
(-9.47258e-05 -0.000149969 0)
(-0.000110075 -0.000145845 0)
(-0.000126361 -0.000141316 0)
(-0.000143551 -0.000136431 0)
(-0.000161715 -0.00013125 0)
(-0.000181005 -0.000125844 0)
(-0.000201342 -0.000120277 0)
(-0.000222689 -0.000114624 0)
(-0.000245012 -0.000108968 0)
(-0.000268262 -0.000103381 0)
(-0.000292349 -9.79435e-05 0)
(-0.000317162 -9.27357e-05 0)
(-0.000342557 -8.78257e-05 0)
(-0.00036838 -8.32745e-05 0)
(-0.000394455 -7.91366e-05 0)
(-0.000420593 -7.54743e-05 0)
(-0.000446576 -7.23218e-05 0)
(-0.000472218 -6.97104e-05 0)
(-0.00049726 -6.76646e-05 0)
(-0.000521454 -6.61859e-05 0)
(-0.000544544 -6.52801e-05 0)
(-0.000566251 -6.49197e-05 0)
(-0.000586431 -6.51265e-05 0)
(-0.000604917 -6.58345e-05 0)
(-0.00062142 -6.70219e-05 0)
(-0.000635839 -6.86452e-05 0)
(-0.000647864 -7.06626e-05 0)
(-0.000657519 -7.30101e-05 0)
(-0.000664636 -7.55756e-05 0)
(-0.000668955 -7.83579e-05 0)
(-0.000670723 -8.12261e-05 0)
(-0.000669489 -8.41045e-05 0)
(-0.000664983 -8.70215e-05 0)
(-0.000657458 -8.99998e-05 0)
(-0.000647002 -9.29959e-05 0)
(-0.00063367 -9.59339e-05 0)
(-0.000617614 -9.8763e-05 0)
(-0.000598955 -0.000101426 0)
(-0.000577838 -0.000103846 0)
(-0.000554377 -0.000105961 0)
(-0.00052874 -0.000107712 0)
(-0.000501061 -0.000109054 0)
(-0.000471551 -0.000109921 0)
(-0.000440652 -0.000110316 0)
(-0.000408182 -0.000110102 0)
(-0.000374545 -0.000109395 0)
(-0.000340175 -0.000108057 0)
(-0.000305497 -0.000106155 0)
(-0.000270609 -0.000103554 0)
(-0.000235587 -0.000100387 0)
(-0.000201163 -9.65336e-05 0)
(-0.00016739 -9.2099e-05 0)
(-0.000134695 -8.70305e-05 0)
(-0.000103454 -8.14345e-05 0)
(-7.40731e-05 -7.52742e-05 0)
(-4.67349e-05 -6.86223e-05 0)
(-2.17068e-05 -6.15424e-05 0)
(5.26436e-07 -5.40451e-05 0)
(1.98629e-05 -4.62048e-05 0)
(3.62299e-05 -3.80701e-05 0)
(4.95127e-05 -2.97735e-05 0)
(5.92264e-05 -2.13892e-05 0)
(6.5222e-05 -1.29838e-05 0)
(6.75363e-05 -4.6765e-06 0)
(6.60369e-05 3.40347e-06 0)
(6.06511e-05 1.11674e-05 0)
(5.15552e-05 1.85175e-05 0)
(3.92781e-05 2.54195e-05 0)
(2.35064e-05 3.15948e-05 0)
(4.33416e-06 3.71656e-05 0)
(-1.71708e-05 4.19839e-05 0)
(-4.0827e-05 4.58385e-05 0)
(-6.66836e-05 4.87166e-05 0)
(-9.36239e-05 5.06359e-05 0)
(-0.000121437 5.14491e-05 0)
(-0.000149877 5.11911e-05 0)
(-0.000177861 4.98614e-05 0)
(-0.000204992 4.73988e-05 0)
(-0.000230752 4.39005e-05 0)
(-0.0002545 3.93801e-05 0)
(-0.000275496 3.39728e-05 0)
(-0.000293233 2.76915e-05 0)
(-0.000307339 2.07179e-05 0)
(-0.000317249 1.31636e-05 0)
(-0.000322611 5.19621e-06 0)
(-0.000322947 -2.99596e-06 0)
(-0.000317812 -1.12312e-05 0)
(-0.000307327 -1.93525e-05 0)
(-0.000291735 -2.7163e-05 0)
(-0.000271229 -3.44638e-05 0)
(-0.000246182 -4.10692e-05 0)
(-0.00021695 -4.67717e-05 0)
(-0.00018413 -5.14293e-05 0)
(-0.000148395 -5.48605e-05 0)
(-0.000110516 -5.69774e-05 0)
(-7.13638e-05 -5.76767e-05 0)
(-3.19607e-05 -5.69397e-05 0)
(6.76457e-06 -5.47286e-05 0)
(4.37374e-05 -5.113e-05 0)
(7.79669e-05 -4.61623e-05 0)
(0.000108504 -4.00638e-05 0)
(0.000134391 -3.28448e-05 0)
(0.000155005 -2.49044e-05 0)
(0.000169591 -1.63367e-05 0)
(0.000177863 -7.51835e-06 0)
(0.000179338 1.2823e-06 0)
(0.000173796 9.76584e-06 0)
(0.00016176 1.76339e-05 0)
(0.000143982 2.46118e-05 0)
(0.000120984 3.04287e-05 0)
(9.37074e-05 3.48277e-05 0)
(6.34242e-05 3.76301e-05 0)
(3.1235e-05 3.87411e-05 0)
(-1.28162e-06 3.80924e-05 0)
(-3.26976e-05 3.56649e-05 0)
(-6.15112e-05 3.16517e-05 0)
(-8.63224e-05 2.61435e-05 0)
(-0.00010601 1.94409e-05 0)
(-0.000119526 1.18577e-05 0)
(-0.000126093 3.78084e-06 0)
(-0.000125056 -4.48084e-06 0)
(-0.000116249 -1.23599e-05 0)
(-0.000100239 -1.95795e-05 0)
(-7.79727e-05 -2.5743e-05 0)
(-5.04415e-05 -3.04615e-05 0)
(-1.91308e-05 -3.34457e-05 0)
(1.46191e-05 -3.45e-05 0)
(4.87611e-05 -3.35725e-05 0)
(8.07606e-05 -3.07429e-05 0)
(0.000109167 -2.60643e-05 0)
(0.000132275 -1.99635e-05 0)
(0.000148613 -1.26368e-05 0)
(0.000157097 -4.68396e-06 0)
(0.000156897 3.48742e-06 0)
(0.000147888 1.12878e-05 0)
(0.000130786 1.82811e-05 0)
(0.000106814 2.39388e-05 0)
(7.75242e-05 2.79178e-05 0)
(4.47896e-05 2.99341e-05 0)
(1.06267e-05 2.98397e-05 0)
(-2.2327e-05 2.76873e-05 0)
(-5.16792e-05 2.36495e-05 0)
(-7.55749e-05 1.81273e-05 0)
(-9.24066e-05 1.15397e-05 0)
(-0.000101163 4.4412e-06 0)
(-0.00010129 -2.53518e-06 0)
(-9.31107e-05 -8.84408e-06 0)
(-7.78964e-05 -1.3995e-05 0)
(-5.73264e-05 -1.75562e-05 0)
(-3.34571e-05 -1.92262e-05 0)
(-8.47916e-06 -1.9006e-05 0)
(1.49332e-05 -1.69338e-05 0)
(3.45237e-05 -1.33625e-05 0)
(4.86955e-05 -8.72917e-06 0)
(5.63356e-05 -3.59876e-06 0)
(5.69466e-05 1.44762e-06 0)
(5.09241e-05 5.8423e-06 0)
(3.96093e-05 9.14645e-06 0)
(2.4757e-05 1.10002e-05 0)
(8.36999e-06 1.12562e-05 0)
(-7.20581e-06 9.96789e-06 0)
(-1.98092e-05 7.44428e-06 0)
(-2.80065e-05 4.10111e-06 0)
(-3.09322e-05 4.20658e-07 0)
(-2.83846e-05 -2.94466e-06 0)
(-2.11484e-05 -5.6486e-06 0)
(-1.06845e-05 -7.28243e-06 0)
(1.63611e-06 -7.66314e-06 0)
(1.34648e-05 -6.7496e-06 0)
(2.26541e-05 -4.79383e-06 0)
(2.80535e-05 -2.12886e-06 0)
(2.88352e-05 7.94416e-07 0)
(2.47642e-05 3.50299e-06 0)
(1.66213e-05 5.64937e-06 0)
(6.02943e-06 6.87975e-06 0)
(-6.257e-06 7.0672e-06 0)
(-1.81863e-05 6.24568e-06 0)
(-2.74753e-05 4.57883e-06 0)
(-3.33894e-05 2.36954e-06 0)
(-3.51558e-05 -4.87714e-08 0)
(-3.27105e-05 -2.30666e-06 0)
(-2.6501e-05 -4.13041e-06 0)
(-1.76357e-05 -5.31712e-06 0)
(-7.27337e-06 -5.73852e-06 0)
(3.29804e-06 -5.45345e-06 0)
(1.26781e-05 -4.5172e-06 0)
(1.98774e-05 -3.15801e-06 0)
(2.42252e-05 -1.5493e-06 0)
(2.5466e-05 9.63417e-08 0)
(2.36105e-05 1.62022e-06 0)
(1.90565e-05 2.8642e-06 0)
(1.2369e-05 3.75674e-06 0)
(4.28348e-06 4.20631e-06 0)
(-1.15339e-06 0.000362507 0)
(-3.00941e-06 0.00036885 0)
(-5.1289e-06 0.000371318 0)
(-7.84726e-06 0.000374918 0)
(-1.13148e-05 0.000379678 0)
(-1.57393e-05 0.000385505 0)
(-2.14694e-05 0.000392305 0)
(-2.86225e-05 0.000399919 0)
(-3.74801e-05 0.00040817 0)
(-4.82818e-05 0.000416875 0)
(-6.10216e-05 0.000425769 0)
(-7.5917e-05 0.000434673 0)
(-9.31007e-05 0.000443213 0)
(-0.00011249 0.0004512 0)
(-0.000134164 0.000458246 0)
(-0.000158021 0.000464168 0)
(-0.000183945 0.000468631 0)
(-0.000211873 0.000471417 0)
(-0.000241559 0.000472289 0)
(-0.000272678 0.000471057 0)
(-0.000304948 0.000467529 0)
(-0.000338172 0.000461568 0)
(-0.000371993 0.000453091 0)
(-0.00040595 0.000442018 0)
(-0.00043978 0.000428361 0)
(-0.000473005 0.000412117 0)
(-0.000505247 0.00039343 0)
(-0.000536056 0.000372374 0)
(-0.000565266 0.000349128 0)
(-0.000592489 0.000323852 0)
(-0.000617289 0.000296781 0)
(-0.000639542 0.000268169 0)
(-0.000659038 0.000238219 0)
(-0.00067537 0.000207237 0)
(-0.000688148 0.000175455 0)
(-0.000697627 0.000143107 0)
(-0.000703469 0.000110462 0)
(-0.000705476 7.77518e-05 0)
(-0.000704171 4.52996e-05 0)
(-0.000699877 1.34761e-05 0)
(-0.000692428 -1.74358e-05 0)
(-0.00068135 -4.71861e-05 0)
(-0.000666679 -7.56094e-05 0)
(-0.000648697 -0.000102474 0)
(-0.000627401 -0.00012765 0)
(-0.000602945 -0.000150969 0)
(-0.000575561 -0.000172296 0)
(-0.000545516 -0.000191477 0)
(-0.000512948 -0.000208418 0)
(-0.000478326 -0.000222988 0)
(-0.000441743 -0.000235133 0)
(-0.000403599 -0.000244715 0)
(-0.000364309 -0.000251784 0)
(-0.00032406 -0.000256132 0)
(-0.000283317 -0.000257981 0)
(-0.000242477 -0.000257082 0)
(-0.000201712 -0.000253694 0)
(-0.000161605 -0.000247637 0)
(-0.000122537 -0.000239188 0)
(-8.49237e-05 -0.000228269 0)
(-4.92103e-05 -0.000215202 0)
(-1.56235e-05 -0.000199913 0)
(1.52014e-05 -0.000182745 0)
(4.32976e-05 -0.000163713 0)
(6.8144e-05 -0.000143167 0)
(8.94841e-05 -0.000121186 0)
(0.000107018 -9.81558e-05 0)
(0.000120551 -7.42884e-05 0)
(0.000129912 -4.99789e-05 0)
(0.000134782 -2.54832e-05 0)
(0.000134962 -1.12743e-06 0)
(0.000130479 2.27043e-05 0)
(0.000121426 4.57405e-05 0)
(0.0001082 6.76486e-05 0)
(9.06589e-05 8.80668e-05 0)
(6.91274e-05 0.000106627 0)
(4.42226e-05 0.000123171 0)
(1.57497e-05 0.000137222 0)
(-1.55612e-05 0.00014864 0)
(-4.88838e-05 0.000157037 0)
(-8.3595e-05 0.000162387 0)
(-0.000119413 0.000164302 0)
(-0.000155551 0.000163055 0)
(-0.000191274 0.000158209 0)
(-0.00022584 0.000150206 0)
(-0.000258478 0.000138792 0)
(-0.00028844 0.000124389 0)
(-0.000315 0.000107109 0)
(-0.000337518 8.72623e-05 0)
(-0.00035532 6.52604e-05 0)
(-0.000367923 4.15168e-05 0)
(-0.000374766 1.65095e-05 0)
(-0.00037536 -9.16718e-06 0)
(-0.000369399 -3.49669e-05 0)
(-0.000357001 -6.03217e-05 0)
(-0.000338314 -8.46538e-05 0)
(-0.000313605 -0.000107325 0)
(-0.000283263 -0.000127746 0)
(-0.000247807 -0.000145327 0)
(-0.000207951 -0.000159587 0)
(-0.000164556 -0.000170048 0)
(-0.00011864 -0.000176383 0)
(-7.12843e-05 -0.000178315 0)
(-2.37077e-05 -0.000175742 0)
(2.28696e-05 -0.000168621 0)
(6.72246e-05 -0.000157132 0)
(0.000107971 -0.000141516 0)
(0.000144201 -0.000122199 0)
(0.000174566 -9.97635e-05 0)
(0.000198253 -7.47915e-05 0)
(0.00021462 -4.81631e-05 0)
(0.000222975 -2.06916e-05 0)
(0.000223086 6.67324e-06 0)
(0.000214713 3.28987e-05 0)
(0.000198488 5.72973e-05 0)
(0.000175274 7.87377e-05 0)
(0.000145686 9.65089e-05 0)
(0.000110927 0.000109935 0)
(7.26839e-05 0.000118348 0)
(3.23331e-05 0.000121415 0)
(-8.36007e-06 0.000119055 0)
(-4.73715e-05 0.000111252 0)
(-8.29629e-05 9.8378e-05 0)
(-0.000113523 8.09968e-05 0)
(-0.000137474 5.99542e-05 0)
(-0.000153626 3.61003e-05 0)
(-0.000161263 1.07906e-05 0)
(-0.000159407 -1.48849e-05 0)
(-0.000148015 -3.94667e-05 0)
(-0.000128076 -6.19224e-05 0)
(-0.000100354 -8.08355e-05 0)
(-6.61101e-05 -9.52958e-05 0)
(-2.72619e-05 -0.000104408 0)
(1.43463e-05 -0.000107463 0)
(5.61133e-05 -0.000104362 0)
(9.53049e-05 -9.52566e-05 0)
(0.000129822 -8.06058e-05 0)
(0.000157713 -6.12803e-05 0)
(0.000177233 -3.84939e-05 0)
(0.000186957 -1.35939e-05 0)
(0.000186141 1.17164e-05 0)
(0.000174666 3.5904e-05 0)
(0.000153428 5.74102e-05 0)
(0.00012387 7.47819e-05 0)
(8.80218e-05 8.68196e-05 0)
(4.81296e-05 9.26781e-05 0)
(6.8082e-06 9.21375e-05 0)
(-3.27606e-05 8.50677e-05 0)
(-6.76199e-05 7.23152e-05 0)
(-9.55423e-05 5.48858e-05 0)
(-0.00011472 3.42988e-05 0)
(-0.000123851 1.22613e-05 0)
(-0.000122463 -9.33519e-06 0)
(-0.000111169 -2.8826e-05 0)
(-9.14722e-05 -4.44861e-05 0)
(-6.53917e-05 -5.51889e-05 0)
(-3.56768e-05 -6.00558e-05 0)
(-5.04537e-06 -5.89122e-05 0)
(2.33115e-05 -5.21222e-05 0)
(4.65722e-05 -4.07153e-05 0)
(6.28745e-05 -2.60895e-05 0)
(7.09485e-05 -1.00262e-05 0)
(7.03514e-05 5.65118e-06 0)
(6.1734e-05 1.92373e-05 0)
(4.67737e-05 2.9265e-05 0)
(2.76614e-05 3.47789e-05 0)
(6.98266e-06 3.52674e-05 0)
(-1.23029e-05 3.09902e-05 0)
(-2.75714e-05 2.28817e-05 0)
(-3.71967e-05 1.22935e-05 0)
(-4.00499e-05 8.11631e-07 0)
(-3.61506e-05 -9.76301e-06 0)
(-2.66388e-05 -1.80971e-05 0)
(-1.32096e-05 -2.30568e-05 0)
(2.28655e-06 -2.40561e-05 0)
(1.69627e-05 -2.10591e-05 0)
(2.8228e-05 -1.48324e-05 0)
(3.47205e-05 -6.48801e-06 0)
(3.54801e-05 2.60504e-06 0)
(3.04293e-05 1.09871e-05 0)
(2.05201e-05 1.75044e-05 0)
(7.65266e-06 2.12146e-05 0)
(-6.96318e-06 2.16847e-05 0)
(-2.09494e-05 1.90354e-05 0)
(-3.17353e-05 1.38475e-05 0)
(-3.84197e-05 7.03069e-06 0)
(-4.01827e-05 -3.32597e-07 0)
(-3.70494e-05 -7.18704e-06 0)
(-2.9666e-05 -1.26532e-05 0)
(-1.93092e-05 -1.61317e-05 0)
(-7.41665e-06 -1.73299e-05 0)
(4.53391e-06 -1.63454e-05 0)
(1.49781e-05 -1.3486e-05 0)
(2.28183e-05 -9.33261e-06 0)
(2.74139e-05 -4.49173e-06 0)
(2.85365e-05 4.19062e-07 0)
(2.62618e-05 4.9237e-06 0)
(2.10802e-05 8.59636e-06 0)
(1.36267e-05 1.11895e-05 0)
(4.7015e-06 1.25196e-05 0)
(4.63523e-06 -9.52718e-05 0)
(1.38237e-05 -0.00010244 0)
(2.2235e-05 -9.52091e-05 0)
(2.94173e-05 -8.40627e-05 0)
(3.47284e-05 -6.91473e-05 0)
(3.75548e-05 -5.06039e-05 0)
(3.74059e-05 -2.8492e-05 0)
(3.35461e-05 -3.08437e-06 0)
(2.57996e-05 2.53706e-05 0)
(1.35117e-05 5.62448e-05 0)
(-3.14967e-06 8.90641e-05 0)
(-2.49517e-05 0.000123066 0)
(-5.19869e-05 0.000157643 0)
(-8.41202e-05 0.000192036 0)
(-0.000121154 0.000225495 0)
(-0.000162544 0.000257345 0)
(-0.000208352 0.000286841 0)
(-0.000257695 0.00031335 0)
(-0.000310182 0.000336254 0)
(-0.000365245 0.00035502 0)
(-0.000422299 0.000369105 0)
(-0.000480403 0.000378211 0)
(-0.000538931 0.000382105 0)
(-0.000597036 0.000380597 0)
(-0.000654028 0.000373706 0)
(-0.000708827 0.000361498 0)
(-0.000760748 0.000344238 0)
(-0.000809363 0.000322023 0)
(-0.000853948 0.000295447 0)
(-0.000894076 0.000264844 0)
(-0.0009291 0.00023067 0)
(-0.000959033 0.000193425 0)
(-0.000983564 0.000153772 0)
(-0.00100229 0.00011209 0)
(-0.0010157 6.91197e-05 0)
(-0.00102355 2.51314e-05 0)
(-0.00102572 -1.897e-05 0)
(-0.00102225 -6.29137e-05 0)
(-0.00101221 -0.000106438 0)
(-0.000995734 -0.000149239 0)
(-0.000973743 -0.000190997 0)
(-0.000946937 -0.000231237 0)
(-0.000915526 -0.000269658 0)
(-0.000879898 -0.000305913 0)
(-0.000840532 -0.000339668 0)
(-0.000797598 -0.000370637 0)
(-0.000751332 -0.000398551 0)
(-0.000702137 -0.000423196 0)
(-0.000650292 -0.000444314 0)
(-0.000596243 -0.000461824 0)
(-0.000540395 -0.000475466 0)
(-0.000483122 -0.000485194 0)
(-0.000424519 -0.000490786 0)
(-0.000365745 -0.000492326 0)
(-0.000307084 -0.000489664 0)
(-0.000248781 -0.000482857 0)
(-0.000191241 -0.000471762 0)
(-0.000135199 -0.000456694 0)
(-8.11928e-05 -0.000437648 0)
(-2.97569e-05 -0.000414833 0)
(1.87141e-05 -0.000388236 0)
(6.38223e-05 -0.000358249 0)
(0.000105013 -0.000324998 0)
(0.000142095 -0.000288904 0)
(0.00017435 -0.000250282 0)
(0.000201599 -0.000209565 0)
(0.00022329 -0.000167168 0)
(0.000239372 -0.000123625 0)
(0.000249324 -7.94063e-05 0)
(0.000253278 -3.50121e-05 0)
(0.00025085 8.89716e-06 0)
(0.000242251 5.17956e-05 0)
(0.000227675 9.30587e-05 0)
(0.000207041 0.000132181 0)
(0.000180796 0.000168456 0)
(0.000149491 0.000201427 0)
(0.000112949 0.000230375 0)
(7.22172e-05 0.000254918 0)
(2.79272e-05 0.000274561 0)
(-1.94701e-05 0.000289028 0)
(-6.88575e-05 0.000297768 0)
(-0.000119036 0.000300551 0)
(-0.000169821 0.00029745 0)
(-0.000219662 0.00028821 0)
(-0.000267536 0.000272996 0)
(-0.000313005 0.000251978 0)
(-0.000354328 0.000225494 0)
(-0.000391166 0.000193928 0)
(-0.000422154 0.000157891 0)
(-0.00044666 0.000118023 0)
(-0.000464033 7.51306e-05 0)
(-0.000473482 3.01032e-05 0)
(-0.000474432 -1.61007e-05 0)
(-0.000466633 -6.24149e-05 0)
(-0.000450244 -0.000107862 0)
(-0.000425408 -0.000151305 0)
(-0.000392404 -0.000191699 0)
(-0.000351851 -0.000227921 0)
(-0.000304495 -0.000258984 0)
(-0.000251354 -0.000283974 0)
(-0.000193596 -0.000302123 0)
(-0.000132581 -0.000312793 0)
(-6.98289e-05 -0.000315637 0)
(-6.98642e-06 -0.000310356 0)
(5.42926e-05 -0.000296994 0)
(0.000112245 -0.000275816 0)
(0.000165283 -0.000247356 0)
(0.000211714 -0.000212312 0)
(0.00025026 -0.000171796 0)
(0.000279685 -0.000126867 0)
(0.000298843 -7.91291e-05 0)
(0.000307381 -2.99125e-05 0)
(0.000304486 1.8809e-05 0)
(0.00029068 6.56505e-05 0)
(0.00026641 0.000108749 0)
(0.000232504 0.000146751 0)
(0.000190623 0.000177769 0)
(0.000141934 0.000200961 0)
(8.85458e-05 0.000215224 0)
(3.28723e-05 0.000219868 0)
(-2.2812e-05 0.000214617 0)
(-7.61064e-05 0.000199753 0)
(-0.000124348 0.000175935 0)
(-0.000165254 0.000144109 0)
(-0.000197198 0.000105759 0)
(-0.000218256 6.27863e-05 0)
(-0.000227336 1.70738e-05 0)
(-0.000223732 -2.89494e-05 0)
(-0.000207548 -7.30995e-05 0)
(-0.000179653 -0.000113004 0)
(-0.000141342 -0.00014656 0)
(-9.47166e-05 -0.000171836 0)
(-4.17725e-05 -0.000187416 0)
(1.4603e-05 -0.000192503 0)
(7.07538e-05 -0.000186265 0)
(0.00012318 -0.000169379 0)
(0.000169187 -0.000142645 0)
(0.000205848 -0.000107746 0)
(0.000230998 -6.67053e-05 0)
(0.000242871 -2.22419e-05 0)
(0.000240515 2.29918e-05 0)
(0.000224215 6.59556e-05 0)
(0.000195008 0.000103929 0)
(0.000154871 0.000134247 0)
(0.000106484 0.000154939 0)
(5.33622e-05 0.000164581 0)
(-1.27073e-06 0.00016267 0)
(-5.31181e-05 0.000149263 0)
(-9.80811e-05 0.000125839 0)
(-0.000133385 9.42279e-05 0)
(-0.000156517 5.71868e-05 0)
(-0.000166062 1.78589e-05 0)
(-0.000161718 -2.05086e-05 0)
(-0.000144247 -5.47416e-05 0)
(-0.000115844 -8.20331e-05 0)
(-7.95194e-05 -0.000100132 0)
(-3.87745e-05 -0.000107805 0)
(2.43876e-06 -0.000104766 0)
(3.9817e-05 -9.16852e-05 0)
(6.97608e-05 -7.05068e-05 0)
(8.97905e-05 -4.3827e-05 0)
(9.83761e-05 -1.48218e-05 0)
(9.52824e-05 1.31718e-05 0)
(8.15303e-05 3.71521e-05 0)
(5.95518e-05 5.45234e-05 0)
(3.24122e-05 6.35989e-05 0)
(3.69582e-06 6.36822e-05 0)
(-2.24591e-05 5.52813e-05 0)
(-4.26093e-05 4.01341e-05 0)
(-5.46387e-05 2.07387e-05 0)
(-5.72579e-05 1.39518e-08 0)
(-5.07073e-05 -1.89905e-05 0)
(-3.66837e-05 -3.37047e-05 0)
(-1.75938e-05 -4.21814e-05 0)
(3.87206e-06 -4.35111e-05 0)
(2.38222e-05 -3.77177e-05 0)
(3.88584e-05 -2.62546e-05 0)
(4.72406e-05 -1.11783e-05 0)
(4.7856e-05 5.04859e-06 0)
(4.08102e-05 1.98499e-05 0)
(2.75248e-05 3.11292e-05 0)
(1.0453e-05 3.74003e-05 0)
(-8.49244e-06 3.79156e-05 0)
(-2.62142e-05 3.29681e-05 0)
(-3.96522e-05 2.3677e-05 0)
(-4.76215e-05 1.17042e-05 0)
(-4.92721e-05 -1.08108e-06 0)
(-4.48112e-05 -1.28318e-05 0)
(-3.51957e-05 -2.20584e-05 0)
(-2.21401e-05 -2.77498e-05 0)
(-7.4949e-06 -2.95583e-05 0)
(6.88472e-06 -2.75372e-05 0)
(1.9165e-05 -2.25036e-05 0)
(2.8109e-05 -1.53584e-05 0)
(3.30547e-05 -7.15099e-06 0)
(3.38983e-05 1.07692e-06 0)
(3.08536e-05 8.50903e-06 0)
(2.45465e-05 1.45267e-05 0)
(1.57699e-05 1.87062e-05 0)
(5.42686e-06 2.0896e-05 0)
(2.56663e-05 0.00021268 0)
(7.78285e-05 0.000225426 0)
(0.000129084 0.000245983 0)
(0.000178563 0.000276655 0)
(0.000224956 0.000317202 0)
(0.00026759 0.000366715 0)
(0.000305297 0.000424478 0)
(0.000336756 0.000488702 0)
(0.000359587 0.000558334 0)
(0.000372246 0.00063105 0)
(0.000374203 0.00070566 0)
(0.000364605 0.000780097 0)
(0.000343664 0.000852927 0)
(0.000310888 0.000922137 0)
(0.000267041 0.000986341 0)
(0.000212555 0.00104376 0)
(0.000148033 0.00109321 0)
(7.46826e-05 0.00113326 0)
(-6.3989e-06 0.001163 0)
(-9.42179e-05 0.00118156 0)
(-0.000186874 0.00118832 0)
(-0.000282198 0.0011829 0)
(-0.000379128 0.00116523 0)
(-0.000475698 0.00113554 0)
(-0.000570185 0.00109452 0)
(-0.000660789 0.00104251 0)
(-0.000746953 0.000980949 0)
(-0.00082661 0.000910453 0)
(-0.000898459 0.000833176 0)
(-0.00096297 0.000749727 0)
(-0.00101902 0.000661995 0)
(-0.00106568 0.000570873 0)
(-0.00110354 0.000477646 0)
(-0.001132 0.000383272 0)
(-0.00115154 0.000288825 0)
(-0.00116173 0.000195147 0)
(-0.00116236 0.000102757 0)
(-0.0011564 1.28201e-05 0)
(-0.00114412 -7.36968e-05 0)
(-0.00112567 -0.000156325 0)
(-0.00110036 -0.000234662 0)
(-0.00106808 -0.000308422 0)
(-0.00102958 -0.000377257 0)
(-0.000985112 -0.000440936 0)
(-0.000935087 -0.000499146 0)
(-0.000880037 -0.000551677 0)
(-0.000820568 -0.000598287 0)
(-0.000757076 -0.000638788 0)
(-0.00069032 -0.000673029 0)
(-0.000620803 -0.000700885 0)
(-0.000548829 -0.000722257 0)
(-0.000474982 -0.000737021 0)
(-0.000400167 -0.000745255 0)
(-0.000325 -0.000746846 0)
(-0.00024978 -0.00074177 0)
(-0.000174947 -0.000730098 0)
(-0.000101649 -0.000711984 0)
(-3.09878e-05 -0.000687646 0)
(3.70878e-05 -0.00065715 0)
(0.000102198 -0.000620829 0)
(0.000163311 -0.000578844 0)
(0.000219722 -0.000531754 0)
(0.000270796 -0.000479775 0)
(0.000315944 -0.000423574 0)
(0.000354666 -0.000363572 0)
(0.000386452 -0.000300542 0)
(0.000410747 -0.000235064 0)
(0.00042733 -0.000167874 0)
(0.000436242 -9.98203e-05 0)
(0.000436668 -3.17323e-05 0)
(0.000428398 3.53242e-05 0)
(0.000411805 0.000100789 0)
(0.000387159 0.000163647 0)
(0.000354603 0.000223026 0)
(0.000314399 0.000277992 0)
(0.000266999 0.000327661 0)
(0.000213208 0.000371091 0)
(0.00015378 0.000407755 0)
(8.98233e-05 0.000436662 0)
(2.20297e-05 0.000457589 0)
(-4.87363e-05 0.000469678 0)
(-0.000120248 0.000472791 0)
(-0.000191834 0.000466459 0)
(-0.000262425 0.000451091 0)
(-0.000330074 0.000426339 0)
(-0.000393625 0.00039285 0)
(-0.000451719 0.000350954 0)
(-0.000503022 0.000301368 0)
(-0.000546221 0.000245063 0)
(-0.000580271 0.000182951 0)
(-0.000604175 0.000116381 0)
(-0.000617131 4.66276e-05 0)
(-0.000618351 -2.46975e-05 0)
(-0.000607645 -9.61188e-05 0)
(-0.000585177 -0.000165998 0)
(-0.000551087 -0.000232582 0)
(-0.000505856 -0.000294243 0)
(-0.000450214 -0.000349335 0)
(-0.000385334 -0.000396364 0)
(-0.000312646 -0.000433944 0)
(-0.000233801 -0.000460926 0)
(-0.000150879 -0.000476374 0)
(-6.5843e-05 -0.000479588 0)
(1.91374e-05 -0.00047041 0)
(0.000101562 -0.000448821 0)
(0.000179138 -0.000415307 0)
(0.000249595 -0.00037058 0)
(0.000310821 -0.000316054 0)
(0.000360872 -0.000253081 0)
(0.000398035 -0.000183693 0)
(0.000421258 -0.000110056 0)
(0.000429371 -3.45503e-05 0)
(0.000422172 4.00973e-05 0)
(0.000399989 0.000111651 0)
(0.00036368 0.000177059 0)
(0.000314266 0.000234489 0)
(0.000253667 0.000281121 0)
(0.000184746 0.000315362 0)
(0.000109608 0.000335822 0)
(3.13603e-05 0.000341508 0)
(-4.63568e-05 0.000332017 0)
(-0.000119821 0.000307758 0)
(-0.00018608 0.000269804 0)
(-0.000242113 0.00021978 0)
(-0.000284858 0.000159886 0)
(-0.000312556 9.29348e-05 0)
(-0.000323787 2.22426e-05 0)
(-0.000317363 -4.86711e-05 0)
(-0.000293611 -0.000116406 0)
(-0.000253896 -0.000177328 0)
(-0.000200018 -0.000228317 0)
(-0.000134623 -0.000266279 0)
(-6.1602e-05 -0.000289106 0)
(1.60487e-05 -0.000295861 0)
(9.32801e-05 -0.000285134 0)
(0.000164779 -0.00025807 0)
(0.000226969 -0.00021624 0)
(0.000276093 -0.000161954 0)
(0.000309037 -9.87334e-05 0)
(0.000323679 -3.02078e-05 0)
(0.000319064 3.88313e-05 0)
(0.000295291 0.00010419 0)
(0.000254087 0.000161653 0)
(0.000198258 0.000207 0)
(0.000131818 0.000237416 0)
(5.92912e-05 0.000250792 0)
(-1.45629e-05 0.000246283 0)
(-8.381e-05 0.000224476 0)
(-0.000143115 0.000187266 0)
(-0.0001887 0.000138058 0)
(-0.000217206 8.08016e-05 0)
(-0.000226959 2.04877e-05 0)
(-0.000217756 -3.78309e-05 0)
(-0.000191042 -8.937e-05 0)
(-0.00014978 -0.000129916 0)
(-9.8207e-05 -0.000156104 0)
(-4.16415e-05 -0.000166137 0)
(1.47591e-05 -0.000159718 0)
(6.51014e-05 -0.00013806 0)
(0.000104364 -0.000104292 0)
(0.0001294 -6.24979e-05 0)
(0.000138303 -1.75679e-05 0)
(0.000131105 2.53665e-05 0)
(0.00010956 6.15586e-05 0)
(7.70655e-05 8.73419e-05 0)
(3.81112e-05 9.99955e-05 0)
(-2.18624e-06 9.88123e-05 0)
(-3.81753e-05 8.45651e-05 0)
(-6.51557e-05 6.01593e-05 0)
(-8.0388e-05 2.95677e-05 0)
(-8.23616e-05 -2.62045e-06 0)
(-7.16781e-05 -3.18222e-05 0)
(-5.08286e-05 -5.40073e-05 0)
(-2.3368e-05 -6.6351e-05 0)
(6.7538e-06 -6.7551e-05 0)
(3.42492e-05 -5.79091e-05 0)
(5.45592e-05 -3.97429e-05 0)
(6.5451e-05 -1.63394e-05 0)
(6.56163e-05 8.47813e-06 0)
(5.54928e-05 3.08483e-05 0)
(3.72169e-05 4.75489e-05 0)
(1.40681e-05 5.64598e-05 0)
(-1.10269e-05 5.66877e-05 0)
(-3.39663e-05 4.87327e-05 0)
(-5.0986e-05 3.44545e-05 0)
(-6.05974e-05 1.64075e-05 0)
(-6.19264e-05 -2.53899e-06 0)
(-5.54424e-05 -1.97169e-05 0)
(-4.26122e-05 -3.29265e-05 0)
(-2.57624e-05 -4.07944e-05 0)
(-7.27235e-06 -4.29022e-05 0)
(1.04054e-05 -3.95229e-05 0)
(2.50321e-05 -3.18546e-05 0)
(3.53626e-05 -2.13404e-05 0)
(4.0698e-05 -9.52265e-06 0)
(4.10576e-05 2.17159e-06 0)
(3.68996e-05 1.25449e-05 0)
(2.90587e-05 2.08636e-05 0)
(1.85562e-05 2.66048e-05 0)
(6.38232e-06 2.95295e-05 0)
(7.17276e-05 -0.000791052 0)
(0.000215244 -0.00079054 0)
(0.000355244 -0.000756266 0)
(0.000488302 -0.00070429 0)
(0.000609735 -0.000634121 0)
(0.000716412 -0.000547657 0)
(0.000802749 -0.000442778 0)
(0.000866281 -0.000324381 0)
(0.000903833 -0.000188661 0)
(0.000914858 -4.20574e-05 0)
(0.00090139 0.000114035 0)
(0.000861759 0.000273482 0)
(0.000796858 0.000433826 0)
(0.000707784 0.000590159 0)
(0.000596604 0.000739501 0)
(0.000465602 0.000877958 0)
(0.000317586 0.00100258 0)
(0.000155406 0.0011107 0)
(-1.75526e-05 0.00119963 0)
(-0.000198669 0.00126735 0)
(-0.000384244 0.00131355 0)
(-0.000570491 0.00133667 0)
(-0.000753693 0.00133774 0)
(-0.00092906 0.00131526 0)
(-0.00109552 0.00127289 0)
(-0.00124862 0.00120895 0)
(-0.0013866 0.00113016 0)
(-0.00150588 0.00103364 0)
(-0.00160626 0.000929619 0)
(-0.00168889 0.000813821 0)
(-0.00175236 0.000694567 0)
(-0.00179955 0.000570225 0)
(-0.0018304 0.000445263 0)
(-0.0018456 0.000320091 0)
(-0.00184654 0.000196997 0)
(-0.0018358 7.6581e-05 0)
(-0.00181227 -4.00054e-05 0)
(-0.00177478 -0.000152702 0)
(-0.00172566 -0.000260953 0)
(-0.00166749 -0.000364079 0)
(-0.00160179 -0.000461391 0)
(-0.00152944 -0.000552542 0)
(-0.00145098 -0.000636896 0)
(-0.00136697 -0.000714514 0)
(-0.00127801 -0.000784741 0)
(-0.00118464 -0.000847525 0)
(-0.00108726 -0.000902449 0)
(-0.000986641 -0.000949634 0)
(-0.000883374 -0.000988768 0)
(-0.000778112 -0.00101947 0)
(-0.000671291 -0.00104176 0)
(-0.000563896 -0.00105562 0)
(-0.000456192 -0.00106086 0)
(-0.00034888 -0.00105727 0)
(-0.000242889 -0.001045 0)
(-0.000139054 -0.00102412 0)
(-3.83216e-05 -0.000994702 0)
(5.88847e-05 -0.000956867 0)
(0.000151756 -0.000910707 0)
(0.000239504 -0.000856579 0)
(0.000321061 -0.00079505 0)
(0.000395874 -0.00072641 0)
(0.000463186 -0.000651394 0)
(0.000522187 -0.000570506 0)
(0.000571992 -0.000484685 0)
(0.000612013 -0.000394671 0)
(0.000641962 -0.00030154 0)
(0.000661153 -0.000206116 0)
(0.000669066 -0.000109677 0)
(0.000665181 -1.34153e-05 0)
(0.000650062 8.1457e-05 0)
(0.00062436 0.00017383 0)
(0.000587498 0.000262313 0)
(0.000539749 0.000345573 0)
(0.000481756 0.000422451 0)
(0.00041422 0.000491643 0)
(0.000338111 0.000552004 0)
(0.00025448 0.00060239 0)
(0.000164938 0.000641862 0)
(7.03803e-05 0.00066955 0)
(-2.78169e-05 0.000684846 0)
(-0.000127267 0.000687322 0)
(-0.000226351 0.0006765 0)
(-0.000323273 0.000652495 0)
(-0.000416361 0.000615528 0)
(-0.000503485 0.000566005 0)
(-0.000582927 0.000504685 0)
(-0.0006528 0.000432611 0)
(-0.000711421 0.000351062 0)
(-0.000757433 0.000261502 0)
(-0.0007895 0.000165795 0)
(-0.000806484 6.58353e-05 0)
(-0.000807551 -3.61999e-05 0)
(-0.000792615 -0.000138147 0)
(-0.000761512 -0.00023763 0)
(-0.00071464 -0.000332245 0)
(-0.000652771 -0.000419516 0)
(-0.000577048 -0.000497177 0)
(-0.000488999 -0.000563069 0)
(-0.000390618 -0.000615282 0)
(-0.000284205 -0.000652259 0)
(-0.00017221 -0.000672725 0)
(-5.78339e-05 -0.000675915 0)
(5.58358e-05 -0.000661138 0)
(0.000165822 -0.000628935 0)
(0.000268957 -0.000579704 0)
(0.000361919 -0.000514742 0)
(0.000441922 -0.00043582 0)
(0.000506678 -0.000345348 0)
(0.000553624 -0.000245804 0)
(0.000581291 -0.000140856 0)
(0.000588525 -3.33664e-05 0)
(0.000575132 7.26355e-05 0)
(0.000541387 0.000173605 0)
(0.000488748 0.000266029 0)
(0.000418742 0.000346193 0)
(0.00033374 0.000411028 0)
(0.000237738 0.000458023 0)
(0.000133962 0.000485126 0)
(2.66184e-05 0.00049127 0)
(-7.95449e-05 0.000475568 0)
(-0.000179661 0.000438856 0)
(-0.000269221 0.000383045 0)
(-0.000344272 0.000309972 0)
(-0.000401445 0.000223384 0)
(-0.000437406 0.00012719 0)
(-0.000450288 2.57929e-05 0)
(-0.000439581 -7.53275e-05 0)
(-0.000405588 -0.000171503 0)
(-0.000349994 -0.000257838 0)
(-0.000275274 -0.000329262 0)
(-0.000185287 -0.00038223 0)
(-8.54988e-05 -0.000413528 0)
(2.00781e-05 -0.000421211 0)
(0.000124715 -0.000404585 0)
(0.000220683 -0.000364742 0)
(0.000303779 -0.000303985 0)
(0.000368602 -0.000225584 0)
(0.000411431 -0.000134931 0)
(0.000429177 -3.74805e-05 0)
(0.000420535 6.0568e-05 0)
(0.000386878 0.000152738 0)
(0.000329663 0.000232959 0)
(0.000253042 0.000295957 0)
(0.000162693 0.000337292 0)
(6.48009e-05 0.000354348 0)
(-3.39273e-05 0.000345552 0)
(-0.000125794 0.000312686 0)
(-0.000203408 0.000258299 0)
(-0.00026175 0.000187144 0)
(-0.000296714 0.000105282 0)
(-0.000305969 1.94866e-05 0)
(-0.000289851 -6.26623e-05 0)
(-0.000250492 -0.000134638 0)
(-0.000192044 -0.000190409 0)
(-0.000120514 -0.000225337 0)
(-4.30324e-05 -0.000237389 0)
(3.3098e-05 -0.000225314 0)
(9.99e-05 -0.000192491 0)
(0.000150842 -0.000142733 0)
(0.000181857 -8.2122e-05 0)
(0.000190638 -1.76767e-05 0)
(0.000177473 4.33151e-05 0)
(0.00014523 9.40514e-05 0)
(9.86784e-05 0.000129216 0)
(4.40681e-05 0.000145458 0)
(-1.1442e-05 0.000141683 0)
(-6.01935e-05 0.000119519 0)
(-9.57758e-05 8.32554e-05 0)
(-0.000114693 3.86031e-05 0)
(-0.000115355 -7.69072e-06 0)
(-9.88246e-05 -4.91666e-05 0)
(-6.86945e-05 -8.00434e-05 0)
(-3.00759e-05 -9.65666e-05 0)
(1.13952e-05 -9.70169e-05 0)
(4.85746e-05 -8.21683e-05 0)
(7.55049e-05 -5.55058e-05 0)
(8.93065e-05 -2.18093e-05 0)
(8.85815e-05 1.33393e-05 0)
(7.41771e-05 4.45713e-05 0)
(4.91846e-05 6.74269e-05 0)
(1.81416e-05 7.90815e-05 0)
(-1.47943e-05 7.84658e-05 0)
(-4.42756e-05 6.6627e-05 0)
(-6.56551e-05 4.62917e-05 0)
(-7.70695e-05 2.10879e-05 0)
(-7.7724e-05 -4.93709e-06 0)
(-6.84921e-05 -2.81271e-05 0)
(-5.14576e-05 -4.55495e-05 0)
(-2.97793e-05 -5.55501e-05 0)
(-6.58507e-06 -5.75822e-05 0)
(1.50614e-05 -5.24335e-05 0)
(3.2501e-05 -4.16207e-05 0)
(4.43241e-05 -2.7277e-05 0)
(4.99467e-05 -1.15135e-05 0)
(4.95827e-05 3.77859e-06 0)
(4.39953e-05 1.71514e-05 0)
(3.43236e-05 2.76607e-05 0)
(2.17349e-05 3.4866e-05 0)
(7.42661e-06 3.85075e-05 0)
(0.000129288 -0.00135999 0)
(0.000389392 -0.00132064 0)
(0.000645398 -0.00122811 0)
(0.00089759 -0.00108926 0)
(0.00113507 -0.000901566 0)
(0.00136311 -0.000671691 0)
(0.00156382 -0.000391599 0)
(0.00174422 -8.22214e-05 0)
(0.00188822 0.000272303 0)
(0.00197582 0.000631834 0)
(0.00201611 0.000998499 0)
(0.00200316 0.00135259 0)
(0.00194189 0.00169041 0)
(0.00183084 0.0020005 0)
(0.00167644 0.00227774 0)
(0.00148049 0.00251654 0)
(0.00125003 0.00271312 0)
(0.000988996 0.00286486 0)
(0.000705206 0.00297011 0)