#           v             n
     0.523599             0
     0.648652             0
     0.790112             0
     0.953116             0
      1.13449             0
      1.34047             0
      1.56672             0
      1.82069             0
      2.09677   3.50759e-07
      2.40376   5.49589e-06
      2.73462   4.40483e-05
      3.09966   0.000199444
      3.49026    0.00066191
      3.91837    0.00157158
      4.37366    0.00305179
      4.86986    0.00464586
       5.3948    0.00600676
      5.96412    0.00628128
      6.56366    0.00563096
      7.21112    0.00414886
      7.89023    0.00264446
      8.62085    0.00140847
      9.38447   0.000656977
      10.2033   0.000260343
      11.0564   9.15111e-05
      11.9684   2.77364e-05
      12.9159   7.54437e-06
      13.9262   1.79209e-06
      14.9731    1.0077e-06
