# vtk DataFile Version 2.0
tracks
ASCII
DATASET POLYDATA
POINTS 600 float
-0.5 -0.5 -0.05 -0.5 -0.5 -0.05 -0.5 -0.5 -0.05 -0.5 -0.5
-0.05 -0.5 -0.5 -0.05 -0.5 -0.5 -0.05 -0.5 -0.489899 -0.0489899
-0.49798 -0.489899 -0.0489899 -0.49596 -0.489899 -0.0489899 -0.493939 -0.489899 -0.0489899 -0.491919
-0.489899 -0.0489899 -0.489899 -0.489899 -0.0489899 -0.5 -0.479798 -0.0479798 -0.49596 -0.479798
-0.0479798 -0.491919 -0.479798 -0.0479798 -0.487879 -0.479798 -0.0479798 -0.483838 -0.479798 -0.0479798
-0.479798 -0.479798 -0.0479798 -0.5 -0.469697 -0.0469697 -0.493939 -0.469697 -0.0469697 -0.487879
-0.469697 -0.0469697 -0.481818 -0.469697 -0.0469697 -0.475758 -0.469697 -0.0469697 -0.469697 -0.469697
-0.0469697 -0.5 -0.459596 -0.0459596 -0.491919 -0.459596 -0.0459596 -0.483838 -0.459596 -0.0459596
-0.475758 -0.459596 -0.0459596 -0.467677 -0.459596 -0.0459596 -0.459596 -0.459596 -0.0459596 -0.5
-0.449495 -0.0449495 -0.489899 -0.449495 -0.0449495 -0.479798 -0.449495 -0.0449495 -0.469697 -0.449495
-0.0449495 -0.459596 -0.449495 -0.0449495 -0.449495 -0.449495 -0.0449495 -0.5 -0.439394 -0.0439394
-0.487879 -0.439394 -0.0439394 -0.475758 -0.439394 -0.0439394 -0.463636 -0.439394 -0.0439394 -0.451515
-0.439394 -0.0439394 -0.439394 -0.439394 -0.0439394 -0.5 -0.429293 -0.0429293 -0.485859 -0.429293
-0.0429293 -0.471717 -0.429293 -0.0429293 -0.457576 -0.429293 -0.0429293 -0.443434 -0.429293 -0.0429293
-0.429293 -0.429293 -0.0429293 -0.5 -0.419192 -0.0419192 -0.483838 -0.419192 -0.0419192 -0.467677
-0.419192 -0.0419192 -0.451515 -0.419192 -0.0419192 -0.435354 -0.419192 -0.0419192 -0.419192 -0.419192
-0.0419192 -0.5 -0.409091 -0.0409091 -0.481818 -0.409091 -0.0409091 -0.463636 -0.409091 -0.0409091
-0.445455 -0.409091 -0.0409091 -0.427273 -0.409091 -0.0409091 -0.409091 -0.409091 -0.0409091 -0.5
-0.39899 -0.039899 -0.479798 -0.39899 -0.039899 -0.459596 -0.39899 -0.039899 -0.439394 -0.39899
-0.039899 -0.419192 -0.39899 -0.039899 -0.39899 -0.39899 -0.039899 -0.5 -0.388889 -0.0388889
-0.477778 -0.388889 -0.0388889 -0.455556 -0.388889 -0.0388889 -0.433333 -0.388889 -0.0388889 -0.411111
-0.388889 -0.0388889 -0.388889 -0.388889 -0.0388889 -0.5 -0.378788 -0.0378788 -0.475758 -0.378788
-0.0378788 -0.451515 -0.378788 -0.0378788 -0.427273 -0.378788 -0.0378788 -0.40303 -0.378788 -0.0378788
-0.378788 -0.378788 -0.0378788 -0.5 -0.368687 -0.0368687 -0.473737 -0.368687 -0.0368687 -0.447475
-0.368687 -0.0368687 -0.421212 -0.368687 -0.0368687 -0.394949 -0.368687 -0.0368687 -0.368687 -0.368687
-0.0368687 -0.5 -0.358586 -0.0358586 -0.471717 -0.358586 -0.0358586 -0.443434 -0.358586 -0.0358586
-0.415152 -0.358586 -0.0358586 -0.386869 -0.358586 -0.0358586 -0.358586 -0.358586 -0.0358586 -0.5
-0.348485 -0.0348485 -0.469697 -0.348485 -0.0348485 -0.439394 -0.348485 -0.0348485 -0.409091 -0.348485
-0.0348485 -0.378788 -0.348485 -0.0348485 -0.348485 -0.348485 -0.0348485 -0.5 -0.338384 -0.0338384
-0.467677 -0.338384 -0.0338384 -0.435354 -0.338384 -0.0338384 -0.40303 -0.338384 -0.0338384 -0.370707
-0.338384 -0.0338384 -0.338384 -0.338384 -0.0338384 -0.5 -0.328283 -0.0328283 -0.465657 -0.328283
-0.0328283 -0.431313 -0.328283 -0.0328283 -0.39697 -0.328283 -0.0328283 -0.362626 -0.328283 -0.0328283
-0.328283 -0.328283 -0.0328283 -0.5 -0.318182 -0.0318182 -0.463636 -0.318182 -0.0318182 -0.427273
-0.318182 -0.0318182 -0.390909 -0.318182 -0.0318182 -0.354545 -0.318182 -0.0318182 -0.318182 -0.318182
-0.0318182 -0.5 -0.308081 -0.0308081 -0.461616 -0.308081 -0.0308081 -0.423232 -0.308081 -0.0308081
-0.384848 -0.308081 -0.0308081 -0.346465 -0.308081 -0.0308081 -0.308081 -0.308081 -0.0308081 -0.5
-0.29798 -0.029798 -0.459596 -0.29798 -0.029798 -0.419192 -0.29798 -0.029798 -0.378788 -0.29798
-0.029798 -0.338384 -0.29798 -0.029798 -0.29798 -0.29798 -0.029798 -0.5 -0.287879 -0.0287879
-0.457576 -0.287879 -0.0287879 -0.415152 -0.287879 -0.0287879 -0.372727 -0.287879 -0.0287879 -0.330303
-0.287879 -0.0287879 -0.287879 -0.287879 -0.0287879 -0.5 -0.277778 -0.0277778 -0.455556 -0.277778
-0.0277778 -0.411111 -0.277778 -0.0277778 -0.366667 -0.277778 -0.0277778 -0.322222 -0.277778 -0.0277778
-0.277778 -0.277778 -0.0277778 -0.5 -0.267677 -0.0267677 -0.453535 -0.267677 -0.0267677 -0.407071
-0.267677 -0.0267677 -0.360606 -0.267677 -0.0267677 -0.314141 -0.267677 -0.0267677 -0.267677 -0.267677
-0.0267677 -0.5 -0.257576 -0.0257576 -0.451515 -0.257576 -0.0257576 -0.40303 -0.257576 -0.0257576
-0.354545 -0.257576 -0.0257576 -0.306061 -0.257576 -0.0257576 -0.257576 -0.257576 -0.0257576 -0.5
-0.247475 -0.0247475 -0.449495 -0.247475 -0.0247475 -0.39899 -0.247475 -0.0247475 -0.348485 -0.247475
-0.0247475 -0.29798 -0.247475 -0.0247475 -0.247475 -0.247475 -0.0247475 -0.5 -0.237374 -0.0237374
-0.447475 -0.237374 -0.0237374 -0.394949 -0.237374 -0.0237374 -0.342424 -0.237374 -0.0237374 -0.289899
-0.237374 -0.0237374 -0.237374 -0.237374 -0.0237374 -0.5 -0.227273 -0.0227273 -0.445455 -0.227273
-0.0227273 -0.390909 -0.227273 -0.0227273 -0.336364 -0.227273 -0.0227273 -0.281818 -0.227273 -0.0227273
-0.227273 -0.227273 -0.0227273 -0.5 -0.217172 -0.0217172 -0.443434 -0.217172 -0.0217172 -0.386869
-0.217172 -0.0217172 -0.330303 -0.217172 -0.0217172 -0.273737 -0.217172 -0.0217172 -0.217172 -0.217172
-0.0217172 -0.5 -0.207071 -0.0207071 -0.441414 -0.207071 -0.0207071 -0.382828 -0.207071 -0.0207071
-0.324242 -0.207071 -0.0207071 -0.265657 -0.207071 -0.0207071 -0.207071 -0.207071 -0.0207071 -0.5
-0.19697 -0.019697 -0.439394 -0.19697 -0.019697 -0.378788 -0.19697 -0.019697 -0.318182 -0.19697
-0.019697 -0.257576 -0.19697 -0.019697 -0.19697 -0.19697 -0.019697 -0.5 -0.186869 -0.0186869
-0.437374 -0.186869 -0.0186869 -0.374747 -0.186869 -0.0186869 -0.312121 -0.186869 -0.0186869 -0.249495
-0.186869 -0.0186869 -0.186869 -0.186869 -0.0186869 -0.5 -0.176768 -0.0176768 -0.435354 -0.176768
-0.0176768 -0.370707 -0.176768 -0.0176768 -0.306061 -0.176768 -0.0176768 -0.241414 -0.176768 -0.0176768
-0.176768 -0.176768 -0.0176768 -0.5 -0.166667 -0.0166667 -0.433333 -0.166667 -0.0166667 -0.366667
-0.166667 -0.0166667 -0.3 -0.166667 -0.0166667 -0.233333 -0.166667 -0.0166667 -0.166667 -0.166667
-0.0166667 -0.5 -0.156566 -0.0156566 -0.431313 -0.156566 -0.0156566 -0.362626 -0.156566 -0.0156566
-0.293939 -0.156566 -0.0156566 -0.225253 -0.156566 -0.0156566 -0.156566 -0.156566 -0.0156566 -0.5
-0.146465 -0.0146465 -0.429293 -0.146465 -0.0146465 -0.358586 -0.146465 -0.0146465 -0.287879 -0.146465
-0.0146465 -0.217172 -0.146465 -0.0146465 -0.146465 -0.146465 -0.0146465 -0.5 -0.136364 -0.0136364
-0.427273 -0.136364 -0.0136364 -0.354545 -0.136364 -0.0136364 -0.281818 -0.136364 -0.0136364 -0.209091
-0.136364 -0.0136364 -0.136364 -0.136364 -0.0136364 -0.5 -0.126263 -0.0126263 -0.425253 -0.126263
-0.0126263 -0.350505 -0.126263 -0.0126263 -0.275758 -0.126263 -0.0126263 -0.20101 -0.126263 -0.0126263
-0.126263 -0.126263 -0.0126263 -0.5 -0.116162 -0.0116162 -0.423232 -0.116162 -0.0116162 -0.346465
-0.116162 -0.0116162 -0.269697 -0.116162 -0.0116162 -0.192929 -0.116162 -0.0116162 -0.116162 -0.116162
-0.0116162 -0.5 -0.106061 -0.0106061 -0.421212 -0.106061 -0.0106061 -0.342424 -0.106061 -0.0106061
-0.263636 -0.106061 -0.0106061 -0.184848 -0.106061 -0.0106061 -0.106061 -0.106061 -0.0106061 -0.5
-0.0959596 -0.00959596 -0.419192 -0.0959596 -0.00959596 -0.338384 -0.0959596 -0.00959596 -0.257576 -0.0959596
-0.00959596 -0.176768 -0.0959596 -0.00959596 -0.0959596 -0.0959596 -0.00959596 -0.5 -0.0858586 -0.00858586
-0.417172 -0.0858586 -0.00858586 -0.334343 -0.0858586 -0.00858586 -0.251515 -0.0858586 -0.00858586 -0.168687
-0.0858586 -0.00858586 -0.0858586 -0.0858586 -0.00858586 -0.5 -0.0757576 -0.00757576 -0.415152 -0.0757576
-0.00757576 -0.330303 -0.0757576 -0.00757576 -0.245455 -0.0757576 -0.00757576 -0.160606 -0.0757576 -0.00757576
-0.0757576 -0.0757576 -0.00757576 -0.5 -0.0656566 -0.00656566 -0.413131 -0.0656566 -0.00656566 -0.326263
-0.0656566 -0.00656566 -0.239394 -0.0656566 -0.00656566 -0.152525 -0.0656566 -0.00656566 -0.0656566 -0.0656566
-0.00656566 -0.5 -0.0555556 -0.00555556 -0.411111 -0.0555556 -0.00555556 -0.322222 -0.0555556 -0.00555556
-0.233333 -0.0555556 -0.00555556 -0.144444 -0.0555556 -0.00555556 -0.0555556 -0.0555556 -0.00555556 -0.5
-0.0454545 -0.00454545 -0.409091 -0.0454545 -0.00454545 -0.318182 -0.0454545 -0.00454545 -0.227273 -0.0454545
-0.00454545 -0.136364 -0.0454545 -0.00454545 -0.0454545 -0.0454545 -0.00454545 -0.5 -0.0353535 -0.00353535
-0.407071 -0.0353535 -0.00353535 -0.314141 -0.0353535 -0.00353535 -0.221212 -0.0353535 -0.00353535 -0.128283
-0.0353535 -0.00353535 -0.0353535 -0.0353535 -0.00353535 -0.5 -0.0252525 -0.00252525 -0.405051 -0.0252525
-0.00252525 -0.310101 -0.0252525 -0.00252525 -0.215152 -0.0252525 -0.00252525 -0.120202 -0.0252525 -0.00252525
-0.0252525 -0.0252525 -0.00252525 -0.5 -0.0151515 -0.00151515 -0.40303 -0.0151515 -0.00151515 -0.306061
-0.0151515 -0.00151515 -0.209091 -0.0151515 -0.00151515 -0.112121 -0.0151515 -0.00151515 -0.0151515 -0.0151515
-0.00151515 -0.5 -0.00505051 -0.000505051 -0.40101 -0.00505051 -0.000505051 -0.30202 -0.00505051 -0.000505051
-0.20303 -0.00505051 -0.000505051 -0.10404 -0.00505051 -0.000505051 -0.00505051 -0.00505051 -0.000505051 -0.5
0.00505051 0.000505051 -0.39899 0.00505051 0.000505051 -0.29798 0.00505051 0.000505051 -0.19697 0.00505051
0.000505051 -0.0959596 0.00505051 0.000505051 0.00505051 0.00505051 0.000505051 -0.5 0.0151515 0.00151515
-0.39697 0.0151515 0.00151515 -0.293939 0.0151515 0.00151515 -0.190909 0.0151515 0.00151515 -0.0878788
0.0151515 0.00151515 0.0151515 0.0151515 0.00151515 -0.5 0.0252525 0.00252525 -0.394949 0.0252525
0.00252525 -0.289899 0.0252525 0.00252525 -0.184848 0.0252525 0.00252525 -0.079798 0.0252525 0.00252525
0.0252525 0.0252525 0.00252525 -0.5 0.0353535 0.00353535 -0.392929 0.0353535 0.00353535 -0.285859
0.0353535 0.00353535 -0.178788 0.0353535 0.00353535 -0.0717172 0.0353535 0.00353535 0.0353535 0.0353535
0.00353535 -0.5 0.0454545 0.00454545 -0.390909 0.0454545 0.00454545 -0.281818 0.0454545 0.00454545
[...]
POINT_DATA 600
FIELD attributes 3
age 1 600 float
0 0 0 0 0 0 -0.00231271 -0.00184646 -0.00138208 -0.000919553 -0.000458865
0 -0.00457112 -0.00364236 -0.00272098 -0.00180687 -0.000899915 0 -0.00677752 -0.00538994 -0.00401878
-0.00266364 -0.00132417 0 -0.00893406 -0.00709131 -0.00527739 -0.00349143 -0.00173257 0 -0.0110428
-0.00874843 -0.00649865 -0.0042917 -0.00212599 0 -0.0131055 -0.0103632 -0.00768423 -0.00506581 -0.00250523
0 -0.0151241 -0.0119373 -0.00883574 -0.00581503 -0.00287105 0 -0.0171002 -0.0134724 -0.00995467
-0.00654057 -0.00322416 0 -0.0190355 -0.0149701 -0.0110424 -0.00724353 -0.00356519 0 -0.0209313
-0.0164318 -0.0121003 -0.00792496 -0.00389477 0 -0.0227893 -0.0178589 -0.0131297 -0.00858585 -0.00421345
0 -0.0246106 -0.0192527 -0.0141316 -0.00922711 -0.00452177 0 -0.0263966 -0.0206145 -0.0151072
-0.00984962 -0.00482023 0 -0.0281485 -0.0219455 -0.0160575 -0.0104542 -0.00510929 0 -0.0298675
-0.0232467 -0.0169836 -0.0110416 -0.00538939 0 -0.0315546 -0.0245192 -0.0178864 -0.0116126 -0.00566094
0 -0.0332109 -0.025764 -0.0187667 -0.0121678 -0.00592432 0 -0.0348374 -0.0269821 -0.0196255
-0.0127079 -0.00617991 0 -0.036435 -0.0281745 -0.0204635 -0.0132335 -0.00642803 0 -0.0380047
-0.0293419 -0.0212815 -0.0137452 -0.00666901 0 -0.0395473 -0.0304851 -0.0220802 -0.0142435 -0.00690316
0 -0.0410635 -0.0316051 -0.0228603 -0.014729 -0.00713076 0 -0.0425543 -0.0327025 -0.0236225
-0.0152021 -0.00735209 0 -0.0440203 -0.033778 -0.0243673 -0.0156634 -0.00756739 0 -0.0454623
-0.0348324 -0.0250955 -0.0161132 -0.00777691 0 -0.046881 -0.0358663 -0.0258075 -0.016552 -0.00798089
0 -0.048277 -0.0368803 -0.0265039 -0.0169801 -0.00817953 0 -0.0496509 -0.037875 -0.0271852
-0.0173981 -0.00837305 0 -0.0510035 -0.0388511 -0.027852 -0.0178062 -0.00856164 0 -0.0523351
-0.039809 -0.0285046 -0.0182047 -0.00874548 0 -0.0536465 -0.0407493 -0.0291435 -0.0185941 -0.00892476
0 -0.0549381 -0.0416725 -0.0297692 -0.0189746 -0.00909964 0 -0.0562105 -0.0425791 -0.0303821
-0.0193465 -0.00927029 0 -0.0574641 -0.0434695 -0.0309826 -0.0197101 -0.00943684 0 -0.0586995
-0.0443443 -0.031571 -0.0200658 -0.00959946 0 -0.0599171 -0.0452037 -0.0321478 -0.0204137 -0.00975827
0 -0.0611173 -0.0460484 -0.0327132 -0.020754 -0.00991341 0 -0.0623006 -0.0468786 -0.0332677
-0.0210872 -0.010065 0 -0.0634674 -0.0476948 -0.0338115 -0.0214133 -0.0102132 0 -0.064618
-0.0484972 -0.0343449 -0.0217326 -0.010358 0 -0.0657529 -0.0492864 -0.0348683 -0.0220453 -0.0104997
0 -0.0668725 -0.0500626 -0.0353819 -0.0223516 -0.0106383 0 -0.067977 -0.0508261 -0.035886
-0.0226518 -0.0107738 0 -0.0690669 -0.0515773 -0.0363808 -0.0229459 -0.0109065 0 -0.0701424
-0.0523165 -0.0368667 -0.0232342 -0.0110363 0 -0.071204 -0.053044 -0.0373439 -0.0235168 -0.0111635
0 -0.0722518 -0.05376 -0.0378126 -0.023794 -0.011288 0 -0.0732863 -0.0544649 -0.038273
-0.0240658 -0.0114099 0 -0.0743077 -0.055159 -0.0387253 -0.0243324 -0.0115294 0 -0.0754344
-0.0559606 -0.0392881 -0.0247123 -0.0117647 0 -0.0766741 -0.0568773 -0.0399686 -0.0252126 -0.0121231
0 -0.0779111 -0.0577935 -0.0406514 -0.0257179 -0.0124889 0 -0.079146 -0.0587097 -0.0413368
-0.0262284 -0.0128624 0 -0.0803791 -0.0596263 -0.0420251 -0.0267444 -0.0132437 0 -0.081611
-0.0605437 -0.0427168 -0.0272664 -0.0136332 0 -0.0831098 -0.0617301 -0.0436801 -0.0280622 -0.0140312
0 -0.084619 -0.0629291 -0.0446583 -0.0288755 -0.0144378 0 -0.0861395 -0.0641412 -0.0456522
-0.0297068 -0.0148535 0 -0.0876718 -0.0653672 -0.0466623 -0.0305566 -0.0152784 0 -0.0892167
-0.0666078 -0.0476894 -0.0314256 -0.0157129 0 -0.090775 -0.0678638 -0.0487341 -0.0323145 -0.0161573
0 -0.0923858 -0.0691742 -0.0498356 -0.0332239 -0.0166121 0 -0.094287 -0.070777 -0.0512316
-0.0341546 -0.0170774 0 -0.0962171 -0.0724106 -0.0526607 -0.0351074 -0.0175538 0 -0.0981774
-0.0740763 -0.0541241 -0.036083 -0.0180416 0 -0.100169 -0.0757753 -0.0556229 -0.0370822 -0.0185412
0 -0.102194 -0.077509 -0.0571585 -0.0381059 -0.0190531 0 -0.104253 -0.0792788 -0.0587322
-0.0391551 -0.0195777 0 -0.106347 -0.0810861 -0.0603455 -0.0402306 -0.0201155 0 -0.108479
-0.0829325 -0.0619999 -0.0413336 -0.020667 0 -0.110759 -0.0849287 -0.063697 -0.042465 -0.0212327
0 -0.113363 -0.0872506 -0.0654385 -0.043626 -0.0218132 0 -0.116026 -0.0896341 -0.0672261
-0.0448178 -0.0224091 0 -0.118752 -0.0920815 -0.0690617 -0.0460415 -0.023021 0 -0.121542
-0.0945955 -0.0709473 -0.0472986 -0.0236495 0 -0.124401 -0.0971789 -0.0728848 -0.0485903 -0.0242954
0 -0.12733 -0.0998345 -0.0748766 -0.0499182 -0.0249593 0 -0.130332 -0.102565 -0.0769248
-0.0512837 -0.0256421 0 -0.133411 -0.105375 -0.079032 -0.0526885 -0.0263445 0 -0.136571
-0.108267 -0.0812008 -0.0541344 -0.0270675 0 -0.139815 -0.111244 -0.0834337 -0.0556231 -0.0278118
0 -0.143147 -0.114311 -0.0857339 -0.0571565 -0.0285786 0 -0.146837 -0.117471 -0.0881042
-0.0587368 -0.0293687 0 -0.15091 -0.120729 -0.0905481 -0.0603661 -0.0301834 0 -0.155111
-0.12409 -0.0930689 -0.0620467 -0.0310237 0 -0.159447 -0.127559 -0.0956704 -0.063781 -0.0318909
0 -0.163923 -0.13114 -0.0983565 -0.0655718 -0.0327863 0 -0.168548 -0.13484 -0.101131
-0.0674217 -0.0337113 0 -0.173328 -0.138664 -0.103999 -0.0693339 -0.0346674 0 -0.178271
-0.142619 -0.106966 -0.0713114 -0.0356562 0 -0.183387 -0.146711 -0.110035 -0.0733577 -0.0366794
0 -0.188683 -0.150949 -0.113213 -0.0754764 -0.0377388 0 -0.19417 -0.155339 -0.116506
-0.0776715 -0.0388363 0 -0.199859 -0.15989 -0.119919 -0.0799472 -0.0399742 0 -0.20576
-0.164611 -0.12346 -0.0823079 -0.0411546 0 -0.211886 -0.169512 -0.127136 -0.0847585 -0.0423799
0 -0.21825 -0.174603 -0.130954 -0.0873043 -0.0436529 0 -0.224866 -0.179896 -0.134924
-0.0899509 -0.0449762 0 -0.231749 -0.185403 -0.139054 -0.0927045 -0.046353 0 
p 1 600 float
100003 100003 100003 100003 100003 100003 100003 100003 100003 100003 100003
100003 100003 100003 100003 100003 100003 100003 100003 100003 100003
100003 100003 100003 100003 100003 100003 100003 100003 100003 100003
100003 100003 100003 100003 100003 100003 100003 100003 100003 100003
100003 100003 100003 100003 100003 100003 100003 100003 100003 100003
100003 100003 100003 100003 100003 100003 100003 100003 100003 100002
100002 100002 100002 100002 100002 100002 100002 100002 100002 100002
100002 100002 100002 100002 100002 100002 100002 100002 100002 100002
100002 100002 100002 100002 100002 100002 100002 100002 100002 100002
100002 100002 100002 100002 100002 100002 100002 100002 100002 100002
100002 100002 100002 100002 100002 100002 100002 100002 100002 100002
100002 100002 100002 100002 100002 100002 100002 100002 100002 100002
100002 100002 100002 100002 100002 100002 100002 100002 100002 100002
100002 100002 100002 100002 100002 100002 100002 100002 100002 100002
100002 100002 100002 100002 100002 100002 100002 100002 100002 100002
100002 100002 100002 100002 100002 100002 100002 100002 100002 100002
100002 100001 100001 100001 100001 100001 100001 100001 100001 100001
100001 100001 100001 100001 100001 100001 100001 100001 100001 100001
100001 100001 100001 100001 100001 100001 100001 100001 100001 100001
100001 100001 100001 100001 100001 100001 100001 100001 100001 100001
100001 100001 100001 100001 100001 100001 100001 100001 100001 100001
100001 100001 100001 100001 100001 100001 100001 100001 100001 100001
100001 100001 100001 100001 100001 100001 100001 100001 100001 100001
100001 100001 100001 100001 100001 100001 100001 100001 100001 100001
100001 100001 100001 100001 100001 100001 100001 100001 100001 100001
100001 100001 100001 100001 100001 100001 100001 100001 100001 100001
100001 100001 100001 100001 100001 100001 100001 100001 100001 100000
100000 100000 100000 100000 100000 100000 100000 100000 100000 100000
100000 100000 100000 100000 100000 100000 100000 100000 100000 100000
100000 100000 100000 100000 100000 100000 100000 100000 100000 100000
100000 100000 100000 100000 100000 100000 100000 100000 100000 100000
100000 100000 100000 100000 100000 100000 100000 100000 100000 100000
100000 100000 100000 99999.9 99999.9 99999.9 99999.9 99999.9 99999.9 99999.9
99999.9 99999.9 99999.9 99999.9 99999.9 99999.8 99999.8 99999.8 99999.8 99999.8
99999.8 99999.8 99999.8 99999.8 99999.8 99999.8 99999.8 99999.7 99999.7 99999.7
99999.7 99999.7 99999.7 99999.6 99999.6 99999.6 99999.6 99999.6 99999.6 99999.6
99999.6 99999.6 99999.6 99999.6 99999.6 99999.5 99999.5 99999.5 99999.5 99999.5
99999.5 99999.5 99999.5 99999.5 99999.5 99999.5 99999.5 99999.4 99999.4 99999.4
99999.4 99999.4 99999.4 99999.4 99999.4 99999.4 99999.4 99999.3 99999.3 99999.3
99999.3 99999.3 99999.3 99999.3 99999.3 99999.2 99999.2 99999.2 99999.2 99999.2
99999.2 99999.2 99999.2 99999.2 99999.2 99999.2 99999.2 99999.1 99999.1 99999.1
99999.1 99999.1 99999.1 99999.1 99999.1 99999.1 99999.1 99999 99999 99999
99999 99999 99999 99999 99999 99999 99999 99999 99998.9 99998.9
99998.9 99998.9 99998.9 99998.9 99998.9 99998.9 99998.9 99998.8 99998.8 99998.8
99998.8 99998.8 99998.8 99998.8 99998.8 99998.8 99998.8 99998.8 99998.7 99998.7
99998.7 99998.7 99998.7 99998.7 99998.7 99998.7 99998.7 99998.7 99998.6 99998.6
99998.6 99998.6 99998.6 99998.6 99998.6 99998.6 99998.6 99998.6 99998.6 99998.5
99998.5 99998.5 99998.5 99998.5 99998.5 99998.5 99998.5 99998.5 99998.4 99998.4
99998.4 99998.4 99998.4 99998.4 99998.4 99998.4 99998.4 99998.4 99998.4 99998.3
99998.3 99998.3 99998.3 99998.3 99998.3 99998.3 99998.3 99998.3 99998.3 99998.2
99998.2 99998.2 99998.2 99998.2 99998.2 99998.2 99998.2 99998.2 99998.1 99998.2
99998.1 99998.1 99998.1 99998.1 99998.1 99998.1 99998.1 99998.1 99998.1 99998
99998 99998 99998 99998 99998 99998 99998 99998 99998 99998
99997.9 99997.9 99997.9 99997.9 99997.9 99997.9 99997.9 99997.9 99997.9 99997.9
99997.9 99997.8 99997.8 99997.8 99997.8 99997.8 99997.8 99997.8 99997.8 99997.8
99997.7 99997.8 99997.7 99997.7 99997.7 99997.7 99997.7 99997.7 99997.7 99997.7
99997.6 99997.6 99997.6 99997.6 99997.6 99997.6 99997.6 99997.6 99997.6 99997.6
99997.6 99997.5 99997.5 99997.5 99997.5 99997.5 99997.5 99997.5 99997.5 99997.5
99997.4 99997.5 99997.4 99997.4 99997.4 99997.4 99997.4 99997.4 99997.4 99997.4
99997.4 99997.3 99997.3 99997.4 99997.3 99997.3 99997.3 99997.3 99997.3 
U 3 600 float
4.31546 0 0 4.31546 0 0 4.31546 0 0 4.31546 0
0 4.31546 0 0 4.31546 0 0 4.31546 0 0
4.33289 1.36181e-11 0 4.35032 2.72363e-11 0 4.36775 4.08544e-11 0 4.38518
5.44725e-11 0 4.40261 6.80907e-11 0 4.31546 0 0 4.35032 2.72363e-11
0 4.38518 5.44725e-11 0 4.42004 8.17088e-11 0 4.4549 1.08945e-10 0
4.48976 1.36181e-10 0 4.31546 0 0 4.36775 4.08544e-11 0 4.42004
8.17088e-11 0 4.47233 1.22563e-10 0 4.52462 1.63418e-10 0 4.57691 2.04272e-10
0 4.31546 0 0 4.38518 5.44725e-11 0 4.4549 1.08945e-10 0
4.52462 1.63418e-10 0 4.59434 2.1789e-10 0 4.66406 2.72363e-10 0 4.31546
0 0 4.40261 6.80907e-11 0 4.48976 1.36181e-10 0 4.57691 2.04272e-10
0 4.66406 2.72363e-10 0 4.75121 3.40453e-10 0 4.31546 0 0
4.42004 8.17088e-11 0 4.52462 1.63418e-10 0 4.6292 2.45126e-10 0 4.73378
3.26835e-10 0 4.83836 4.08544e-10 0 4.31546 0 0 4.43747 9.5327e-11
0 4.55948 1.90654e-10 0 4.68149 2.85981e-10 0 4.8035 3.81308e-10 0
4.92551 4.76635e-10 0 4.31546 0 0 4.4549 1.08945e-10 0 4.59434
2.1789e-10 0 4.73378 3.26835e-10 0 4.87322 4.3578e-10 0 5.01267 5.44725e-10
0 4.31546 0 0 4.47233 1.22563e-10 0 4.6292 2.45126e-10 0
4.78607 3.6769e-10 0 4.94295 4.90253e-10 0 5.09982 6.12816e-10 0 4.31546
0 0 4.48976 1.36181e-10 0 4.66406 2.72363e-10 0 4.83836 4.08544e-10
0 5.01267 5.44725e-10 0 5.18697 6.80907e-10 0 4.31546 0 0
4.50719 1.498e-10 0 4.69892 2.99599e-10 0 4.89065 4.49399e-10 0 5.08239
5.99198e-10 0 5.27412 7.48998e-10 0 4.31546 0 0 4.52462 1.63418e-10
0 4.73378 3.26835e-10 0 4.94295 4.90253e-10 0 5.15211 6.53671e-10 0
5.36127 8.17088e-10 0 4.31546 0 0 4.54205 1.77036e-10 0 4.76864
3.54072e-10 0 4.99524 5.31107e-10 0 5.22183 7.08143e-10 0 5.44842 8.85179e-10
0 4.31546 0 0 4.55948 1.90654e-10 0 4.8035 3.81308e-10 0
5.04753 5.71962e-10 0 5.29155 7.62616e-10 0 5.53557 9.5327e-10 0 4.31546
0 0 4.57691 2.04272e-10 0 4.83836 4.08544e-10 0 5.09982 6.12816e-10
0 5.36127 8.17088e-10 0 5.62272 1.02136e-09 0 4.31546 0 0
4.59434 2.1789e-10 0 4.87322 4.3578e-10 0 5.15211 6.53671e-10 0 5.43099
8.71561e-10 0 5.70987 1.08945e-09 0 4.31546 0 0 4.61177 2.31508e-10
0 4.90808 4.63017e-10 0 5.2044 6.94525e-10 0 5.50071 9.26033e-10 0
5.79702 1.15754e-09 0 4.31546 0 0 4.6292 2.45126e-10 0 4.94295
4.90253e-10 0 5.25669 7.35379e-10 0 5.57043 9.80506e-10 0 5.88417 1.22563e-09
0 4.31546 0 0 4.64663 2.58745e-10 0 4.97781 5.17489e-10 0
5.30898 7.76234e-10 0 5.64015 1.03498e-09 0 5.97132 1.29372e-09 0 4.31546
0 0 4.66406 2.72363e-10 0 5.01267 5.44725e-10 0 5.36127 8.17088e-10
0 5.70987 1.08945e-09 0 6.05848 1.36181e-09 0 4.31546 0 0
4.68149 2.85981e-10 0 5.04753 5.71962e-10 0 5.41356 8.57943e-10 0 5.77959
1.14392e-09 0 6.14563 1.4299e-09 0 4.31546 0 0 4.69892 2.99599e-10
0 5.08239 5.99198e-10 0 5.46585 8.98797e-10 0 5.84931 1.1984e-09 0
6.23278 1.498e-09 0 4.31546 0 0 4.71635 3.13217e-10 0 5.11725
6.26434e-10 0 5.51814 9.39651e-10 0 5.91903 1.25287e-09 0 6.31993 1.56609e-09
0 4.31546 0 0 4.73378 3.26835e-10 0 5.15211 6.53671e-10 0
5.57043 9.80506e-10 0 5.98875 1.30734e-09 0 6.40708 1.63418e-09 0 4.31546
0 0 4.75121 3.40453e-10 0 5.18697 6.80907e-10 0 5.62272 1.02136e-09
0 6.05848 1.36181e-09 0 6.49423 1.70227e-09 0 4.31546 0 0
4.76864 3.54072e-10 0 5.22183 7.08143e-10 0 5.67501 1.06221e-09 0 6.1282
1.41629e-09 0 6.58138 1.77036e-09 0 4.31546 0 0 4.78607 3.6769e-10
0 5.25669 7.35379e-10 0 5.7273 1.10307e-09 0 6.19792 1.47076e-09 0
6.66853 1.83845e-09 0 4.31546 0 0 4.8035 3.81308e-10 0 5.29155
7.62616e-10 0 5.77959 1.14392e-09 0 6.26764 1.52523e-09 0 6.75568 1.90654e-09
0 4.31546 0 0 4.82093 3.94926e-10 0 5.32641 7.89852e-10 0
5.83188 1.18478e-09 0 6.33736 1.5797e-09 0 6.84283 1.97463e-09 0 4.31546
0 0 4.83836 4.08544e-10 0 5.36127 8.17088e-10 0 5.88417 1.22563e-09
0 6.40708 1.63418e-09 0 6.92998 2.04272e-09 0 4.31546 0 0
4.85579 4.22162e-10 0 5.39613 8.44324e-10 0 5.93646 1.26649e-09 0 6.4768
1.68865e-09 0 7.01713 2.11081e-09 0 4.31546 0 0 4.87322 4.3578e-10
0 5.43099 8.71561e-10 0 5.98875 1.30734e-09 0 6.54652 1.74312e-09 0
7.10428 2.1789e-09 0 4.31546 0 0 4.89065 4.49399e-10 0 5.46585
8.98797e-10 0 6.04105 1.3482e-09 0 6.61624 1.79759e-09 0 7.19144 2.24699e-09
0 4.31546 0 0 4.90808 4.63017e-10 0 5.50071 9.26033e-10 0
6.09334 1.38905e-09 0 6.68596 1.85207e-09 0 7.27859 2.31508e-09 0 4.31546
0 0 4.92551 4.76635e-10 0 5.53557 9.5327e-10 0 6.14563 1.4299e-09
0 6.75568 1.90654e-09 0 7.36574 2.38317e-09 0 4.31546 0 0
4.94295 4.90253e-10 0 5.57043 9.80506e-10 0 6.19792 1.47076e-09 0 6.8254
1.96101e-09 0 7.45289 2.45126e-09 0 4.31546 0 0 4.96038 5.03871e-10
0 5.60529 1.00774e-09 0 6.25021 1.51161e-09 0 6.89512 2.01548e-09 0
7.54004 2.51936e-09 0 4.31546 0 0 4.97781 5.17489e-10 0 5.64015
1.03498e-09 0 6.3025 1.55247e-09 0 6.96484 2.06996e-09 0 7.62719 2.58745e-09
0 4.31546 0 0 4.99524 5.31107e-10 0 5.67501 1.06221e-09 0
6.35479 1.59332e-09 0 7.03456 2.12443e-09 0 7.71434 2.65554e-09 0 4.31546
0 0 5.01267 5.44725e-10 0 5.70987 1.08945e-09 0 6.40708 1.63418e-09
0 7.10428 2.1789e-09 0 7.80149 2.72363e-09 0 4.31546 0 0
5.0301 5.58344e-10 0 5.74473 1.11669e-09 0 6.45937 1.67503e-09 0 7.17401
2.23337e-09 0 7.88864 2.79172e-09 0 4.31546 0 0 5.04753 5.71962e-10
0 5.77959 1.14392e-09 0 6.51166 1.71589e-09 0 7.24373 2.28785e-09 0
7.97579 2.85981e-09 0 4.31546 0 0 5.06496 5.8558e-10 0 5.81445
1.17116e-09 0 6.56395 1.75674e-09 0 7.31345 2.34232e-09 0 8.06294 2.9279e-09
0 4.31546 0 0 5.08239 5.99198e-10 0 5.84931 1.1984e-09 0
6.61624 1.79759e-09 0 7.38317 2.39679e-09 0 8.15009 2.99599e-09 0 4.31546
0 0 5.09982 6.12816e-10 0 5.88417 1.22563e-09 0 6.66853 1.83845e-09
0 7.45289 2.45126e-09 0 8.23725 3.06408e-09 0 4.31546 0 0
5.11725 6.26434e-10 0 5.91903 1.25287e-09 0 6.72082 1.8793e-09 0 7.52261
2.50574e-09 0 8.3244 3.13217e-09 0 4.31546 0 0 5.13468 6.40052e-10
0 5.95389 1.2801e-09 0 6.77311 1.92016e-09 0 7.59233 2.56021e-09 0
8.41155 3.20026e-09 0 4.31546 0 0 5.15211 6.53671e-10 0 5.98875
1.30734e-09 0 6.8254 1.96101e-09 0 7.66205 2.61468e-09 0 8.4987 3.26835e-09
0 4.31546 0 0 5.16954 6.67289e-10 0 6.02361 1.33458e-09 0
6.87769 2.00187e-09 0 7.73177 2.66915e-09 0 8.58585 3.33644e-09 0 4.31546
0 0 5.18697 6.80907e-10 0 6.05848 1.36181e-09 0 6.92998 2.04272e-09
0 7.80149 2.72363e-09 0 8.58584 3.35347e-09 0 4.31546 0 0
5.2044 6.94525e-10 0 6.09334 1.38905e-09 0 6.98227 2.08357e-09 0 7.87121
2.7781e-09 0 8.49868 3.31942e-09 0 4.31546 0 0 5.22183 7.08143e-10
0 6.1282 1.41629e-09 0 7.03456 2.12443e-09 0 7.94093 2.83257e-09 0
8.41151 3.28538e-09 0 4.31546 0 0 5.23926 7.21761e-10 0 6.16306
1.44352e-09 0 7.08685 2.16528e-09 0 8.01065 2.88705e-09 0 8.32434 3.25133e-09
0 4.31546 0 0 5.25669 7.35379e-10 0 6.19792 1.47076e-09 0
7.13915 2.20614e-09 0 8.08037 2.94152e-09 0 8.23718 3.21728e-09 0 4.31546
0 0 5.27412 7.48998e-10 0 6.23278 1.498e-09 0 7.19144 2.24699e-09
0 8.15009 2.99599e-09 0 8.15001 3.18324e-09 0 4.31546 0 0
5.29155 7.62616e-10 0 6.26764 1.52523e-09 0 7.24373 2.28785e-09 0 8.06293
2.95854e-09 0 8.06285 3.14919e-09 0 4.31546 0 0 5.30898 7.76234e-10
0 6.3025 1.55247e-09 0 7.29602 2.3287e-09 0 7.97577 2.92109e-09 0
7.97568 3.11515e-09 0 4.31546 0 0 5.32641 7.89852e-10 0 6.33736
1.5797e-09 0 7.34831 2.36956e-09 0 7.8886 2.88364e-09 0 7.88851 3.0811e-09
0 4.31546 0 0 5.34384 8.0347e-10 0 6.37222 1.60694e-09 0
7.4006 2.41041e-09 0 7.80144 2.84619e-09 0 7.80135 3.04706e-09 0 4.31546
0 0 5.36127 8.17088e-10 0 6.40708 1.63418e-09 0 7.45289 2.45126e-09
0 7.71427 2.80874e-09 0 7.71418 3.01301e-09 0 4.31546 0 0
5.3787 8.30706e-10 0 6.44194 1.66141e-09 0 7.50518 2.49212e-09 0 7.62711
2.77129e-09 0 7.62702 2.97897e-09 0 4.31546 0 0 5.39613 8.44324e-10
0 6.4768 1.68865e-09 0 7.54004 2.52276e-09 0 7.53994 2.73384e-09 0
7.53985 2.94492e-09 0 4.31546 0 0 5.41356 8.57943e-10 0 6.51166
1.71589e-09 0 7.45287 2.48191e-09 0 7.45278 2.69639e-09 0 7.45268 2.91088e-09
0 4.31546 0 0 5.43099 8.71561e-10 0 6.54652 1.74312e-09 0
7.36571 2.44105e-09 0 7.36561 2.65894e-09 0 7.36552 2.87683e-09 0 4.31546
0 0 5.44842 8.85179e-10 0 6.58138 1.77036e-09 0 7.27855 2.4002e-09
0 7.27845 2.62149e-09 0 7.27835 2.84279e-09 0 4.31546 0 0
5.46585 8.98797e-10 0 6.61624 1.79759e-09 0 7.19139 2.35934e-09 0 7.19129
2.58404e-09 0 7.19119 2.80874e-09 0 4.31546 0 0 5.48328 9.12415e-10
0 6.6511 1.82483e-09 0 7.10422 2.31849e-09 0 7.10412 2.54659e-09 0
7.10402 2.7747e-09 0 4.31546 0 0 5.50071 9.26033e-10 0 6.68596
1.85207e-09 0 7.01706 2.27763e-09 0 7.01696 2.50914e-09 0 7.01685 2.74065e-09
0 4.31546 0 0 5.51814 9.39651e-10 0 6.72082 1.8793e-09 0
6.9299 2.23678e-09 0 6.92979 2.47169e-09 0 6.92969 2.7066e-09 0 4.31546
0 0 5.53557 9.5327e-10 0 6.75568 1.90654e-09 0 6.84273 2.19592e-09
0 6.84263 2.43424e-09 0 6.84252 2.67256e-09 0 4.31546 0 0
5.553 9.66888e-10 0 6.75568 1.91335e-09 0 6.75557 2.15507e-09 0 6.75546
2.39679e-09 0 6.75536 2.63851e-09 0 4.31546 0 0 5.57043 9.80506e-10
0 6.66852 1.86909e-09 0 6.66841 2.11422e-09 0 6.6683 2.35934e-09 0
6.66819 2.60447e-09 0 4.31546 0 0 5.58786 9.94124e-10 0 6.58136
1.82483e-09 0 6.58125 2.07336e-09 0 6.58114 2.32189e-09 0 6.58103 2.57042e-09
0 4.31546 0 0 5.60529 1.00774e-09 0 6.49419 1.78057e-09 0
6.49408 2.03251e-09 0 6.49397 2.28444e-09 0 6.49386 2.53638e-09 0 4.31546
0 0 5.62272 1.02136e-09 0 6.40703 1.73631e-09 0 6.40692 1.99165e-09
0 6.40681 2.24699e-09 0 6.40669 2.50233e-09 0 4.31546 0 0
5.64015 1.03498e-09 0 6.31987 1.69205e-09 0 6.31976 1.9508e-09 0 6.31964
2.20954e-09 0 6.31953 2.46829e-09 0 4.31546 0 0 5.65758 1.0486e-09
0 6.23271 1.64779e-09 0 6.23259 1.90994e-09 0 6.23248 2.17209e-09 0
6.23236 2.43424e-09 0 4.31546 0 0 5.67501 1.06221e-09 0 6.14555
1.60354e-09 0 6.14543 1.86909e-09 0 6.14531 2.13464e-09 0 6.1452 2.4002e-09
0 4.31546 0 0 5.69244 1.07583e-09 0 6.05839 1.55928e-09 0
6.05827 1.82823e-09 0 6.05815 2.09719e-09 0 6.05803 2.36615e-09 0 4.31546
0 0 5.70987 1.08945e-09 0 5.97123 1.51502e-09 0 5.97111 1.78738e-09
0 5.97098 2.05974e-09 0 5.97086 2.33211e-09 0 4.31546 0 0
5.7273 1.10307e-09 0 5.88407 1.47076e-09 0 5.88394 1.74653e-09 0 5.88382