/*--------------------------------*- C++ -*----------------------------------*\
  =========                 |
  \\      /  F ield         | OpenFOAM: The Open Source CFD Toolbox
   \\    /   O peration     | Website:  https://openfoam.org
    \\  /    A nd           | Version:  12
     \\/     M anipulation  |
\*---------------------------------------------------------------------------*/
FoamFile
{
    format      ascii;
    class       volScalarField;
    location    "0.06";
    object      epsilon;
}
// * * * * * * * * * * * * * * * * * * * * * * * * * * * * * * * * * * * * * //

dimensions      [0 2 -3 0 0 0 0];

internalField   nonuniform List<scalar> 
12225
(
278.515
263.66
249.434
236.839
226.739
219.486
215.074
213.271
213.719
216.011
219.744
224.549
230.108
236.161
242.512
249.005
255.745
265.637
61.116
86.6965
97.9945
107.214
118.476
132.576
149.443
168.662
189.655
211.797
234.504
257.272
279.709
301.54
322.737
343.119
364.909
385.131
25.2776
36.1833
43.3826
48.6232
53.3899
58.3424
63.7807
69.8416
76.551
83.8619
91.686
99.9171
108.449
117.192
126.098
135.171
144.61
154.637
17.5217
21.2987
24.7148
27.6108
30.1635
32.5427
34.8708
37.2343
39.6868
42.2552
44.9479
47.7616
50.6876
53.7176
56.85
60.1056
63.5158
67.1884
15.4878
16.752
18.186
19.5893
20.9102
22.1502
23.3283
24.4681
25.5908
26.7116
27.8408
28.9845
30.1464
31.3297
32.5383
33.782
35.0705
36.4192
14.9084
15.2396
15.7464
16.3342
16.948
17.5595
18.1568
18.737
19.3023
19.8557
20.4007
20.9402
21.4765
22.0122
22.5498
23.0933
23.6462
24.2068
14.7451
14.7391
14.8342
15.0037
15.2217
15.4682
15.729
15.9955
16.263
16.529
16.7925
17.0532
17.3113
17.5674
17.8224
18.0775
18.3339
18.5883
14.7013
14.5825
14.5116
14.4858
14.4982
14.5404
14.6045
14.684
14.7742
14.8715
14.9736
15.0788
15.186
15.2947
15.4046
15.5157
15.628
15.739
14.6901
14.5373
14.407
14.3008
14.2182
14.1571
14.1146
14.0876
14.0734
14.0695
14.074
14.0851
14.1017
14.1227
14.1476
14.1757
14.2067
14.2389
14.6874
14.5252
14.3761
14.2411
14.1204
14.0137
13.9203
13.8391
13.7688
13.7084
13.6565
13.6121
13.5744
13.5425
13.5157
13.4935
13.4754
13.4606
14.6868
14.5221
14.3677
14.2236
14.0896
13.9655
13.8511
13.7459
13.6494
13.561
13.4801
13.406
13.3384
13.2765
13.22
13.1684
13.1213
13.0786
14.6866
14.5213
14.3656
14.219
14.0812
13.9518
13.8305
13.7168
13.6104
13.511
13.4181
13.3313
13.2503
13.1747
13.1041
13.0383
12.9769
12.9201
14.6865
14.521
14.3648
14.2175
14.0785
13.9472
13.8234
13.7065
13.5962
13.4922
13.394
13.3014
13.2142
13.1319
13.0543
12.9811
12.9122
12.8479
14.6864
14.5208
14.3645
14.2169
14.0774
13.9456
13.8209
13.7029
13.5912
13.4854
13.3853
13.2904
13.2004
13.1152
13.0345
12.9579
12.8854
12.8174
14.6864
14.5207
14.3643
14.2165
14.0769
13.9449
13.8199
13.7016
13.5895
13.4832
13.3824
13.2868
13.196
13.1098
13.028
12.9502
12.8764
12.807
14.6863
14.5206
14.3641
14.2163
14.0766
13.9444
13.8194
13.7009
13.5886
13.4822
13.3812
13.2854
13.1944
13.1079
13.0258
12.9476
12.8734
12.8036
14.6863
14.5205
14.364
14.2161
14.0763
13.9441
13.8189
13.7004
13.5881
13.4816
13.3805
13.2846
13.1935
13.1069
13.0246
12.9464
12.872
12.802
14.6863
14.5204
14.3639
14.216
14.0761
13.9439
13.8187
13.7001
13.5877
13.4811
13.38
13.284
13.1928
13.1062
13.0238
12.9455
12.871
12.8009
14.6863
14.5204
14.3639
14.2159
14.0761
13.9438
13.8186
13.7
13.5875
13.4809
13.3798
13.2838
13.1925
13.1059
13.0235
12.9451
12.8706
12.8004
14.6863
14.5205
14.3639
14.216
14.0762
13.9439
13.8187
13.7001
13.5878
13.4812
13.3801
13.2841
13.1929
13.1062
13.0238
12.9455
12.871
12.8009
14.6863
14.5205
14.364
14.2162
14.0764
13.9443
13.8192
13.7007
13.5885
13.4821
13.3812
13.2855
13.1946
13.1083
13.0263
12.9484
12.8744
12.8047
14.6863
14.5206
14.3643
14.2167
14.0773
13.9457
13.8214
13.7039
13.5929
13.4879
13.3887
13.2948
13.206
13.1219
13.0424
12.967
12.8957
12.829
14.6865
14.5212
14.3659
14.2202
14.0837
13.9561
13.8368
13.7256
13.6218
13.525
13.4348
13.3506
13.272
13.1987
13.1301
13.066
13.006
12.9506
14.6876
14.5264
14.3793
14.2467
14.1282
14.0231
13.9302
13.8484
13.7762
13.7126
13.6564
13.6067
13.5627
13.5236
13.4889
13.458
13.4304
13.4064
14.6976
14.5664
14.4707
14.4075
14.3714
14.3568
14.3584
14.3719
14.394
14.4222
14.4548
14.4905
14.5283
14.5676
14.608
14.6491
14.6907
14.7326
14.7737
14.8186
14.9602
15.1591
15.3862
15.6232
15.8595
16.0901
16.313
16.5279
16.7352
16.9357
17.1304
17.32
17.5053
17.6869
17.8652
18.04
15.2587
16.1151
17.0711
17.9726
18.7876
19.5234
20.1939
20.8141
21.3978
21.9561
22.4972
23.0272
23.5505
24.07
24.5873
25.1034
25.6183
26.1298
18.0414
22.0078
24.9884
27.1529
28.8878
30.404
31.8112
33.1767
34.5415
35.9281
37.3475
38.8037
40.2956
41.8194
43.3695
44.9395
46.5228
48.1066
34.024
45.6876
51.3762
54.9413
58.0791
61.2953
64.747
68.478
72.4722
76.6868
81.0715
85.5766
90.1556
94.7668
99.3745
103.95
108.477
112.93
163.308
157.417
151.704
146.261
141.3
136.947
133.249
130.206
127.78
125.917
124.556
123.634
123.09
122.866
122.911
123.18
123.633
124.232
20.3479
7.14323
8.3099
8.77484
37.6841
37.9581
39.335
40.4298
40.9794
40.9551
40.3798
39.2864
37.7412
8.90036
8.93617
8.93245
8.84753
8.85056
8.86334
8.97246
8.99971
38.5187
9.08692
38.9238
42.0726
47.7981
55.8478
65.3813
76.7451
90.502
106.757
125.254
145.567
167.236
189.834
212.989
236.385
259.761
282.909
305.667
327.918
349.585
370.624
391.02
410.782
429.937
448.52
466.577
484.159
501.314
518.093
534.544
550.711
566.637
582.36
597.913
613.329
628.634
643.853
659.007
674.114
689.189
704.244
719.29
734.334
749.38
764.432
779.489
794.549
809.61
824.666
839.708
854.728
869.716
884.66
899.545
914.359
929.087
943.713
958.22
972.587
986.82
1000.91
1014.72
1028.18
1041.27
1053.99
1066.31
1078.2
1089.65
1100.64
1111.14
1121.13
1130.6
1139.53
1147.91
1155.72
1162.94
1169.58
1175.61
1181.04
1185.85
1190.03
1193.58
1196.48
1198.74
1200.37
1201.4
1201.85
1201.76
1201.16
1200.05
1198.48
1196.46
1194
1191.15
1187.9
1184.3
1180.35
1176.08
1171.5
1166.63
1161.47
1156.04
1150.34
1144.37
1138.12
1131.57
1124.72
1117.53
1109.97
1102
1093.57
1084.61
1075.05
1064.82
1053.81
1041.91
1029
1014.95
999.601
982.8
964.372
944.157
922.022
897.948
872.399
848.26
834.09
826.711
817.956
806.826
793.085
776.681
757.681
736.251
712.644
687.186
660.255
632.26
603.617
574.731
545.977
517.686
490.138
463.553
438.096
413.871
390.864
368.854
347.557
327.243
307.918
289.396
271.62
254.546
238.102
222.037
206.261
189.086
29.5843
22.7777
21.7835
21.8732
22.5761
22.7139
22.6698
22.5069
22.2625
21.9648
21.6313
21.2639
20.806
19.7996
18.8307
18.219
18.1735
18.1145
18.4752
19.4099
22.4734
27.9022
34.0125
43.69
53.1727
62.7058
72.319
81.8888
91.3875
100.845
110.249
119.545
128.67
137.584
146.273
154.743
163.013
171.098
179.016
186.778
194.395
201.873
209.22
216.443
223.55
230.549
237.449
244.258
250.987
257.643
264.238
270.778
277.272
283.729
290.155
296.557
302.941
309.312
315.676
322.036
328.395
334.756
341.122
347.494
353.872
360.257
366.648
373.045
379.445
385.845
392.244
398.638
405.022
411.392
417.742
424.067
430.36
436.612
442.816
448.959
455.056
461.129
467.147
473.063
478.857
484.516
490.028
495.384
500.573
505.584
510.407
515.033
519.451
523.653
527.628
531.369
534.866
538.113
541.101
543.824
546.275
548.448
550.337
551.936
553.243
554.257
554.982
555.423
555.589
555.488
555.127
554.516
553.662
552.575
551.262
549.734
548.001
546.074
543.963
541.679
539.233
536.635
533.895
531.021
528.021
524.903
521.671
518.328
514.875
511.312
507.635
503.835
499.903
495.823
491.577
487.141
482.485
477.576
472.373
466.83
460.895
454.511
447.621
440.173
432.137
423.546
414.59
405.884
398.6
391.548
383.689
374.799
364.827
353.789
341.743
328.785
315.045
300.679
285.863
270.782
255.624
240.569
225.782
211.41
197.575
184.376
171.887
160.159
149.219
139.096
129.891
122.117
116.07
111.104
107.065
103.922
101.733
100.749
101.365
106.136
42.0242
31.0228
27.6447
25.7795
24.4789
23.4756
22.6625
21.9757
21.3811
20.8656
20.4289
20.0787
19.8305
19.6892
19.6732
19.851
20.3571
21.3798
23.3122
26.6577
32.0515
39.9186
49.076
58.7929
68.1009
76.6232
84.317
91.3009
97.7787
103.959
109.998
115.984
121.958
127.936
133.922
139.912
145.897
151.866
157.805
163.7
169.541
175.318
181.028
186.666
192.235
197.737
203.174
208.552
213.876
219.152
224.386
229.583
234.748
239.888
245.007
250.11
255.201
260.284
265.363
270.44
275.519
280.601
285.689
290.784
295.887
300.998
306.117
311.243
316.377
321.516
326.659
331.803
336.945
342.083
347.212
352.328
357.426
362.501
367.551
372.579
377.571
382.521
387.415
392.239
396.981
401.63
406.176
410.611
414.924
419.106
423.149
427.043
430.779
434.35
437.745
440.958
443.98
446.804
449.422
451.828
454.015
455.979
457.713
459.214
460.479
461.506
462.294
462.846
463.164
463.253
463.117
462.76
462.188
461.407
460.422
459.242
457.873
456.324
454.605
452.723
450.689
448.513
446.203
443.77
441.223
438.569
435.818
432.976
430.049
427.041
423.955
420.792
417.549
414.222
410.804
407.282
403.641
399.861
395.917
391.779
387.411
382.774
377.822
372.514
366.809
360.709
354.26
347.793
341.307
334.39
326.73
318.21
308.795
298.495
287.358
275.46
262.911
249.844
236.409
222.769
209.089
195.526
182.23
169.329
156.934
145.132
133.99
123.55
113.843
104.889
96.7005
89.2955
82.7356
77.0723
72.1923
68.0616
64.6862
62.1594
60.714
61.1574
52.8602
36.0948
30.8051
28.1145
26.3725
25.0923
24.0808
23.2479
22.553
21.9835
21.5462
21.2653
21.1859
21.3204
21.7245
22.5019
23.8369
26.041
29.6089
34.861
41.8664
50.2876
59.2595
67.9369
75.7431
82.5044
88.3514
93.5636
98.4415
103.224
108.059
113.012
118.097
123.303
128.607
133.983
139.407
144.858
150.315
155.762
161.186
166.574
171.921
177.22
182.47
187.669
192.818
197.92
202.976
207.99
212.966
217.909
222.822
227.71
232.577
237.428
242.267
247.097
251.922
256.746
261.571
266.401
271.237
276.082
280.936
285.801
290.678
295.566
300.466
305.377
310.298
315.227
320.161
325.1
330.038
334.974
339.902
344.821
349.723
354.603
359.452
364.263
369.027
373.733
378.373
382.936
387.413
391.795
396.073
400.237
404.278
408.187
411.954
415.571
419.029
422.319
425.434
428.364
431.104
433.645
435.982
438.108
440.018
441.709
443.176
444.417
445.43
446.214
446.77
447.1
447.207
447.093
446.762
446.22
445.47
444.519
443.373
442.04
440.527
438.843
436.997
434.999
432.857
430.582
428.183
425.67
423.051
420.335
417.529
414.642
411.676
408.637
405.525
402.339
399.076
395.729
392.288
388.736
385.055
381.221
377.201
372.961
368.458
363.645
358.468
352.946
347.118
340.984
334.45
327.323
319.45
310.752
301.201
290.801
279.593
267.649
255.072
241.99
228.55
214.911
201.235
187.681
174.396
161.509
149.131
137.349
126.229
115.814
106.133
97.1954
88.9965
81.5167
74.7431
68.6901
63.3303
58.6271
54.5635
51.1623
48.5004
46.8133
63.2221
40.7604
33.9209
30.6359
28.6277
27.2142
26.1311
25.2632
24.5637
24.0241
23.6644
23.5325
23.6496
24.0762
24.9175
26.3325
28.5139
31.7309
36.2471
42.1545
49.246
57.0101
64.7675
71.9447
78.2466
83.6788
88.4516
92.8491
97.1268
101.461
105.942
110.6
115.426
120.399
125.491
130.678
135.936
141.246
146.588
151.948
157.311
162.666
168.004
173.316
178.597
183.842
189.051
194.22
199.352
204.446
209.506
214.533
219.531
224.504
229.456
234.391
239.312
244.224
249.131
254.036
258.944
263.856
268.776
273.706
278.649
283.606
288.578
293.567
298.572
303.595
308.633
313.686
318.753
323.831
328.918
334.01
339.103
344.191
349.267
354.326
359.36
364.362
369.324
374.236
379.09
383.877
388.586
393.208
397.733
402.153
406.456
410.632
414.673
418.569
422.31
425.886
429.29
432.512
435.545
438.381
441.012
443.434
445.64
447.624
449.383
450.914
452.212
453.276
454.106
454.702
455.065
455.196
455.1
454.779
454.237
453.48
452.513
451.343
449.977
448.424
446.69
444.786
442.721
440.505
438.145
435.653
433.038
430.307
427.47
424.535
421.506
418.389
415.185
411.895
408.516
405.046
401.473
397.782
393.958
389.982
385.814
381.428
376.781
371.809
366.54
360.917
354.908
348.457
341.473
333.838
325.452
316.258
306.228
295.369
283.72
271.351
258.364
244.886
231.063
217.056
203.025
189.131
175.52
162.321
149.645
137.579
126.188
115.515
105.587
96.4104
87.9759
80.2604
73.2371
66.8877
61.1967
56.1289
51.6573
47.7741
44.489
41.8583
73.2828
45.5266
37.3688
33.6002
31.3894
29.8922
28.7846
27.9293
27.2736
26.813
26.5809
26.6296
26.9755
27.7056
28.9366
30.8166
33.5126
37.1829
41.9099
47.6128
54.0038
60.6418
67.0666
72.9507
78.179
82.8305
87.0979
91.1966
95.3013
99.5221
103.91
108.477
113.212
118.097
123.111
128.235
133.453
138.746
144.101
149.501
154.934
160.386
165.846
171.305
176.752
182.183
187.59
192.971
198.323
203.645
208.937
214.201
219.439
224.653
229.847
235.024
240.189
245.344
250.495
255.645
260.798
265.957
271.127
276.309
281.508
286.724
291.959
297.216
302.495
307.797
313.121
318.467
323.834
329.22
334.622
340.035
345.452
350.87
356.282
361.682
367.063
372.417
377.737
383.012
388.235
393.395
398.482
403.486
408.396
413.203
417.896
422.463
426.895
431.18
435.309
439.272
443.059
446.66
450.068
453.273
456.268
459.046
461.601
463.926
466.016
467.868
469.476
470.839
471.954
472.82
473.439
473.81
473.937
473.821
473.465
472.876
472.056
471.013
469.753
468.283
466.611
464.746
462.696
460.47
458.078
455.528
452.829
449.99
447.018
443.923
440.709
437.379
433.936
430.378
426.705
422.915
418.996
414.93
410.702
406.301
401.678
396.805
391.682
386.247
380.468
374.298
367.683
360.559
352.846
344.461
335.333
325.414
314.685
303.158
290.873
277.903
264.351
250.346
236.034
221.574
207.127
192.849
178.884
165.357
152.373
140.018
128.351
117.414
107.23
97.8028
89.122
81.1648
73.9022
67.3056
61.3513
56.0072
51.2422
47.0338
43.3641
40.2281
83.0228
50.4645
41.1709
36.9891
34.6143
33.065
31.9657
31.1588
30.5854
30.242
30.1633
30.3461
30.8577
31.7855
33.2342
35.3185
38.1445
41.7771
46.1971
51.2651
56.7251
62.2622
67.5939
72.549
77.0961
81.3174
85.3521
89.3414
93.3945
97.5784
101.924
106.439
111.117
115.948
120.921
126.021
131.238
136.557
141.967
147.452
153
158.597
164.23
169.886
175.556
181.229
186.898
192.556
198.198
203.822
209.426
215.008
220.57
226.113
231.64
237.153
242.656
248.152
253.646
259.141
264.641
270.151
275.674
281.213
286.772
292.352
297.957
303.589
309.247
314.935
320.651
326.395
332.167
337.965
343.783
349.616
355.458
361.305
367.152
372.992
378.816
384.619
390.39
396.12
401.8
407.42
412.969
418.435
423.808
429.076
434.228
439.252
444.137
448.871
453.443
457.842
462.058
466.081
469.901
473.509
476.896
480.055
482.977
485.657
488.089
490.266
492.185
493.842
495.234
496.359
497.217
497.808
498.134
498.196
497.996
497.539
496.829
495.871
494.672
493.237
491.575
489.692
487.597
485.299
482.805
480.123
477.261
474.227
471.029
467.675
464.168
460.512
456.705
452.744
448.628
444.361
439.926
435.299
430.459
425.424
420.144
414.59
408.738
402.542
395.961
388.947
381.445
373.397
364.738
355.404
345.344
334.523
322.934
310.595
297.554
283.891
269.712
255.147
240.345
225.461
210.653
196.069
181.846
168.1
154.928
142.404
130.581
119.494
109.16
99.5787
90.7389
82.6179
75.1869
68.4147
62.2709
56.7252
51.7461
47.3054
43.3734
39.9238
92.4367
55.6812
45.258
40.6613
38.1328
36.5498
35.4806
34.742
34.2623
34.0305
34.0442
34.3146
34.9087
35.9041
37.384
39.4273
42.0913
45.3889
49.2658
53.5915
58.1757
62.8125
67.3345
71.6516
75.7585
79.7136
83.6048
87.5181
91.5204
95.6544
99.9426
104.394
109.009
113.784
118.715
123.794
129.013
134.364
139.834
145.411
151.082
156.833
162.65
168.52
174.429
180.368
186.324
192.29
198.259
204.224
210.183
216.132
222.071
228
233.919
239.831
245.739
251.644
257.552
263.465
269.388
275.324
281.277
287.251
293.249
299.273
305.327
311.412
317.53
323.682
329.869
336.09
342.345
348.629
354.935
361.259
367.598
373.945
380.295
386.641
392.974
399.287
405.571
411.814
418.007
424.14
430.199
436.175
442.053
447.823
453.471
458.985
464.352
469.561
474.599
479.454
484.115
488.57
492.811
496.826
500.606
504.143
507.428
510.453
513.211
515.698
517.907
519.834
521.476
522.83
523.895
524.671
525.157
525.356
525.268
524.898
524.248
523.324
522.131
520.674
518.961
516.997
514.791
512.349
509.68
506.789
503.682
500.365
496.849
493.139
489.237
485.145
480.859
476.369
471.677
466.792
461.696
456.368
450.791
444.955
438.831
432.39
425.599
418.422
410.817
402.739
394.142
384.975
375.19
364.74
353.591
341.726
329.15
315.895
302.021
287.615
272.791
257.684
242.441
227.216
212.158
197.405
183.081
169.288
156.107
143.599
131.802
120.741
110.423
100.844
91.9868
83.8294
76.3432
69.4965
63.2559
57.5936
52.4806
47.8876
43.7818
40.1306
100.914
60.6206
49.2222
44.2789
41.6365
40.0473
39.028
38.3688
37.9805
37.8358
37.8925
38.193
38.7914
39.7487
41.1262
42.9763
45.3295
48.1799
51.4752
55.1167
58.9753
62.9199
66.8486
70.7076
74.4929
78.2373
81.9911
85.8051
89.7213
93.7695
97.9689
102.331
106.862
111.564
116.439
121.483
126.693
132.062
137.58
143.238
149.022
154.919
160.914
166.994
173.144
179.351
185.604
191.891
198.203
204.533
210.875
217.224
223.577
229.932
236.29
242.65
249.015
255.385
261.765
268.157
274.565
280.991
287.44
293.915
300.419
306.955
313.526
320.133
326.778
333.462
340.187
346.95
353.751
360.58
367.434
374.308
381.199
388.1
395.004
401.905
408.793
415.66
422.495
429.288
436.028
442.703
449.3
455.807
462.211
468.498
474.655
480.668
486.522
492.207
497.707
503.012
508.108
512.984
517.629
522.032
526.183
530.073
533.691
537.03
540.081
542.839
545.299
547.454
549.301
550.837
552.06
552.969
553.563
553.843
553.81
553.467
552.816
551.863
550.61
549.063
547.229
545.112
542.72
540.058
537.132
533.949
530.509
526.819
522.891
518.727
514.328
509.694
504.822
499.703
494.335
488.717
482.833
476.667
470.202
463.419
456.293
448.797
440.9
432.568
423.765
414.454
404.596
394.154
383.095
371.391
359.027
346.004
332.345
318.098
303.34
288.17
272.713
257.108
241.502
226.045
210.875
196.117
181.876
168.235
155.254
142.973
131.414
120.585
110.482
101.089
92.3865
84.3484
76.9462
70.1481
63.9199
58.2389
53.0805
48.4173
44.2182
40.4512
108.3
65.0379
52.8115
47.581
44.8539
43.2739
42.3111
41.7305
41.4258
41.3138
41.3962
41.6999
42.2638
43.1334
44.3537
45.9613
47.976
50.3912
53.1694
56.2443
59.5317
62.9473
66.4244
69.9245
73.4386
76.9804
80.5762
84.256
88.0476
91.9742
96.0538
100.3
104.724
109.333
114.132
119.123
124.304
129.671
135.22
140.939
146.818
152.845
159.005
165.284
171.667
178.139
184.689
191.302
197.969
204.678
211.423
218.197
224.994
231.812
238.648
245.5
252.369
259.256
266.162
273.09
280.041
287.019
294.026
301.066
308.14
315.252
322.404
329.598
336.835
344.115
351.44
358.807
366.207
373.636
381.09
388.564
396.054
403.552
411.051
418.543
426.018
433.467
440.878
448.241
455.543
462.772
469.914
476.956
483.884
490.684
497.34
503.838
510.162
516.301
522.239
527.964
533.463
538.723
543.733
548.482
552.959
557.154
561.056
564.655
567.945
570.917
573.567
575.89
577.88
579.533
580.849
581.823
582.457
582.75
582.701
582.313
581.588
580.529
579.141
577.428
575.393
573.043
570.382
567.416
564.149
560.586
556.73
552.584
548.155
543.445
538.454
533.18
527.619
521.763
515.607
509.143
502.357
495.232
487.75
479.892
471.632
462.947
453.806
444.183
434.046
423.367
412.12
400.28
387.832
374.766
361.088
346.82
332.009
316.723
301.057
285.128
269.07
253.03
237.156
221.59
206.458
191.867
177.9
164.615
152.046
140.211
129.108
118.724
109.04
100.029
91.663
83.9115
76.7444
70.1285
64.0322
58.4397
53.3315
48.6845
44.472
40.6665
114.461
68.7693
55.8455
50.3712
47.5723
46.001
45.087
44.5716
44.3091
44.2376
44.3502
44.66
45.1928
45.9811
47.0581
48.452
50.1791
52.2379
54.6061
57.2421
60.0919
63.0997
66.2184
69.4172
72.683
76.0181
79.4352
82.9526
86.5905
90.3683
94.3042
98.4143
102.712
107.209
111.914
116.832
121.965
127.313
132.872
138.634
144.592
150.732
157.042
163.508
170.116
176.85
183.696
190.64
197.67
204.774
211.943
219.166
226.439
233.754
241.108
248.497
255.919
263.375
270.863
278.384
285.94
293.532
301.162
308.832
316.543
324.298
332.099
339.945
347.839
355.78
363.767
371.791
379.845
387.926
396.029
404.148
412.277
420.407
428.53
436.638
444.721
452.766
460.764
468.7
476.563
484.339
492.014
499.574
507.005
514.291
521.417
528.363
535.116
541.663
547.989
554.081
559.926
565.51
570.823
575.851
580.586
585.018
589.131
592.916
596.367
599.477
602.239
604.649
606.701
608.391
609.717
610.676
611.266
611.488
611.341
610.826
609.944
608.699
607.092
605.128
602.809
600.14
597.125
593.768
590.073
586.042
581.679
576.985
571.963
566.614
560.936
554.927
548.579
541.886
534.838
527.425
519.632
511.443
502.837
493.794
484.293
474.308
463.817
452.794
441.219
429.071
416.336
403.007
389.083
374.578
359.519
343.954
327.953
311.609
295.04
278.38
261.777
245.385
229.35
213.807
198.866
184.612
171.104
158.37
146.416
135.231
124.788
115.052
105.982
97.5406
89.6873
82.3865
75.6041
69.3033
63.4613
58.0675
53.108
48.5657
44.4198
40.6494
119.309
71.7097
58.2122
52.5272
49.6592
48.087
47.208
46.7316
46.5144
46.4985
46.6623
47.006
47.5438
48.2973
49.2909
50.5466
52.0789
53.8903
55.9693
58.2906
60.8193
63.5174
66.3505
69.2935
72.3321
75.4636
78.6941
82.036
85.5055
89.1209
92.9006
96.8627
101.024
105.398
109.998
114.832
119.905
125.22
130.776
136.569
142.592
148.835
155.287
161.935
168.764
175.76
182.908
190.193
197.601
205.12
212.737
220.441
228.224
236.078
243.996
251.972
260.003
268.085
276.217
284.397
292.624
300.899
309.222
317.594
326.014
334.484
343.005
351.575
360.195
368.864
377.573
386.309
395.071
403.852
412.648
421.451
430.251
439.038
447.806
456.542
465.238
473.879
482.454
490.95
499.353
507.649
515.822
523.86
531.746
539.469
547.01
554.342
561.456
568.338
574.976
581.355
587.462
593.284
598.809
604.025
608.922
613.489
617.715
621.59
625.106
628.257
631.035
633.436
635.454
637.086
638.327
639.175
639.628
639.685
639.346
638.61
637.48
635.955
634.038
631.732
629.038
625.96
622.501
618.663
614.448
609.859
604.898
599.564
593.857
587.778
581.321
574.484
567.258
559.634
551.602
543.147
534.256
524.909
515.088
504.771
493.939
482.569
470.642
458.14
445.048
431.358
417.069
402.188
386.735
370.746
354.274
337.393
320.2
302.816
285.381
268.051
250.986
234.346
218.275
202.894
188.298
174.547
161.668
149.662
138.502
128.147
118.541
109.626
101.343
93.6344
86.4508
79.7481
73.4869
67.6252
62.1529
57.0636
52.3486
47.9969
43.9952
40.3296
122.823
73.8207
59.8728
54.0092
51.0731
49.4909
48.6271
48.1903
48.04
48.1056
48.3542
48.7758
49.3745
50.1626
51.1564
52.3717
53.8199
55.5044
57.4187
59.5471
61.8659
64.3487
66.9702
69.7105
72.5573
75.5071
78.5639
81.7382
85.0451
88.5025
92.13
95.9479
99.9756
104.231
108.729
113.48
118.493
123.775
129.328
135.151
141.239
147.587
154.184
161.019
168.079
175.35
182.816
190.463
198.275
206.239
214.341
222.568
230.908
239.352
247.89
256.514
265.218
273.996
282.843
291.756
300.732
309.768
318.864
328.017
337.226
346.49
355.809
365.18
374.602
384.064
393.55
403.054
412.57
422.094
431.618
441.137
450.627
460.083
469.497
478.857
488.15
497.365
506.487
515.503
524.398
533.158
541.767
550.21
558.472
566.539
574.392
582.014
589.39
596.507
603.351
609.908
616.166
622.111
627.733
633.02
637.961
642.547
646.766
650.612
654.075
657.148
659.825
662.101
663.971
665.43
666.474
667.1
667.308
667.093
666.457
665.398
663.916
662.011
659.685
656.939
653.774
650.192
646.194
641.781
636.956
631.717
626.066
620.002
613.522
606.623
599.301
591.549
583.359
574.72
565.618
556.04
545.97
535.387
524.275
512.611
500.378
487.556
474.131
460.091
445.43
430.152
414.269
397.807
380.805
363.324
345.444
327.268
308.923
290.558
272.337
254.435
237.026
220.27
204.306
189.24
175.145
162.052
149.958
138.831
128.613
119.231
110.604
102.647
95.2826
88.4372
82.0486
76.0637
70.4356
65.119
60.1178
55.4274
51.0435
46.9614
43.175
39.6782
125.048
75.1253
60.8578
54.8575
51.8641
50.2675
49.4316
49.061
49.0058
49.1868
49.5631
50.1166
50.8427
51.7457
52.8337
54.1155
55.5973
57.2801
59.1581
61.2191
63.4457
65.8184
68.3185
70.9312
73.6477
76.4662
79.3917
82.4355
85.6136
88.944
92.4474
96.1469
100.066
104.227
108.653
113.345
118.319
123.587
129.156
135.028
141.204
147.678
154.443
161.492
168.811
176.388
184.208
192.256
200.517
208.975
217.616
226.423
235.384
244.486
253.716
263.064
272.52
282.076
291.723
301.456
311.268
321.154
331.111
341.133
351.219
361.364
371.566
381.819
392.113
402.422
412.737
423.052
433.358
443.647
453.909
464.133
474.305
484.414
494.448
504.395
514.241
523.974
533.578
543.039
552.343
561.475
570.419
579.161
587.685
595.977
604.021
611.801
619.303
626.514
633.42
640.01
646.27
652.191
657.76
662.967
667.803
672.259
676.325
679.994
683.259
686.112
688.548
690.562
692.148
693.303
694.021
694.302
694.14
693.535
692.485
690.988
689.044
686.652
683.811
680.522
676.785
672.601
667.968
662.887
657.358
651.38
644.95
638.068
630.728
622.926
614.656
605.909
596.676
586.944
576.699
565.926
554.607
542.724
530.257
517.188
503.5
489.178
474.212
458.599
442.341
425.455
407.969
389.926
371.392
352.45
333.21
313.807
294.397
275.159
256.28
237.952
220.356
203.651
187.963
173.378
159.942
147.655
136.483
126.358
117.194
108.888
101.334
94.427
88.0689
82.1726
76.6638
71.4797
66.5619
61.8727
57.4233
53.2085
49.2276
45.4815
41.9714
38.6987
126.06
75.6872
61.2483
55.1734
52.1614
50.5942
49.8283
49.5634
49.645
49.9889
50.5488
51.3001
52.2314
53.3393
54.6244
56.0879
57.7292
59.5444
61.5249
63.6583
65.929
68.321
70.8199
73.415
76.1013
78.8802
81.7578
84.7484
87.8763
91.1526
94.5953
98.2353
102.101
106.217
110.606
115.286
120.273
125.581
131.22
137.197
143.514
150.171
157.164
164.485
172.126
180.073
188.314
196.834
205.617
214.646
223.904
233.375
243.043
252.891
262.904
273.069
283.372
293.801
304.345
314.993
325.737
336.568
347.479
358.463
369.514
380.625
391.791
402.995
414.199
425.393
436.567
447.71
458.811
469.858
480.839
491.741
502.55
513.254
523.839
534.291
544.597
554.742
564.712
574.493
584.07
593.429
602.556
611.437
620.056
628.402
636.46
644.216
651.659
658.776
665.555
671.986
678.059
683.763
689.089
694.029
698.575
702.718
706.451
709.768
712.662
715.128
717.159
718.751
719.899
720.6
720.848
720.642
719.976
718.85
717.259
715.203
712.679
709.685
706.22
702.282
697.87
692.983
687.619
681.776
675.453
668.646
661.352
653.568
645.287
636.503
627.209
617.394
607.046
596.153
584.7
572.669
560.044
546.805
532.936
518.418
503.237
487.384
470.855
453.653
435.795
417.308
398.24
378.655
358.641
338.313
317.81
297.299
276.967
257.021
237.668
219.111
201.533
185.083
169.866
155.945
143.329
131.988
121.851
112.823
104.786
97.6143
91.1811
85.3635
80.0493
75.1392
70.5489
66.2056
62.034
58.0288
54.1853
50.4994
46.9734
43.613
40.4261
37.4212
125.857
75.5584
61.1629
55.1394
52.2032
50.744
50.1219
50.0372
50.3337
50.9248
51.7602
52.8108
54.0597
55.4971
57.116
58.91
60.871
62.9881
65.2477
67.634
70.1301
72.7208
75.3934
78.14
80.9581
83.8575
86.8334
89.8959
93.0741
96.3941
99.8837
103.573
107.494
111.674
116.141
120.918
126.026
131.483
137.303
143.496
150.068
157.023
164.359
172.072
180.154
188.595
197.382
206.501
215.934
225.664
235.672
245.94
256.448
267.177
278.108
289.224
300.506
311.939
323.507
335.196
346.993
358.886
370.865
382.917
395.035
407.21
419.407
431.58
443.717
455.804
467.826
479.769
491.619
503.363
514.985
526.471
537.807
548.979
559.972
570.773
581.367
591.742
601.882
611.776
621.41
630.771
639.847
648.626
657.096
665.245
673.063
680.54
687.664
694.428
700.821
706.837
712.466
717.702
722.538
726.967
730.983
734.58
737.752
740.495
742.803
744.672
746.096
747.071
747.593
747.658
747.261
746.399
745.068
743.264
740.984
738.224
734.981
731.252
727.033
722.322
717.115
711.41
705.202
698.489
691.266
683.528
675.271
666.489
657.175
647.319
636.913
625.946
614.404
602.274
589.54
576.184
562.189
547.538
532.214
516.203
499.495
482.085
463.977
445.186
425.739
405.682
385.079
364.022
342.624
321.031
299.416
277.976
256.931
236.507
216.929
198.403
181.1
165.151
150.634
137.574
125.946
115.682
106.679
98.8118
91.9406
85.9209
80.6105
75.8756
71.5948
67.6611
63.983
60.4787
57.0665
53.7625
50.549
47.4202
44.3793
41.4359
38.6036
35.8966
124.59
74.9233
60.8245
55.0195
52.3002
51.0829
50.7377
50.9675
51.6165
52.5963
53.8548
55.3603
57.0923
59.0363
61.1796
63.5087
66.0083
68.6603
71.4447
74.3404
77.3272
80.3876
83.5092
86.6871
89.8964
93.1371
96.4282
99.7917
103.256
106.852
110.612
114.571
118.764
123.224
127.981
133.064
138.499
144.307
150.507
157.112
164.133
171.575
179.439
187.724
196.424
205.529
215.027
224.902
235.138
245.714
256.611
267.805
279.276
290.999
302.952
315.114
327.462
339.976
352.636
365.426
378.326
391.322
404.4
417.541
430.739
443.919
457.038
470.082
483.032
495.871
508.582
521.148
533.552
545.779
557.813
569.638
581.241
592.606
603.721
614.571
625.146
635.432
645.418
655.093
664.447
673.469
682.152
690.485
698.461
706.071
713.31
720.169
726.643
732.726
738.414
743.7
748.58
753.051
757.107
760.746
763.964
766.756
769.12
771.052
772.547
773.602
774.214
774.377
774.088
773.342
772.135
770.462
768.318
765.699
762.598
759.013
754.937
750.365
745.292
739.713
733.623
727.015
719.886
712.229
704.037
695.304
686.023
676.186
665.783
654.806
643.242
631.079
618.303
604.899
590.851
576.142
560.755
544.673
527.883
510.374
492.142
473.188
453.526
433.182
412.199
390.643
368.601
346.19
323.556
300.877
278.359
256.235
234.747
214.141
194.645
176.458
159.731
144.561
130.988
118.994
108.515
99.4433
91.6471
84.9758
79.2721
74.3798
70.1497
66.4436
63.1374
60.122
57.3026
54.5899
51.9191
49.2986
46.7045
44.1285
41.5745
39.0548
36.5871
34.1909
122.64
74.0633
60.5
55.1055
52.7901
52.0073
52.139
52.8915
54.1089
55.7027
57.6204
59.8291
62.3067
65.0352
67.9967
71.171
74.535
78.0627
81.7259
85.4969
89.3489
93.2599
97.2119
101.143
105.065
108.989
112.935
116.928
121.001
125.187
129.524
134.05
138.804
143.822
149.141
154.792
160.805
167.205
174.014
181.249
188.923
197.042
205.611
214.629
224.09
233.985
244.302
255.025
266.134
277.608
289.424
301.557
313.983
326.674
339.604
352.749
366.084
379.584
393.227
406.993
420.862
434.814
448.837
462.884
476.851
490.718
504.462
518.063
531.499
544.75
557.798
570.624
583.211
595.543
607.603
619.378
630.853
642.015
652.854
663.358
673.517
683.323
692.765
701.838
710.535
718.849
726.775
734.309
741.446
748.184
754.519
760.449
765.971
771.085
775.788
780.08
783.959
787.424
790.475
793.11
795.327
797.126
798.504
799.458
799.987
800.086
799.753
798.983
797.771
796.113
794.003
791.436
788.404
784.902
780.922
776.458
771.503
766.048
760.087
753.612