/*--------------------------------*- C++ -*----------------------------------*\
  =========                 |
  \\      /  F ield         | OpenFOAM: The Open Source CFD Toolbox
   \\    /   O peration     | Website:  https://openfoam.org
    \\  /    A nd           | Version:  12
     \\/     M anipulation  |
\*---------------------------------------------------------------------------*/
FoamFile
{
    format      ascii;
    class       volScalarField;
    location    "0.06";
    object      k;
}
// * * * * * * * * * * * * * * * * * * * * * * * * * * * * * * * * * * * * * //

dimensions      [0 2 -2 0 0 0 0];

internalField   nonuniform List<scalar> 
12225
(
0.353921
0.335043
0.316966
0.300961
0.288127
0.27891
0.273304
0.271013
0.271582
0.274495
0.279239
0.285345
0.292411
0.300103
0.308175
0.316417
0.324967
0.337727
0.436864
0.44898
0.438088
0.433068
0.438801
0.453611
0.474841
0.500043
0.527231
0.554923
0.582093
0.608085
0.632533
0.655281
0.676504
0.696011
0.716832
0.73357
0.395187
0.410873
0.410631
0.405747
0.402012
0.400928
0.402623
0.406823
0.413107
0.421019
0.430127
0.440055
0.450499
0.461227
0.472124
0.483077
0.494519
0.505906
0.379641
0.384839
0.386546
0.38573
0.383905
0.382027
0.380569
0.379743
0.379613
0.38016
0.381322
0.383019
0.385173
0.387715
0.390603
0.393815
0.397417
0.401399
0.374976
0.3759
0.376239
0.37572
0.37457
0.373083
0.371495
0.369967
0.368594
0.367428
0.366489
0.365778
0.365285
0.365
0.364914
0.365024
0.365342
0.365866
0.373488
0.372554
0.371759
0.370806
0.36963
0.368274
0.366808
0.365299
0.363802
0.362356
0.360988
0.359713
0.358539
0.357468
0.356505
0.35565
0.354908
0.354283
0.373012
0.371296
0.369812
0.368416
0.367025
0.365609
0.364167
0.362709
0.361254
0.35982
0.358421
0.357068
0.355769
0.354529
0.353353
0.352245
0.351208
0.350253
0.372865
0.370838
0.369004
0.36731
0.36571
0.364173
0.362677
0.361214
0.359779
0.358377
0.35701
0.355681
0.354395
0.353153
0.35196
0.350817
0.349728
0.348707
0.37282
0.37068
0.368691
0.366836
0.365094
0.363447
0.361878
0.360374
0.358925
0.357527
0.356177
0.354873
0.353615
0.352401
0.351233
0.350111
0.349037
0.348025
0.372806
0.370628
0.368578
0.366647
0.364828
0.363109
0.361481
0.359932
0.358454
0.357042
0.355689
0.354391
0.353146
0.351951
0.350805
0.349706
0.348655
0.347664
0.372801
0.370609
0.368537
0.366576
0.36472
0.362963
0.361298
0.359717
0.358213
0.356782
0.355417
0.354114
0.352869
0.351679
0.350542
0.349455
0.348418
0.347441
0.372799
0.370602
0.368522
0.366549
0.36468
0.362906
0.361224
0.359626
0.358107
0.356661
0.355286
0.353975
0.352725
0.351533
0.350396
0.349312
0.348279
0.347306
0.372797
0.370599
0.368514
0.366537
0.36466
0.362879
0.361187
0.35958
0.358052
0.356598
0.355214
0.353897
0.352641
0.351446
0.350306
0.34922
0.348186
0.347213
0.372796
0.370596
0.368509
0.366528
0.364649
0.362863
0.361167
0.359554
0.358021
0.356562
0.355173
0.35385
0.35259
0.35139
0.350247
0.349158
0.34812
0.347145
0.372795
0.370593
0.368505
0.366523
0.364641
0.362853
0.361154
0.359539
0.358002
0.35654
0.355148
0.353822
0.35256
0.351357
0.35021
0.349117
0.348077
0.347098
0.372795
0.370592
0.368502
0.366518
0.364635
0.362845
0.361145
0.359527
0.357989
0.356525
0.355131
0.353804
0.352539
0.351334
0.350185
0.34909
0.348047
0.347065
0.372794
0.37059
0.368499
0.366515
0.36463
0.362839
0.361137
0.359519
0.357979
0.356514
0.355119
0.35379
0.352524
0.351317
0.350167
0.34907
0.348025
0.347041
0.372794
0.37059
0.368498
0.366512
0.364627
0.362835
0.361133
0.359513
0.357973
0.356506
0.35511
0.35378
0.352513
0.351305
0.350153
0.349055
0.348008
0.347023
0.372793
0.370589
0.368497
0.366512
0.364626
0.362834
0.361131
0.359511
0.35797
0.356503
0.355106
0.353776
0.352508
0.351299
0.350147
0.349047
0.348
0.347013
0.372794
0.37059
0.368498
0.366513
0.364628
0.362836
0.361134
0.359514
0.357974
0.356507
0.355111
0.35378
0.352512
0.351304
0.350151
0.349052
0.348004
0.347018
0.372794
0.370591
0.3685
0.366516
0.364632
0.362842
0.36114
0.359522
0.357983
0.356518
0.355123
0.353794
0.352528
0.351321
0.35017
0.349072
0.348025
0.34704
0.372795
0.370593
0.368504
0.366522
0.364642
0.362856
0.361159
0.359546
0.358013
0.356553
0.355164
0.353841
0.35258
0.351377
0.350231
0.349137
0.348094
0.347111
0.372796
0.370598
0.368518
0.366547
0.364681
0.362913
0.361235
0.359642
0.358128
0.356686
0.355312
0.354003
0.352752
0.351558
0.350417
0.349326
0.348284
0.347301
0.372804
0.370631
0.368592
0.366676
0.364872
0.363167
0.361548
0.360006
0.358533
0.357122
0.355768
0.354469
0.35322
0.352021
0.35087
0.349764
0.348704
0.3477
0.372856
0.370818
0.368973
0.367264
0.365645
0.364085
0.362567
0.361083
0.359632
0.358214
0.356834
0.355494
0.354198
0.352948
0.351745
0.350592
0.349489
0.348447
0.373166
0.37177
0.370579
0.369371
0.368049
0.366605
0.365072
0.363493
0.361906
0.360343
0.358827
0.357373
0.355992
0.354689
0.353469
0.35233
0.351273
0.350303
0.374797
0.375829
0.376175
0.375401
0.373834
0.371876
0.369792
0.36774
0.365814
0.364066
0.362524
0.361194
0.360074
0.359155
0.358422
0.35786
0.357453
0.357185
0.382729
0.39167
0.392376
0.388806
0.384385
0.380403
0.377247
0.374996
0.373619
0.373034
0.373148
0.373859
0.375074
0.376705
0.378671
0.380905
0.383345
0.385923
0.407499
0.414514
0.405422
0.39599
0.390552
0.389286
0.391447
0.396203
0.402819
0.410704
0.419405
0.428584
0.437986
0.447423
0.45676
0.465901
0.474802
0.483376
0.360554
0.347547
0.334933
0.322917
0.311964
0.302352
0.294189
0.287469
0.282113
0.278001
0.274997
0.272961
0.271759
0.271265
0.271365
0.271959
0.272958
0.274282
0.0702583
0.112789
0.131666
0.140395
0.139019
0.140383
0.143494
0.145962
0.147177
0.147049
0.145611
0.142921
0.139179
0.14077
0.142134
0.141948
0.139787
0.139116
0.139256
0.141677
0.14166
0.13898
0.144501
0.142447
0.150151
0.163358
0.181231
0.201207
0.22386
0.249785
0.278689
0.30976
0.342088
0.374894
0.407576
0.439696
0.470948
0.501121
0.530084
0.557766
0.584143
0.609231
0.633073
0.655733
0.677292
0.697835
0.717454
0.736239
0.754276
0.771647
0.788428
0.804687
0.820487
0.835883
0.850926
0.86566
0.880122
0.894347
0.908364
0.922198
0.935871
0.949401
0.962802
0.976087
0.989266
1.00235
1.01533
1.02822
1.04102
1.05373
1.06634
1.07885
1.09126
1.10355
1.11573
1.12777
1.13968
1.15145
1.16305
1.17449
1.18575
1.19687
1.20775
1.2183
1.22851
1.23838
1.24788
1.25702
1.26578
1.27415
1.28211
1.28964
1.29675
1.30342
1.30963
1.31539
1.32068
1.3255
1.32984
1.3337
1.33707
1.33996
1.34235
1.34424
1.34564
1.34655
1.34698
1.34695
1.34648
1.34561
1.34433
1.34267
1.34065
1.33829
1.33559
1.33258
1.32928
1.3257
1.32185
1.31775
1.31341
1.30885
1.30407
1.29908
1.29387
1.28846
1.28284
1.27699
1.27091
1.26458
1.25797
1.25106
1.24381
1.23616
1.22808
1.21949
1.21032
1.2005
1.18992
1.17848
1.16606
1.15253
1.13774
1.12155
1.10381
1.08443
1.06357
1.04262
1.02738
1.02026
1.01289
1.00371
0.992412
0.978878
0.963085
0.945085
0.925002
0.903021
0.879383
0.854367
0.82828
0.801439
0.77416
0.746742
0.719457
0.692545
0.666203
0.640589
0.61578
0.591661
0.567931
0.544635
0.522129
0.500145
0.478605
0.457466
0.436659
0.415894
0.395053
0.371941
0.101354
0.155325
0.190212
0.214414
0.231845
0.244366
0.252617
0.257424
0.259449
0.259242
0.257231
0.253716
0.248826
0.242456
0.235006
0.228193
0.223018
0.220446
0.222709
0.231687
0.250387
0.279557
0.320052
0.367878
0.414188
0.45641
0.495416
0.532303
0.568634
0.605855
0.644893
0.686123
0.729517
0.774821
0.821665
0.869614
0.9182
0.966945
1.0154
1.06315
1.10988
1.15534
1.19936
1.24185
1.2828
1.32223
1.36022
1.39684
1.4322
1.46643
1.49962
1.53189
1.56335
1.59408
1.62418
1.65373
1.6828
1.71145
1.73975
1.76774
1.79547
1.82297
1.85029
1.87744
1.90446
1.93135
1.95814
1.98483
2.01143
2.03794
2.06435
2.09067
2.11689
2.14298
2.16895
2.19478
2.22044
2.24591
2.27118
2.29622
2.32086
2.34495
2.36849
2.39151
2.414
2.43592
2.45725
2.47794
2.49795
2.51726
2.53582
2.5536
2.57055
2.58665
2.60186
2.61614
2.62947
2.64183
2.65317
2.66349
2.67276
2.68095
2.68806
2.69406
2.69896
2.70276
2.70545
2.70708
2.70765
2.7072
2.70576
2.70337
2.70005
2.69584
2.69079
2.68493
2.67831
2.67098
2.66299
2.65438
2.6452
2.63552
2.62537
2.61481
2.60388
2.59262
2.58107
2.56926
2.55723
2.54498
2.53253
2.51987
2.50698
2.49383
2.48037
2.46653
2.45222
2.43733
2.4217
2.40516
2.38751
2.36849
2.34783
2.32522
2.30033
2.27289
2.24267
2.20971
2.17553
2.13884
2.09818
2.05303
2.0032
1.94868
1.88959
1.82619
1.75889
1.68824
1.61487
1.5395
1.46289
1.38581
1.30901
1.23317
1.15894
1.08685
1.01737
0.950868
0.887608
0.82779
0.771582
0.718941
0.670406
0.627365
0.589754
0.557386
0.530009
0.507841
0.49029
0.485914
0.14411
0.204048
0.242867
0.269785
0.288847
0.302389
0.311703
0.317583
0.320642
0.321421
0.320417
0.318103
0.315007
0.311061
0.306758
0.303138
0.301862
0.30536
0.316803
0.339398
0.375588
0.42593
0.482722
0.540136
0.593604
0.641734
0.685588
0.727299
0.769231
0.813315
0.860711
0.911787
0.966313
1.02369
1.08313
1.14383
1.20499
1.26592
1.32606
1.38495
1.44229
1.49789
1.55165
1.60354
1.65361
1.70194
1.74863
1.7938
1.83758
1.8801
1.92147
1.96182
2.00125
2.03987
2.07777
2.11505
2.15178
2.18802
2.22386
2.25933
2.29451
2.32942
2.36412
2.39863
2.43298
2.46719
2.50129
2.53529
2.56919
2.603
2.63673
2.67036
2.70389
2.73731
2.77061
2.80375
2.83674
2.86953
2.90201
2.93405
2.96565
2.99678
3.0274
3.05747
3.08696
3.11582
3.14398
3.17141
3.19805
3.22383
3.24873
3.27267
3.29561
3.31749
3.33828
3.35792
3.37637
3.39358
3.40952
3.42415
3.43744
3.44935
3.45986
3.46895
3.47661
3.48282
3.48758
3.49091
3.49283
3.49334
3.49249
3.49029
3.48679
3.48202
3.47601
3.46881
3.46048
3.45105
3.44058
3.42913
3.41676
3.40353
3.38949
3.37471
3.35924
3.34313
3.32644
3.30921
3.29148
3.27329
3.25466
3.2356
3.2161
3.19614
3.17568
3.15467
3.13302
3.11061
3.0873
3.0629
3.0372
3.00993
2.98078
2.9494
2.9154
2.87846
2.83817
2.79526
2.74911
2.69878
2.6435
2.58284
2.51658
2.4447
2.36735
2.28485
2.19772
2.10661
2.01232
1.91572
1.81778
1.71943
1.62159
1.52514
1.43085
1.33938
1.2513
1.16703
1.08693
1.01122
0.93997
0.872881
0.809696
0.750707
0.696625
0.64749
0.603241
0.56401
0.529512
0.50278
0.181526
0.243835
0.285904
0.315597
0.336787
0.351781
0.362029
0.368539
0.372099
0.373399
0.373087
0.371819
0.370317
0.368605
0.367543
0.368443
0.373315
0.385042
0.407321
0.442278
0.489625
0.546247
0.606408
0.665042
0.719333
0.769079
0.815955
0.862407
0.910728
0.962482
1.01833
1.07818
1.14139
1.20712
1.27444
1.34251
1.41059
1.47808
1.54453
1.60959
1.67305
1.73476
1.79468
1.85279
1.90914
1.96379
2.01684
2.06838
2.11852
2.16738
2.21506
2.26167
2.30731
2.35208
2.39608
2.43939
2.48209
2.52427
2.56597
2.60728
2.64825
2.68893
2.72935
2.76957
2.80962
2.84953
2.88932
2.929
2.9686
3.00811
3.04755
3.08692
3.1262
3.16539
3.20447
3.24342
3.28222
3.32073
3.35888
3.39665
3.434
3.4709
3.5073
3.54316
3.5784
3.61297
3.64682
3.67987
3.71207
3.74334
3.77363
3.80286
3.83098
3.85791
3.88361
3.908
3.93104
3.95266
3.97282
3.99146
4.00854
4.02402
4.03787
4.05005
4.06054
4.06932
4.07638
4.08171
4.08533
4.08723
4.08745
4.08601
4.08292
4.07822
4.07196
4.06416
4.05487
4.04415
4.03204
4.0186
4.00389
3.98797
3.97091
3.95276
3.93359
3.91345
3.89241
3.87052
3.84782
3.82436
3.80016
3.77525
3.74962
3.72327
3.69616
3.66826
3.63947
3.60968
3.57876
3.54655
3.51279
3.47725
3.4396
3.39947
3.35642
3.31033
3.26115
3.20844
3.15162
3.08995
3.02287
2.95
2.87114
2.78627
2.69556
2.59939
2.49832
2.39309
2.28458
2.17377
2.0617
1.94943
1.83797
1.72826
1.62115
1.51736
1.41749
1.32202
1.23131
1.14557
1.06488
0.98909
0.917981
0.851324
0.789507
0.73253
0.680324
0.632893
0.58997
0.552426
0.217347
0.283705
0.32943
0.361554
0.384422
0.400558
0.411566
0.418598
0.422583
0.42436
0.424761
0.424707
0.424459
0.424858
0.427082
0.432793
0.444082
0.463443
0.493123
0.53391
0.584324
0.640865
0.69924
0.756111
0.810067
0.861601
0.912414
0.964515
1.01952
1.07832
1.14102
1.20721
1.27615
1.34702
1.419
1.4914
1.56364
1.63524
1.70587
1.77527
1.84324
1.90969
1.97454
2.03777
2.09941
2.15947
2.21802
2.27514
2.33089
2.38536
2.43866
2.49086
2.54206
2.59234
2.64181
2.69054
2.73861
2.7861
2.83309
2.87963
2.9258
2.97164
3.01721
3.06256
3.10773
3.15274
3.19763
3.24243
3.28715
3.33181
3.3764
3.42095
3.46543
3.50985
3.55419
3.59843
3.64244
3.68617
3.72959
3.77267
3.81537
3.85764
3.89943
3.94067
3.9813
4.02126
4.06047
4.09885
4.13634
4.17286
4.20833
4.24268
4.27582
4.30769
4.33821
4.3673
4.39491
4.42095
4.44537
4.46811
4.4891
4.5083
4.52566
4.54113
4.55469
4.5663
4.57593
4.58358
4.58923
4.59289
4.59457
4.59427
4.59202
4.58784
4.58176
4.57381
4.56404
4.55249
4.5392
4.52424
4.50766
4.48951
4.46986
4.44878
4.42631
4.40252
4.37747
4.35122
4.32381
4.29529
4.26569
4.23503
4.20332
4.17053
4.13666
4.10166
4.06546
4.02793
3.98894
3.94837
3.90592
3.86139
3.81451
3.76472
3.71229
3.65667
3.5975
3.53433
3.4666
3.39376
3.31534
3.23101
3.14062
3.04419
2.94192
2.83425
2.72178
2.60531
2.48577
2.3642
2.24169
2.11932
1.99815
1.87912
1.76311
1.65083
1.5429
1.43977
1.3418
1.24919
1.162
1.08017
1.00351
0.931778
0.865005
0.803173
0.746185
0.693966
0.646258
0.603269
0.252129
0.324025
0.373645
0.408302
0.432988
0.450459
0.46246
0.470256
0.474895
0.477345
0.478583
0.479553
0.480666
0.483093
0.488222
0.497717
0.513441
0.537185
0.570103
0.612048
0.66131
0.715094
0.770528
0.825656
0.879898
0.933881
0.988871
1.04616
1.10664
1.17062
1.23794
1.30808
1.3804
1.4542
1.52887
1.60387
1.67876
1.75318
1.82685
1.89957
1.97115
2.0415
2.11052
2.17817
2.24442
2.30928
2.37277
2.43492
2.49578
2.55541
2.61388
2.67127
2.72764
2.78308
2.83766
2.89148
2.9446
2.99711
3.04907
3.10056
3.15164
3.20237
3.25281
3.30301
3.35302
3.40287
3.45261
3.50225
3.55184
3.60137
3.65087
3.70034
3.74978
3.79919
3.84854
3.89775
3.94675
3.99553
4.04405
4.09227
4.14014
4.18762
4.23463
4.28111
4.327
4.37221
4.41668
4.4603
4.50301
4.54472
4.58533
4.62477
4.66293
4.69975
4.73512
4.76897
4.80121
4.83176
4.86056
4.88751
4.91256
4.93564
4.95669
4.97565
4.99248
5.00713
5.01957
5.02978
5.03772
5.0434
5.0468
5.04793
5.0468
5.04343
5.03783
5.03003
5.02007
5.00798
4.9938
4.97759
4.9594
4.93927
4.91727
4.89346
4.86788
4.84061
4.81167
4.78114
4.74907
4.7155
4.68045
4.64395
4.60599
4.56653
4.52559
4.48313
4.43906
4.39324
4.34553
4.29591
4.24398
4.18954
4.13269
4.07293
4.01006
3.94371
3.87349
3.79898
3.71973
3.63528
3.54528
3.44948
3.3478
3.24032
3.12731
3.00927
2.88685
2.7609
2.63239
2.50239
2.37198
2.24226
2.11425
1.98887
1.86695
1.74916
1.63605
1.52806
1.42548
1.32849
1.23712
1.15134
1.07099
0.995865
0.925789
0.860735
0.800585
0.745221
0.694393
0.648084
0.285798
0.364038
0.417644
0.455141
0.482026
0.501249
0.514669
0.523656
0.529364
0.532876
0.535297
0.537033
0.539219
0.543109
0.550106
0.561736
0.579507
0.604639
0.637673
0.678161
0.72469
0.775314
0.828225
0.882298
0.93727
0.993562
1.0519
1.11292
1.177
1.24411
1.314
1.38619
1.46016
1.53541
1.61147
1.68793
1.76447
1.8408
1.9167
1.99196
2.06642
2.13997
2.21251
2.28394
2.35423
2.42333
2.49123
2.55793
2.62346
2.68784
2.75112
2.81334
2.87458
2.93488
2.99433
3.053
3.11095
3.16826
3.22501
3.28126
3.33708
3.39253
3.44768
3.50257
3.55727
3.61181
3.66624
3.72059
3.77489
3.82915
3.88341
3.93766
3.99191
4.04617
4.10034
4.15439
4.20828
4.26199
4.31549
4.36874
4.42168
4.47425
4.5264
4.57804
4.6291
4.6795
4.72915
4.77796
4.82584
4.8727
4.91843
4.96294
5.00613
5.0479
5.08815
5.12679
5.16371
5.19884
5.23208
5.26334
5.29254
5.3196
5.34446
5.36703
5.38727
5.40511
5.42051
5.43343
5.44382
5.45168
5.45699
5.45972
5.45989
5.4575
5.45256
5.44508
5.4351
5.42263
5.40772
5.39041
5.37073
5.34874
5.3245
5.29804
5.26941
5.23867
5.20586
5.17103
5.13422
5.09549
5.05485
5.01231
4.96784
4.92141
4.873
4.82266
4.77025
4.71557
4.65845
4.59912
4.5372
4.4725
4.40488
4.33404
4.25973
4.18164
4.09943
4.01274
3.92123
3.82459
3.72256
3.61501
3.50195
3.38356
3.26021
3.13246
3.00105
2.86687
2.73092
2.59429
2.45803
2.32321
2.19077
2.06157
1.93633
1.81564
1.69995
1.58961
1.48483
1.38573
1.29232
1.20453
1.12223
1.04523
0.973292
0.906334
0.844252
0.786912
0.734075
0.685646
0.318333
0.401874
0.459659
0.50042
0.529981
0.551455
0.566802
0.577466
0.584663
0.589535
0.592888
0.595459
0.59848
0.60324
0.611092
0.623398
0.641394
0.665978
0.697471
0.73549
0.779048
0.826871
0.87781
0.931134
0.986606
1.04435
1.10463
1.16766
1.23347
1.30192
1.37271
1.44549
1.51987
1.59546
1.67193
1.74899
1.82637
1.90386
1.98124
2.05834
2.135
2.2111
2.2865
2.3611
2.43483
2.50761
2.57941
2.65019
2.71994
2.78866
2.85637
2.92311
2.9889
3.0538
3.11787
3.18117
3.24376
3.3057
3.36707
3.42794
3.48837
3.54842
3.60816
3.66765
3.72693
3.78605
3.84507
3.90402
3.96293
4.02183
4.08073
4.13966
4.19862
4.25758
4.31645
4.37524
4.43392
4.49248
4.55087
4.60904
4.66694
4.72452
4.78169
4.83839
4.89453
4.95002
5.00478
5.0587
5.11168
5.16362
5.21441
5.26394
5.3121
5.35878
5.40388
5.44728
5.48888
5.52857
5.56626
5.60184
5.63521
5.66629
5.69499
5.72123
5.74492
5.76601
5.78442
5.80012
5.81304
5.82316
5.83044
5.83487
5.83642
5.8351
5.83089
5.82382
5.81388
5.8011
5.78552
5.76715
5.74603
5.72221
5.69572
5.6666
5.63491
5.60066
5.56389
5.52463
5.48296
5.43889
5.39246
5.34364
5.2924
5.23864
5.18237
5.12372
5.06253
4.99863
4.93191
4.86237
4.7898
4.71402
4.63486
4.5521
4.46551
4.37483
4.27982
4.18021
4.07579
3.96636
3.85181
3.73215
3.6075
3.4782
3.34471
3.2077
3.06801
2.92658
2.78446
2.64271
2.50237
2.36441
2.2297
2.09895
1.97276
1.85158
1.73572
1.62539
1.52071
1.42169
1.32828
1.2404
1.15788
1.08053
1.00809
0.940469
0.877584
0.819303
0.765411
0.715791
0.34761
0.436416
0.498497
0.542741
0.575249
0.599288
0.616899
0.629572
0.63854
0.644919
0.649204
0.652599
0.656314
0.661593
0.6697
0.681864
0.69916
0.722352
0.751754
0.787169
0.82798
0.873359
0.92252
0.974886
1.03014
1.08816
1.1489
1.21232
1.27828
1.3466
1.41701
1.48924
1.56302
1.63807
1.71414
1.79103
1.86853
1.94646
2.02463
2.10288
2.18107
2.25904
2.33666
2.41381
2.49038
2.56628
2.64143
2.71578
2.78929
2.86193
2.93369
3.00459
3.07463
3.14386
3.2123
3.28001
3.34705
3.41346
3.47931
3.54466
3.60958
3.67412
3.73835
3.80233
3.86611
3.92973
3.99326
4.05672
4.12015
4.18359
4.24705
4.31056
4.37412
4.43763
4.50111
4.56455
4.62793
4.69122
4.75437
4.81735
4.8801
4.94254
5.00461
5.06623
5.12731
5.18776
5.24749
5.30638
5.36433
5.42122
5.47694
5.53137
5.58439
5.63588
5.68571
5.73378
5.77995
5.82413
5.86618
5.90601
5.9435
5.97855
6.01104
6.04089
6.06801
6.09231
6.11373
6.13218
6.14762
6.16
6.16926
6.17537
6.17831
6.17806
6.17459
6.16792
6.15803
6.14494
6.12866
6.10921
6.08663
6.06093
6.03214
6.0003
5.96545
5.92759
5.88672
5.84288
5.79617
5.74659
5.69413
5.63879
5.58052
5.51927
5.45501
5.38777
5.31743
5.24389
5.16704
5.0868
5.00301
4.91553
4.8242
4.72885
4.62931
4.52538
4.41693
4.3038
4.18589
4.06317
3.93568
3.80357
3.66715
3.52688
3.38341
3.23752
3.09014
2.94232
2.79511
2.64959
2.50673
2.36741
2.23237
2.10217
1.97722
1.85779
1.74402
1.63595
1.53355
1.43672
1.34531
1.25918
1.17813
1.10196
1.03038
0.963333
0.900753
0.842533
0.788493
0.738527
0.373106
0.466737
0.532851
0.580472
0.615925
0.6426
0.662608
0.67747
0.688428
0.696103
0.701602
0.706064
0.710638
0.716495
0.724811
0.736709
0.753172
0.774926
0.802342
0.835402
0.873758
0.91686
0.964119
1.01502
1.06917
1.1263
1.18618
1.24864
1.31348
1.3805
1.4495
1.52027
1.59261
1.66635
1.7413
1.81732
1.89424
1.97192
2.0502
2.12892
2.20795
2.28712
2.36631
2.44536
2.52415
2.60258
2.68053
2.75793
2.83472
2.91083
2.98624
3.06094
3.13491
3.20816
3.28072
3.35263
3.42391
3.49461
3.56479
3.63449
3.70378
3.77271
3.84134
3.90971
3.9779
4.04594
4.11388
4.18177
4.24964
4.31753
4.38546
4.45345
4.52143
4.58942
4.6574
4.72537
4.79331
4.86119
4.92897
4.99659
5.064
5.13114
5.19793
5.26428
5.33011
5.39532
5.45981
5.52347
5.58618
5.64783
5.70828
5.76741
5.82508
5.88117
5.93555
5.9881
6.03867
6.08715
6.13341
6.17733
6.21878
6.25765
6.29382
6.32716
6.35758
6.38499
6.4093
6.43043
6.44829
6.46284
6.47401
6.48174
6.48601
6.48676
6.48398
6.47764
6.46774
6.45427
6.43724
6.41665
6.39252
6.36486
6.33368
6.29902
6.26089
6.2193
6.17425
6.12578
6.07391
6.01865
5.96
5.89794
5.83243
5.76342
5.69087
5.61475
5.53497
5.45143
5.36404
5.27268
5.17725
5.07761
4.97364
4.86521
4.75222
4.63457
4.5122
4.3851
4.25329
4.11691
3.97615
3.83138
3.68306
3.53186
3.37858
3.22418
3.0697
2.91628
2.76501
2.61695
2.47301
2.33396
2.20038
2.07263
1.95093
1.83532
1.72573
1.622
1.52393
1.43126
1.34375
1.26115
1.18323
1.10971
1.04032
0.975062
0.913889
0.85672
0.803423
0.753922
0.394371
0.492065
0.561641
0.612243
0.650367
0.679505
0.701818
0.71884
0.731529
0.740867
0.747969
0.753911
0.759765
0.766616
0.775543
0.787575
0.80362
0.824377
0.850265
0.881392
0.917587
0.958478
1.0036
1.0525
1.10474
1.15999
1.21795
1.27839
1.34111
1.40592
1.47267
1.5412
1.61139
1.68313
1.75629
1.83077
1.90645
1.9832
2.06091
2.13942
2.2186
2.29831
2.37839
2.45869
2.53908
2.61943
2.69962
2.77954
2.8591
2.93824
3.01688
3.09499
3.17254
3.24952
3.32593
3.40178
3.4771
3.55191
3.62625
3.70017
3.7737
3.8469
3.91982
3.9925
4.065
4.13737
4.20964
4.28186
4.35407
4.4263
4.49858
4.57087
4.64318
4.71551
4.78786
4.86021
4.93255
5.00484
5.07704
5.1491
5.22096
5.29256
5.36381
5.43464
5.50495
5.57464
5.64361
5.71175
5.77893
5.84505
5.90995
5.97348
6.03552
6.09592
6.15456
6.2113
6.266
6.31852
6.36872
6.41647
6.46165
6.50414
6.54376
6.58038
6.61391
6.64424
6.67126
6.69489
6.71503
6.73161
6.74455
6.75378
6.75925
6.76091
6.75871
6.75263
6.74263
6.72871
6.71085
6.68903
6.66327
6.63357
6.59992
6.56234
6.52084
6.47541
6.42606
6.3728
6.31563
6.25455
6.18956
6.12061
6.04767
5.97069
5.88961
5.80437
5.7149
5.6211
5.52287
5.42011
5.31272
5.2006
5.08367
4.96185
4.8351
4.70341
4.56684
4.42548
4.27953
4.12928
3.97512
3.81761
3.65743
3.49544
3.33266
3.17021
3.00928
2.85108
2.69677
2.54737
2.40372
2.26644
2.13594
2.01238
1.89572
1.78579
1.68225
1.58475
1.49285
1.40616
1.32427
1.24686
1.17358
1.10409
1.03819
0.975904
0.917208
0.862059
0.810374
0.762123
0.411104
0.511926
0.584195
0.637171
0.677487
0.708723
0.733088
0.751966
0.766483
0.777776
0.786881
0.794792
0.80249
0.810958
0.821164
0.834029
0.85037
0.870835
0.895848
0.925583
0.959975
0.998778
1.04163
1.08812
1.13787
1.19053
1.24581
1.30346
1.3633
1.42519
1.489
1.55466
1.62207
1.69119
1.76194
1.83425
1.90804
1.98322
2.05968
2.13731
2.21598
2.29554
2.37585
2.45676
2.53812
2.61979
2.70164
2.78353
2.86537
2.94704
3.02848
3.10961
3.19038
3.27077
3.35074
3.43029
3.50942
3.58815
3.66648
3.74445
3.82208
3.89943
3.97651
4.05339
4.13009
4.20667
4.28315
4.35959
4.43601
4.51245
4.58891
4.66537
4.74185
4.81835
4.89489
4.97144
5.04796
5.12442
5.20078
5.277
5.35301
5.42875
5.50415
5.57911
5.65354
5.72735
5.80042
5.87265
5.94392
6.01413
6.08311
6.15065
6.21665
6.28097
6.34348
6.40403
6.46248
6.51867
6.57246
6.62371
6.67227
6.718
6.76075
6.80038
6.83676
6.86977
6.89929
6.92522
6.94745
6.96588
6.98042
6.991
6.99753
6.99997
6.99824
6.9923
6.98211
6.96763
6.94883
6.92571
6.89823
6.86639
6.83018
6.78958
6.74461
6.69525
6.64148
6.58331
6.52073
6.45371
6.38223
6.30626
6.22574
6.14063
6.05085
5.95634
5.857
5.75276
5.64351
5.52916
5.40964
5.28487
5.1548
5.01942
4.87876
4.73291
4.58201
4.42632
4.26617
4.10205
3.93455
3.76443
3.59262
3.42022
3.24842
3.07856
2.91197
2.74995
2.59368
2.44415
2.30211
2.16804
2.04211
1.92428
1.81426
1.71161
1.61575
1.52607
1.44195
1.36278
1.28804
1.21725
1.14997
1.08576
1.02454
0.966319
0.911108
0.858895
0.80965
0.763392
0.423237
0.526203
0.600304
0.65493
0.696831
0.729679
0.755614
0.776184
0.792678
0.806177
0.817649
0.828005
0.838129
0.848887
0.861121
0.875621
0.893086
0.914077
0.938977
0.967971
1.00105
1.03805
1.07871
1.12268
1.16966
1.21933
1.27145
1.32582
1.38228
1.44072
1.50109
1.56334
1.62746
1.69342
1.76122
1.83079
1.90209
1.97507
2.04966
2.12576
2.20326
2.28202
2.36192
2.4428
2.52451
2.6069
2.68982
2.77315
2.85674
2.94048
3.02426
3.10801
3.19164
3.27509
3.35832
3.4413
3.524
3.60641
3.68853
3.77037
3.85194
3.93327
4.01439
4.09531
4.17607
4.25671
4.33727
4.41776
4.49824
4.5787
4.65913
4.73956
4.82001
4.90046
4.98094
5.06144
5.14185
5.22216
5.30234
5.38235
5.46212
5.5416
5.62071
5.69935
5.77745
5.8549
5.93159
6.00741
6.08224
6.15596
6.22841
6.29943
6.36889
6.43665
6.50255
6.56644
6.62818
6.6876
6.74456
6.79889
6.85044
6.89906
6.94459
6.98688
7.0258
7.06119
7.09293
7.1209
7.14498
7.16504
7.18099
7.19273
7.20017
7.20322
7.20182
7.19589
7.18538
7.17024
7.15042
7.12588
7.0966
7.06254
7.02368
6.98
6.93148
6.8781
6.81984
6.75667
6.68858
6.61553
6.53749
6.4544
6.36622
6.27288
6.17431
6.07042
5.96113
5.84635
5.726
5.6
5.46828
5.3308
5.18757
5.03862
4.88406
4.72407
4.55893
4.38901
4.21484
4.03706
3.85652
3.6742
3.49128
3.30908
3.12904
2.95266
2.78143
2.61673
2.45973
2.31139
2.17231
2.0428
1.92283
1.8121
1.71006
1.61601
1.52914
1.44858
1.37351
1.30314
1.23676
1.17377
1.1136
1.05574
1.00022
0.947043
0.89622
0.84777
0.80172
0.758134
0.430927
0.5351
0.610171
0.665699
0.708526
0.742362
0.76957
0.791802
0.810328
0.826193
0.840306
0.853499
0.866551
0.880205
0.895159
0.912058
0.931459
0.953804
0.979398
1.00839
1.04079
1.07649
1.11529
1.15694
1.2012
1.24783
1.29666
1.34753
1.40037
1.4551
1.51169
1.57017
1.63059
1.69299
1.75743
1.82379
1.89207
1.9623
2.03443
2.1084
2.18412
2.26147
2.34034
2.42058
2.50204
2.58457
2.66801
2.75222
2.83706
2.92238
3.00807
3.09401
3.1801
3.26627
3.35243
3.43852
3.52451
3.61035
3.69603
3.78152
3.86682
3.95193
4.03686
4.12163
4.20626
4.29077
4.37518
4.45952
4.54381
4.62802
4.7122
4.79633
4.88043
4.9645
5.04852
5.13248
5.21633
5.30004
5.38357
5.46687
5.5499
5.63258
5.71484
5.7966
5.87777
5.95826
6.03795
6.11674
6.19451
6.27113
6.34646
6.42035
6.49266
6.56325
6.63195
6.69861
6.76309
6.8252
6.8848
6.94172
6.99579
7.04686
7.09475
7.13931
7.18038
7.2178
7.25144
7.28115
7.3068
7.32825
7.34537
7.35807
7.36622
7.36973
7.3685
7.36246
7.35152
7.33561
7.31467
7.28864
7.25748
7.22114
7.17958
7.13276
7.08065
7.02321
6.96041
6.8922
6.81857
6.73945
6.65481
6.56458
6.4687
6.3671
6.2597
6.14642
6.02717
5.90187
5.77043
5.6328
5.48894
5.33883
5.18254
5.02015
4.85186
4.67795
4.49882
4.31501
4.12721
3.93628
3.74329
3.54948
3.35628
3.16525
2.97808
2.79642
2.62189
2.45591
2.29964
2.15392
2.01921
1.89562
1.78287
1.68041
1.58746
1.50305
1.42613
1.35563
1.29051
1.22981
1.17267
1.11834
1.06608
1.01541
0.96644
0.91911
0.87343
0.829448
0.787238
0.746914
0.434445
0.53898
0.614214
0.669908
0.713078
0.747611
0.775931
0.799725
0.820266
0.838574
0.855507
0.871816
0.888177
0.905202
0.923445
0.943393
0.965448
0.989917
1.017
1.04679
1.07926
1.11434
1.15188
1.19169
1.23363
1.27753
1.32327
1.37079
1.42014
1.47118
1.5239
1.57843
1.63489
1.69337
1.75395
1.81666
1.88154
1.9486
2.01785
2.08924
2.1627
2.23815
2.31549
2.39457
2.47526
2.5574
2.64085
2.72545
2.81104
2.89747
2.9846
3.0723
3.16045
3.24893
3.33764
3.4265
3.51544
3.60439
3.69329
3.78212
3.87084
3.95943
4.04789
4.13621
4.22439
4.31244
4.40039
4.48823
4.57595
4.66357
4.75109
4.83851
4.92582
5.01302
5.10009
5.187
5.27374
5.36025
5.44651
5.53246
5.61807
5.70325
5.78796
5.8721
5.95561
6.03838
6.12032
6.20132
6.28127
6.36004
6.4375
6.51352
6.58795
6.66064
6.73144
6.8002
6.86674
6.93092
6.99256
7.05148
7.10753
7.16052
7.21029
7.25665
7.29946
7.33853
7.3737
7.40482
7.43174
7.4543
7.47237
7.48581
7.49449
7.49829
7.4971
7.49082
7.47934
7.46259
7.44046
7.4129
7.37982
7.34118
7.29689
7.24693
7.19122
7.12972
7.06238
6.98916
6.90999
6.82483
6.73361
6.63626
6.53272
6.42291
6.30674
6.18413
6.05499
5.91925
5.77684
5.62772
5.47188
5.30935
5.14022
4.96468
4.783
4.59557
4.40293
4.20579
4.00502
3.80173
3.59722
3.393
3.19075
2.9923
2.79951
2.61423
2.43811
2.2726
2.11876
1.9773
1.84846
1.73211
1.62775
1.53457
1.45153
1.37745
1.31108
1.25117
1.1965
1.14596
1.09854
1.05335
1.0094
0.966567
0.924745
0.883847
0.843878
0.804905
0.767046
0.730458
0.433769
0.538096
0.612941
0.668387
0.711612
0.746615
0.775903
0.801203
0.823792
0.844666
0.864631
0.884357
0.904413
0.925282
0.947368
0.970998
0.996415
1.02378
1.05317
1.0846
1.11801
1.15331
1.19039
1.22912
1.26941
1.31123
1.35439
1.39879
1.44457
1.49182
1.54066
1.59122
1.64366
1.69814
1.75478
1.81367
1.8749
1.93853
2.00457
2.07302
2.14386
2.217
2.29237
2.36986
2.44933
2.53064
2.61364
2.69817
2.78406
2.87117
2.95931
3.04835
3.13814
3.22854
3.31942
3.41066
3.50218
3.59386
3.68563
3.77744
3.86921
3.96091
4.05251
4.14399
4.23532
4.32652
4.41756
4.50844
4.59915
4.68967
4.78
4.87013
4.96005
5.04974
5.13918
5.22836
5.31724
5.40579
5.49397
5.58175
5.66908
5.75591
5.84217
5.9278
6.01273
6.09688
6.18015
6.26244
6.34367
6.4237
6.50242
6.5797
6.65539
6.72937
6.80147
6.87155
6.93944
7.00497
7.06798
7.12828
7.18571
7.24007
7.2912
7.3389
7.38299
7.4233
7.45965
7.49185
7.51974
7.54316
7.56193
7.57591
7.58494
7.58888
7.5876
7.58098
7.56888
7.5512
7.52783
7.49867
7.46365
7.42266
7.37563
7.32249
7.26317
7.1976
7.12571
7.04745
6.96274
6.87152
6.77372
6.66926
6.55806
6.44004
6.31512
6.18322
6.04425
5.89814
5.74486
5.58439
5.41674
5.242
5.06034
4.872
4.67736
4.47695
4.27146
4.06177
3.84899
3.63445
3.41973
3.2066
2.99703
2.79305
2.59672
2.40996
2.23447
2.07158
1.92222
1.78688
1.66555
1.55783
1.46295
1.37987
1.30735
1.24401
1.18845
1.13927
1.09514
1.05484
1.01725
0.981309
0.945927
0.911212
0.876873
0.842768
0.808878
0.775281
0.742132
0.709626
0.429508
0.533087
0.607057
0.661862
0.704855
0.740147
0.770301
0.797067
0.821711
0.845194
0.868263
0.891512
0.915411
0.940326
0.966526
0.994195
1.02343
1.05427
1.08668
1.12058
1.15587
1.19244
1.23019
1.26907
1.30879
1.34923
1.39049
1.43263
1.4758
1.52017
1.56592
1.61324
1.66233
1.7134
1.7666
1.8221
1.88001
1.94043
2.00342
2.069
2.13719
2.20794
2.28118
2.35683
2.43478
2.51489
2.59703
2.68102
2.76671
2.85392
2.94249
3.03225
3.12302
3.21465
3.30699
3.3999
3.49323
3.58688
3.68073
3.7747
3.8687
3.96267
4.05655
4.15031
4.24393
4.33735
4.43057
4.52354
4.61624
4.70866
4.80076
4.89255
4.98398
5.07505
5.16573
5.25601
5.34585
5.43524
5.52415
5.61253
5.70036
5.78759
5.87418
5.96007
6.0452
6.1295
6.2129
6.29532
6.37666
6.45683
6.5357
6.61317
6.68911
6.76337
6.83582
6.90631
6.97467
7.04074
7.10435
7.16531
7.22345
7.27858
7.33049
7.37901
7.42394
7.46508
7.50223
7.5352
7.5638
7.58784
7.60714
7.62152
7.6308
7.63483
7.63343
7.62647
7.61379
7.59525
7.57073
7.54011
7.50327
7.4601
7.41051
7.3544
7.29167
7.22225
7.14606
7.063
6.97301
6.876
6.77188
6.66059
6.54203
6.41611
6.28276
6.1419
5.99345
5.83736
5.67361
5.50222
5.32324
5.13683
4.9432
4.74273
4.53589
4.32336
4.106
3.88491
3.66145
3.4372
3.21404
2.99401
2.77934
2.57226
2.37495
2.18935
2.01708
1.85931
1.71673
1.58952
1.47738