/*--------------------------------*- C++ -*----------------------------------*\
  =========                 |
  \\      /  F ield         | OpenFOAM: The Open Source CFD Toolbox
   \\    /   O peration     | Website:  https://openfoam.org
    \\  /    A nd           | Version:  12
     \\/     M anipulation  |
\*---------------------------------------------------------------------------*/
FoamFile
{
    format      ascii;
    class       volScalarField;
    location    "0.06";
    object      nut;
}
// * * * * * * * * * * * * * * * * * * * * * * * * * * * * * * * * * * * * * //

dimensions      [0 2 -1 0 0 0 0];

internalField   nonuniform List<scalar> 
12225
(
4.04767e-05
3.83178e-05
3.62504e-05
3.442e-05
3.29521e-05
3.1898e-05
3.12569e-05
3.09949e-05
3.106e-05
3.13932e-05
3.19358e-05
3.26342e-05
3.34424e-05
3.43222e-05
3.52455e-05
3.61872e-05
3.71633e-05
3.86444e-05
0.000281047
0.000209264
0.000176264
0.000157436
0.000146268
0.000139683
0.000135789
0.000133426
0.000131911
0.000130854
0.00013004
0.000129354
0.000128737
0.00012816
0.000127625
0.000127066
0.000126734
0.000125753
0.000556047
0.000419904
0.000349808
0.000304726
0.000272434
0.000247966
0.000228745
0.000213275
0.00020064
0.000190231
0.000181607
0.000174428
0.000168424
0.00016337
0.000159091
0.000155378
0.000152198
0.00014896
0.000740308
0.000625818
0.000544109
0.000484986
0.000439752
0.000403625
0.000373807
0.000348561
0.000326797
0.000307819
0.00029115
0.000276442
0.000263422
0.000251855
0.000241537
0.000232227
0.000223797
0.000215825
0.000817069
0.000759139
0.000700539
0.000648565
0.000603878
0.000565556
0.000532435
0.000503462
0.00047781
0.00045487
0.000434194
0.000415444
0.000398356
0.000382713
0.000368323
0.000354978
0.000342531
0.000330792
0.0008421
0.000819686
0.00078992
0.000757597
0.000725538
0.00069514
0.000666932
0.00064097
0.000617111
0.000595152
0.000574888
0.000556129
0.000538705
0.000522462
0.000507259
0.000492949
0.000479417
0.000466666
0.000849261
0.000841807
0.00082974
0.000814182
0.000796471
0.000777745
0.000758824
0.00074022
0.000722218
0.000704965
0.000688517
0.000672882
0.000658034
0.000643929
0.000630513
0.000617721
0.000605503
0.000593972
0.00085112
0.000848747
0.000844479
0.000838233
0.00083024
0.000820885
0.000810583
0.000799698
0.00078852
0.000777265
0.000766086
0.00075509
0.000744343
0.000733884
0.000723732
0.000713891
0.00070437
0.00069532
0.00085156
0.000850665
0.000849169
0.000846885
0.000843738
0.000839753
0.000835025
0.00082968
0.000823854
0.000817676
0.000811257
0.00080469
0.000798053
0.000791402
0.000784784
0.000778231
0.000771781
0.000765571
0.000851652
0.000851133
0.000850468
0.000849563
0.000848345
0.000846769
0.000844821
0.000842512
0.000839872
0.000836941
0.000833766
0.00083039
0.000826858
0.000823208
0.000819475
0.000815689
0.000811886
0.000808163
0.000851668
0.00085123
0.000850778
0.000850278
0.000849697
0.000849005
0.00084818
0.000847207
0.000846081
0.000844805
0.000843386
0.000841836
0.000840169
0.000838401
0.000836548
0.000834627
0.000832657
0.000830696
0.000851669
0.000851245
0.000850835
0.000850429
0.000850013
0.000849574
0.000849099
0.000848577
0.000847999
0.00084736
0.000846657
0.000845892
0.000845065
0.000844182
0.000843247
0.000842267
0.000841251
0.000840235
0.000851668
0.000851245
0.000850843
0.000850459
0.000850088
0.000849725
0.000849364
0.000849
0.000848626
0.00084824
0.000847837
0.000847415
0.000846973
0.000846511
0.000846029
0.000845528
0.000845012
0.000844501
0.000851667
0.000851242
0.000850839
0.000850458
0.000850096
0.000849751
0.00084942
0.000849101
0.000848792
0.000848489
0.000848192
0.000847899
0.000847608
0.000847318
0.000847029
0.00084674
0.000846453
0.00084618
0.000851666
0.000851239
0.000850835
0.000850452
0.00085009
0.000849746
0.000849419
0.000849108
0.000848811
0.000848527
0.000848256
0.000847995
0.000847745
0.000847505
0.000847273
0.000847049
0.000846835
0.000846641
0.000851665
0.000851236
0.000850831
0.000850447
0.000850083
0.000849737
0.000849409
0.000849098
0.000848801
0.000848519
0.000848251
0.000847995
0.000847751
0.000847518
0.000847296
0.000847085
0.000846885
0.000846707
0.000851664
0.000851235
0.000850828
0.000850442
0.000850077
0.00084973
0.000849401
0.000849088
0.00084879
0.000848507
0.000848238
0.000847981
0.000847737
0.000847503
0.000847281
0.00084707
0.00084687
0.000846693
0.000851663
0.000851234
0.000850826
0.00085044
0.000850073
0.000849725
0.000849395
0.000849081
0.000848783
0.000848499
0.000848228
0.00084797
0.000847724
0.00084749
0.000847266
0.000847053
0.000846852
0.000846673
0.000851663
0.000851233
0.000850825
0.000850439
0.000850072
0.000849724
0.000849393
0.000849079
0.00084878
0.000848495
0.000848224
0.000847965
0.000847718
0.000847483
0.000847258
0.000847044
0.000846841
0.000846662
0.000851664
0.000851234
0.000850826
0.00085044
0.000850074
0.000849727
0.000849396
0.000849082
0.000848783
0.000848498
0.000848226
0.000847967
0.000847719
0.000847483
0.000847256
0.00084704
0.000846835
0.000846652
0.000851664
0.000851235
0.000850829
0.000850443
0.000850078
0.00084973
0.000849399
0.000849083
0.00084878
0.00084849
0.000848211
0.000847942
0.000847682
0.00084743
0.000847185
0.000846948
0.000846719
0.000846509
0.000851665
0.000851237
0.00085083
0.000850442
0.000850069
0.000849707
0.000849351
0.000849
0.000848648
0.000848295
0.000847936
0.000847572
0.000847201
0.000846822
0.000846436
0.000846043
0.000845645
0.000845256
0.000851664
0.000851228
0.000850794
0.000850348
0.00084987
0.000849346
0.000848763
0.000848112
0.00084739
0.000846595
0.000845731
0.0008448
0.00084381
0.000842766
0.000841677
0.00084055
0.000839395
0.000838235
0.000851634
0.000851073
0.000850343
0.000849364
0.00084808
0.000846469
0.000844533
0.000842295
0.000839789
0.000837057
0.000834141
0.000831083
0.000827919
0.000824684
0.000821407
0.000818113
0.000814826
0.000811593
0.000851287
0.000849596
0.000846721
0.000842579
0.000837264
0.000830982
0.000823976
0.000816478
0.000808682
0.000800748
0.000792797
0.000784917
0.000777175
0.000769616
0.000762269
0.000755153
0.000748285
0.000741716
0.000848318
0.000839426
0.000826162
0.000810019
0.000792362
0.000774231
0.000756327
0.000739051
0.000722603
0.000707061
0.000692438
0.000678706
0.000665818
0.00065372
0.000642355
0.00063167
0.000621615
0.000612202
0.000828548
0.000788843
0.000746035
0.000705705
0.000669467
0.000637505
0.00060945
0.000584744
0.000562849
0.000543311
0.00052576
0.000509896
0.000495479
0.000482314
0.000470242
0.000459132
0.000448879
0.000439435
0.000730726
0.000627346
0.000554509
0.000501062
0.000460321
0.00042835
0.000402637
0.000381472
0.000363713
0.000348583
0.000335538
0.00032418
0.000314209
0.000305398
0.000297566
0.000290569
0.000284287
0.000278637
0.000439249
0.000338471
0.000287936
0.00025687
0.000236363
0.000222512
0.000212995
0.000206314
0.000201508
0.000197961
0.000195273
0.000193179
0.000191501
0.000190118
0.000188948
0.000187934
0.000187037
0.000186211
7.16431e-05
6.90587e-05
6.65522e-05
6.41645e-05
6.19883e-05
6.00783e-05
5.84563e-05
5.7121e-05
5.60567e-05
5.52396e-05
5.46427e-05
5.42382e-05
5.39993e-05
5.39011e-05
5.3921e-05
5.4039e-05
5.42377e-05
5.45007e-05
2.18332e-05
0.00016028
0.000187757
0.000202164
4.61567e-05
4.67268e-05
4.71119e-05
4.74263e-05
4.75724e-05
4.75179e-05
4.72572e-05
4.67941e-05
4.61925e-05
0.000200381
0.000203465
0.000203017
0.000198772
0.000196799
0.000196911
0.000201339
0.000200683
4.5131e-05
0.000206809
4.69175e-05
4.82281e-05
5.02473e-05
5.29298e-05
5.57282e-05
5.87684e-05
6.20464e-05
6.54768e-05
6.89447e-05
7.23531e-05
7.56363e-05
7.87562e-05
8.16942e-05
8.44439e-05
8.70068e-05
8.93892e-05
9.16005e-05
9.36517e-05
9.55551e-05
9.73233e-05
9.89687e-05
0.000100504
0.00010194
0.000103288
0.000104558
0.000105759
0.000106898
0.000107984
0.000109022
0.000110017
0.000110976
0.000111901
0.000112797
0.000113667
0.000114513
0.000115339
0.000116145
0.000116934
0.000117707
0.000118466
0.000119211
0.000119943
0.000120663
0.000121372
0.000122069
0.000122755
0.000123431
0.000124095
0.000124749
0.000125392
0.000126023
0.000126643
0.000127251
0.000127848
0.000128432
0.000129003
0.000129562
0.000130108
0.000130647
0.000131159
0.000131645
0.000132109
0.000132551
0.00013297
0.000133367
0.00013374
0.00013409
0.000134415
0.000134715
0.000134989
0.000135238
0.000135461
0.000135657
0.000135827
0.000135969
0.000136085
0.000136173
0.000136234
0.000136268
0.000136274
0.000136253
0.000136206
0.000136132
0.000136034
0.000135912
0.000135767
0.0001356
0.000135411
0.000135201
0.000134972
0.000134724
0.000134457
0.000134173
0.000133873
0.000133558
0.000133228
0.000132884
0.000132527
0.000132157
0.000131775
0.000131382
0.000130978
0.000130563
0.000130136
0.000129699
0.00012925
0.000128788
0.000128314
0.000127826
0.000127322
0.0001268
0.000126259
0.000125696
0.000125108
0.00012449
0.00012384
0.000123152
0.000122421
0.000121641
0.000120804
0.000119904
0.000118929
0.000117867
0.000116697
0.000115336
0.000113891
0.000113321
0.000112886
0.000112378
0.000111765
0.000111034
0.000110176
0.000109184
0.000108058
0.000106798
0.000105411
0.000103905
0.000102291
0.000100582
9.87939e-05
9.69431e-05
9.5046e-05
9.3119e-05
9.11772e-05
8.92354e-05
8.73108e-05
8.54147e-05
8.35232e-05
8.15799e-05
7.96826e-05
7.77932e-05
7.58988e-05
7.39936e-05
7.20717e-05
7.01102e-05
6.80983e-05
6.58465e-05
3.12509e-05
9.53274e-05
0.000149483
0.000189163
0.000214284
0.000236609
0.000253349
0.000264988
0.000272128
0.000275376
0.0002753
0.000272455
0.000267821
0.000267209
0.000263958
0.000257229
0.00024631
0.000241446
0.000241619
0.000248899
0.000251071
0.000252084
0.000271047
0.000278785
0.000290369
0.000298982
0.000305442
0.000311412
0.000318436
0.000327586
0.000339503
0.000354418
0.000372251
0.000392715
0.000415402
0.000439829
0.000465475
0.000491813
0.000518348
0.000544635
0.00057031
0.000595089
0.00061878
0.000641266
0.000662501
0.000682489
0.000701274
0.000718927
0.000735532
0.000751181
0.000765969
0.000779987
0.000793319
0.000806047
0.000818243
0.000829973
0.000841296
0.000852265
0.000862927
0.000873322
0.000883489
0.000893458
0.000903258
0.000912913
0.000922443
0.000931866
0.000941197
0.000950448
0.000959629
0.000968748
0.000977808
0.000986815
0.00099577
0.00100467
0.00101353
0.00102232
0.00103107
0.00103976
0.00104839
0.00105697
0.00106531
0.00107322
0.00108077
0.0010881
0.00109524
0.0011022
0.00110897
0.00111553
0.00112187
0.00112799
0.00113387
0.00113949
0.00114485
0.00114994
0.00115473
0.00115923
0.00116342
0.00116729
0.00117083
0.00117405
0.00117693
0.00117946
0.00118166
0.0011835
0.00118501
0.00118616
0.00118698
0.00118746
0.00118761
0.00118743
0.00118694
0.00118615
0.00118506
0.0011837
0.00118207
0.0011802
0.0011781
0.0011758
0.00117331
0.00117065
0.00116784
0.00116492
0.0011619
0.00115881
0.00115566
0.0011525
0.00114933
0.00114619
0.00114309
0.00114005
0.0011371
0.00113425
0.00113151
0.00112888
0.00112638
0.00112399
0.00112171
0.00111951
0.00111737
0.00111525
0.00111309
0.00111081
0.00110832
0.00110547
0.00110205
0.00109773
0.00109183
0.00108271
0.00106865
0.00105151
0.00103263
0.00101212
0.000989933
0.000966008
0.000940323
0.000912894
0.000883786
0.000853111
0.000821029
0.000787737
0.000753468
0.000718475
0.000683025
0.000647389
0.000611832
0.000576607
0.000541951
0.000508081
0.000475182
0.000443371
0.000412503
0.000380935
0.000348497
0.000318826
0.000292372
0.000269059
0.000248512
0.000230386
0.000213433
0.000200217
4.44764e-05
0.000120789
0.000192029
0.0002541
0.000306751
0.000350557
0.000385847
0.00041306
0.000432765
0.000445615
0.000452302
0.000453569
0.000450351
0.000442289
0.000430487
0.000416621
0.000402851
0.000392522
0.000387471
0.000388901
0.000396111
0.00040902
0.000427334
0.000446604
0.000465675
0.000483718
0.000501711
0.000521426
0.000544642
0.00057266
0.00060614
0.00064511
0.000689079
0.000737198
0.000788414
0.000841607
0.000895696
0.000949719
0.00100287
0.00105454
0.00110427
0.0011518
0.00119697
0.00123976
0.0012802
0.00131839
0.00135448
0.0013886
0.00142094
0.00145164
0.00148086
0.00150876
0.00153547
0.00156113
0.00158584
0.00160973
0.00163288
0.00165538
0.00167732
0.00169876
0.00171977
0.0017404
0.0017607
0.00178072
0.0018005
0.00182006
0.00183943
0.00185865
0.00187772
0.00189666
0.00191549
0.0019342
0.00195282
0.00197133
0.00198975
0.00200805
0.00202626
0.00204435
0.00206216
0.0020795
0.00209644
0.00211298
0.00212914
0.00214495
0.00216041
0.00217551
0.00219022
0.00220454
0.00221842
0.00223185
0.00224479
0.00225723
0.00226913
0.00228047
0.00229122
0.00230137
0.00231089
0.00231976
0.00232796
0.00233548
0.0023423
0.0023484
0.00235378
0.00235844
0.00236235
0.00236552
0.00236796
0.00236965
0.00237062
0.00237086
0.0023704
0.00236925
0.00236742
0.00236494
0.00236183
0.0023581
0.0023538
0.00234893
0.00234354
0.00233765
0.00233128
0.00232449
0.00231728
0.00230971
0.00230179
0.00229356
0.00228505
0.00227629
0.0022673
0.0022581
0.00224872
0.00223916
0.00222943
0.00221952
0.00220944
0.00219916
0.00218864
0.00217783
0.00216668
0.0021551
0.00214297
0.00213016
0.00211648
0.00210169
0.00208544
0.00206731
0.00204643
0.00202193
0.00199288
0.00196031
0.00192492
0.00188679
0.00184583
0.001802
0.00175527
0.00170569
0.0016534
0.00159861
0.0015416
0.0014827
0.00142231
0.00136083
0.0012987
0.00123633
0.00117412
0.00111247
0.0010517
0.000992121
0.000933979
0.000877415
0.000822322
0.000767932
0.000713172
0.000658091
0.000604993
0.000554379
0.000506306
0.000460584
0.000415629
0.000372006
5.6104e-05
0.000148249
0.000238814
0.000318845
0.000387082
0.00044386
0.000489846
0.000525805
0.000552529
0.000570812
0.000581423
0.000585105
0.000582563
0.000573548
0.000559641
0.000542956
0.000526191
0.00051239
0.000504305
0.000505003
0.000515351
0.000534023
0.000558489
0.000585916
0.000614836
0.000645219
0.000678206
0.000715419
0.000758301
0.000807694
0.000863702
0.000925759
0.000992818
0.00106357
0.00113663
0.00121068
0.00128457
0.00135737
0.00142834
0.00149696
0.00156291
0.00162598
0.00168612
0.00174334
0.00179774
0.00184945
0.00189862
0.00194542
0.00199005
0.00203268
0.00207349
0.00211264
0.00215028
0.00218658
0.00222166
0.00225566
0.00228868
0.00232084
0.00235224
0.00238295
0.00241307
0.00244266
0.0024718
0.00250053
0.0025289
0.00255697
0.00258476
0.00261232
0.00263967
0.00266682
0.00269381
0.00272063
0.0027473
0.00277383
0.00280021
0.00282643
0.00285249
0.00287817
0.0029034
0.0029282
0.00295258
0.00297654
0.00300007
0.00302316
0.00304579
0.00306793
0.00308956
0.00311063
0.00313111
0.00315097
0.00317015
0.00318863
0.00320636
0.00322331
0.00323943
0.0032547
0.00326908
0.00328252
0.00329502
0.00330652
0.00331701
0.00332646
0.00333485
0.00334216
0.00334837
0.00335348
0.00335747
0.00336035
0.00336211
0.00336277
0.00336232
0.0033608
0.00335821
0.00335456
0.00334989
0.00334421
0.00333755
0.00332993
0.00332138
0.00331194
0.00330162
0.00329047
0.00327852
0.00326578
0.0032523
0.0032381
0.0032232
0.00320764
0.00319142
0.00317458
0.00315712
0.00313904
0.00312033
0.00310099
0.00308099
0.0030603
0.00303888
0.00301665
0.00299354
0.00296946
0.00294424
0.00291777
0.00288983
0.00286014
0.00282842
0.00279433
0.00275744
0.00271705
0.00267287
0.00262524
0.00257443
0.00252042
0.00246317
0.00240266
0.00233891
0.00227205
0.00220229
0.00212991
0.00205529
0.00197884
0.00190104
0.00182238
0.00174335
0.00166442
0.00158606
0.00150866
0.0014326
0.00135818
0.00128566
0.00121518
0.00114676
0.00108011
0.0010147
0.000949595
0.000885816
0.000823748
0.000763435
0.000704616
0.000645888
0.000586708
6.7248e-05
0.000177721
0.00028794
0.000384023
0.000464594
0.000530612
0.000583397
0.000624235
0.000654294
0.000674627
0.000686176
0.000689849
0.000685632
0.000674747
0.000658812
0.000640193
0.00062246
0.00060919
0.000603782
0.000608604
0.000623991
0.00064837
0.000679418
0.000715179
0.000754777
0.000798435
0.000847072
0.000901743
0.000963158
0.00103142
0.00110602
0.00118592
0.00126983
0.00135634
0.00144409
0.00153189
0.00161874
0.00170385
0.00178664
0.00186671
0.00194379
0.00201777
0.0020886
0.00215634
0.00222107
0.00228292
0.00234205
0.00239863
0.00245282
0.0025048
0.00255475
0.00260283
0.00264921
0.00269403
0.00273745
0.00277959
0.00282058
0.00286054
0.00289958
0.00293779
0.00297527
0.0030121
0.00304835
0.0030841
0.0031194
0.00315431
0.00318887
0.00322312
0.00325711
0.00329085
0.00332437
0.00335768
0.00339081
0.00342375
0.0034565
0.00348906
0.00352123
0.00355298
0.00358432
0.00361524
0.00364575
0.00367581
0.00370542
0.00373454
0.00376314
0.00379118
0.00381863
0.00384543
0.00387154
0.0038969
0.00392147
0.0039452
0.00396803
0.00398992
0.00401081
0.00403066
0.00404941
0.00406702
0.00408344
0.00409863
0.00411254
0.00412514
0.0041364
0.00414627
0.00415474
0.00416177
0.00416735
0.00417147
0.00417413
0.00417531
0.00417502
0.00417327
0.00417007
0.00416542
0.00415934
0.00415184
0.00414296
0.00413269
0.00412108
0.00410814
0.00409391
0.00407839
0.00406163
0.00404365
0.00402446
0.0040041
0.00398257
0.00395991
0.00393612
0.00391123
0.00388523
0.00385812
0.00382988
0.00380049
0.00376992
0.00373817
0.00370515
0.0036708
0.00363502
0.00359777
0.00355887
0.00351818
0.0034756
0.00343075
0.0033838
0.00333431
0.00328193
0.00322632
0.00316733
0.00310506
0.00303956
0.00297083
0.00289887
0.00282371
0.00274547
0.00266433
0.00258058
0.00249459
0.00240677
0.00231762
0.00222763
0.00213734
0.00204725
0.00195784
0.00186955
0.00178278
0.00169786
0.00161508
0.00153465
0.00145672
0.00138132
0.00130835
0.00123753
0.00116821
0.0011004
0.00103437
0.000970072
0.000907249
0.000844893
0.000782498
7.80703e-05
0.000207556
0.000336242
0.000446545
0.000537539
0.000610937
0.0006687
0.000712609
0.000744209
0.000764826
0.000775509
0.000777235
0.000770831
0.000758118
0.000741363
0.000723473
0.000707971
0.00069847
0.000697963
0.000708091
0.000728832
0.000758921
0.000796734
0.000841029
0.000891287
0.000947622
0.00101045
0.00108009
0.00115653
0.00123925
0.00132734
0.00141963
0.00151481
0.00161158
0.00170878
0.00180539
0.0019006
0.00199376
0.00208441
0.00217224
0.00225703
0.0023387
0.00241721
0.00249262
0.00256499
0.00263444
0.00270112
0.00276516
0.00282672
0.00288597
0.00294306
0.00299816
0.00305142
0.00310299
0.00315301
0.00320162
0.00324895
0.00329512
0.00334024
0.00338443
0.00342776
0.00347035
0.00351227
0.00355359
0.00359439
0.00363472
0.00367464
0.0037142
0.00375344
0.00379239
0.00383109
0.00386955
0.00390779
0.00394583
0.00398365
0.00402113
0.00405821
0.00409492
0.00413125
0.00416719
0.00420274
0.00423785
0.00427252
0.00430668
0.00434032
0.00437338
0.00440581
0.00443755
0.00446855
0.00449876
0.0045281
0.00455652
0.00458395
0.00461034
0.0046356
0.0046597
0.00468255
0.0047041
0.00472429
0.00474305
0.00476034
0.00477609
0.00479025
0.00480279
0.00481364
0.00482278
0.00483017
0.0048358
0.00483962
0.00484164
0.00484185
0.00484022
0.00483677
0.00483148
0.00482438
0.00481545
0.00480472
0.0047922
0.00477789
0.00476182
0.00474401
0.00472447
0.00470322
0.00468029
0.00465568
0.00462942
0.00460151
0.00457197
0.00454082
0.00450806
0.0044737
0.00443772
0.00440009
0.00436079
0.0043198
0.00427712
0.00423267
0.00418636
0.00413811
0.00408795
0.00403563
0.00398106
0.00392441
0.00386537
0.00380387
0.00373968
0.00367261
0.00360248
0.00352922
0.00345285
0.00337339
0.00329089
0.00320542
0.00311708
0.00302609
0.00293272
0.00283733
0.00274033
0.00264221
0.0025435
0.00244471
0.00234637
0.00224897
0.00215295
0.00205872
0.0019666
0.00187689
0.0017898
0.00170549
0.00162407
0.00154555
0.00146987
0.00139686
0.00132615
0.00125731
0.00119052
0.00112572
0.00106268
0.00100074
0.000939671
8.85448e-05
0.000236347
0.000381298
0.000504035
0.000604127
0.000683883
0.000745788
0.000792054
0.000824588
0.000845053
0.000854973
0.000855345
0.000848024
0.000835193
0.000819503
0.000804088
0.000792372
0.000787585
0.000792179
0.000807396
0.000833243
0.000868908
0.00091334
0.000965698
0.00102551
0.00109257
0.00116674
0.00124773
0.00133497
0.00142761
0.0015246
0.00162475
0.00172689
0.00182989
0.00193279
0.00203474
0.00213508
0.00223328
0.00232896
0.00242187
0.00251183
0.00259876
0.00268263
0.00276347
0.00284134
0.00291634
0.00298859
0.00305819
0.0031253
0.00319006
0.00325261
0.00331309
0.00337166
0.00342845
0.00348361
0.00353726
0.00358953
0.00364055
0.00369043
0.00373927
0.00378719
0.00383427
0.00388061
0.00392629
0.00397137
0.00401594
0.00406005
0.00410375
0.0041471
0.00419013
0.00423288
0.00427538
0.00431766
0.00435971
0.00440148
0.00444289
0.00448397
0.00452473
0.00456517
0.00460528
0.00464503
0.00468439
0.00472334
0.00476183
0.00479982
0.00483725
0.00487406
0.00491021
0.00494561
0.00498021
0.00501393
0.0050467
0.00507844
0.00510908
0.00513854
0.00516675
0.00519362
0.00521908
0.00524305
0.00526546
0.00528624
0.0053053
0.00532259
0.00533803
0.00535157
0.00536315
0.00537272
0.00538024
0.00538568
0.00538899
0.00539016
0.00538917
0.00538598
0.0053806
0.00537301
0.00536321
0.00535119
0.00533696
0.00532052
0.00530188
0.00528104
0.00525803
0.00523285
0.00520551
0.00517602
0.00514438
0.0051106
0.00507469
0.00503667
0.00499655
0.00495431
0.00490995
0.00486343
0.00481469
0.00476376
0.00471064
0.00465527
0.00459751
0.00453726
0.00447477
0.00440982
0.00434234
0.00427233
0.00419969
0.00412435
0.00404618
0.00396512
0.00388109
0.00379409
0.00370416
0.00361139
0.00351589
0.00341781
0.00331738
0.00321489
0.00311072
0.0030053
0.00289912
0.00279271
0.00268662
0.00258137
0.00247748
0.00237538
0.00227547
0.00217807
0.00208343
0.00199176
0.00190317
0.00181775
0.00173553
0.00165648
0.00158053
0.00150753
0.00143721
0.00136913
0.0013033
0.00123968
0.00117811
0.00111815
0.00105977
9.86643e-05
0.000261044
0.000420164
0.000554283
0.000662924
0.000748821
0.000814919
0.000863854
0.000897918
0.000919163
0.000929275
0.000929964
0.000923437
0.000912176
0.00089902
0.000887106
0.00087963
0.000879454
0.000888687
0.000908449
0.000938923
0.000979653
0.00102993
0.00108903
0.00115637
0.00123141
0.00131355
0.00140209
0.00149617
0.00159479
0.00169688
0.00180136
0.00190719
0.00201341
0.00211922
0.00222392
0.00232695
0.00242789
0.00252641
0.00262228
0.00271536
0.00280557
0.00289287
0.00297729
0.00305886
0.00313765
0.00321376
0.0032873
0.00335837
0.0034271
0.00349361
0.00355805
0.00362054
0.0036812
0.00374019
0.0037976
0.00385359
0.00390825
0.00396171
0.00401408
0.00406545
0.00411594
0.00416562
0.00421459
0.00426293
0.00431071
0.00435799
0.00440485
0.00445133
0.00449749
0.00454336
0.00458898
0.00463438
0.00467954
0.0047244
0.00476899
0.00481333
0.00485743
0.00490128
0.00494488
0.00498819
0.0050312
0.00507387
0.00511614
0.00515799
0.00519934
0.00524013
0.00528031
0.00531979
0.00535851
0.00539638
0.00543332
0.00546924
0.00550406
0.00553767
0.00557
0.00560095
0.00563043
0.00565834
0.00568459
0.00570909
0.00573175
0.00575247
0.00577119
0.00578781
0.00580226
0.00581448
0.0058244
0.00583197
0.00583713
0.00583984
0.00584007
0.00583777
0.00583291
0.00582548
0.00581545
0.0058028
0.00578753
0.00576962
0.00574908
0.0057259
0.00570009
0.00567164
0.00564056
0.00560684
0.00557049
0.0055315
0.00548986
0.00544562
0.00539877
0.0053493
0.00529719
0.0052424
0.00518484
0.00512455
0.00506163
0.00499598
0.00492753
0.00485622
0.00478214
0.00470522
0.00462541
0.00454271
0.00445709
0.00436854
0.00427702
0.00418254
0.00408513
0.00398488
0.00388189
0.00377634
0.00366844
0.00355846
0.00344673
0.00333366
0.00321973
0.00310546
0.00299142
0.00287819
0.00276632
0.00265636
0.00254877
0.00244393
0.00234218
0.00224372
0.00214871
0.00205722
0.00196927
0.00188484
0.00180386
0.00172623
0.00165183
0.0015805
0.001512
0.0014459
0.00138216
0.00132075
0.00126156
0.00120431
0.00114905
0.000107764
0.000282764
0.000454367
0.000598731
0.000715288
0.000807124
0.000877595
0.000929726
0.000966179
0.000989351
0.00100104
0.00100358
0.000999379
0.000991063
0.000981488
0.000973664
0.000970542
0.000974708
0.000988088
0.0010118
0.00104619
0.00109104
0.00114578
0.00120972
0.0012821
0.00136211
0.00144891
0.00154156
0.00163907
0.00174043
0.00184459
0.0019506
0.00205754
0.00216461
0.00227112
0.00237648
0.00248023
0.00258199
0.00268149
0.00277853
0.00287298
0.00296474
0.00305379
0.00314013
0.00322378
0.0033048
0.00338325
0.00345921
0.00353279
0.00360409
0.00367322
0.00374029
0.00380542
0.00386873
0.00393034
0.00399037
0.00404894
0.00410616
0.00416214
0.00421699
0.00427081
0.00432372
0.00437578
0.00442711
0.00447778
0.00452787
0.00457745
0.0046266
0.00467537
0.00472382
0.00477201
0.00481996
0.00486771
0.00491522
0.00496253
0.00500968
0.00505667
0.00510352
0.00515024
0.0051968
0.00524319
0.00528938
0.00533533
0.005381
0.00542635
0.0054713
0.0055158
0.00555978
0.00560315
0.00564584
0.00568776
0.0057288
0.00576887
0.00580788
0.00584572
0.00588228
0.00591746
0.00595114
0.00598322
0.00601358
0.00604213
0.00606873
0.0060933
0.00611571
0.00613587
0.00615369
0.00616908
0.00618195
0.00619223
0.00619984
0.00620472
0.00620681
0.00620605
0.0062024
0.00619582
0.00618625
0.00617369
0.00615809
0.00613945
0.00611773
0.00609294
0.00606505
0.00603406
0.00599997
0.00596275
0.00592241
0.00587891
0.00583224
0.00578248
0.0057296
0.00567358
0.00561441
0.00555205
0.00548647
0.00541767
0.00534568
0.00527047
0.005192
0.00511025
0.00502525
0.00493698
0.00484544
0.00475066
0.00465265
0.00455144
0.00444711
0.00433972
0.00422941
0.00411635
0.00400075
0.00388289
0.00376309
0.00364176
0.00351936
0.00339642
0.00327354
0.00315133
0.00303045
0.00291152
0.00279515
0.00268183
0.00257202
0.00246603
0.00236407
0.00226626
0.00217262
0.00208307
0.00199751
0.00191579
0.00183772
0.00176311
0.00169177
0.00162347
0.00155797
0.00149487
0.00143411
0.00137569
0.00131952
0.00126543
0.00121351
0.000115686
0.000301453
0.000483867
0.00063734
0.000761197
0.000858813
0.000933904
0.00098985
0.00102965
0.00105559
0.0010702
0.00107596
0.0010754
0.00107116
0.00106601
0.00106278
0.00106416
0.00107253
0.00108968
0.00111675
0.00115419
0.00120191
0.00125944
0.00132606
0.00140092
0.00148309
0.00157158
0.00166538
0.00176348
0.00186487
0.00196863
0.00207386
0.00217978
0.0022857
0.00239102
0.00249524
0.00259795
0.00269884
0.00279766
0.00289422
0.00298841
0.00308014
0.00316938
0.0032561
0.00334032
0.00342207
0.00350141
0.00357841
0.00365313
0.00372567
0.00379612
0.00386458
0.00393115
0.00399594
0.00405905
0.00412061
0.00418071
0.00423946
0.00429698
0.00435336
0.00440871
0.00446312
0.0045167
0.00456953
0.0046217
0.00467329
0.00472439
0.00477506
0.00482537
0.00487539
0.00492518
0.00497479
0.00502421
0.00507351
0.00512274
0.00517192
0.00522107
0.00527022
0.00531935
0.00536847
0.00541755
0.00546657
0.00551549
0.00556428
0.00561288
0.00566122
0.00570925
0.00575689
0.00580405
0.00585064
0.00589657
0.00594174
0.00598602
0.00602931
0.0060715
0.00611246
0.00615207
0.0061902
0.00622674
0.00626154
0.00629448
0.00632543
0.00635426
0.00638083
0.00640503
0.00642673
0.00644584
0.00646223
0.00647582
0.00648651
0.0064942
0.00649882
0.0065003
0.00649855
0.00649352
0.00648515
0.0064734
0.00645822
0.00643958
0.00641744
0.00639178
0.00636257
0.00632979
0.00629343
0.00625346
0.00620987
0.00616264
0.00611176
0.00605725
0.00599909
0.00593727
0.00587177
0.00580258
0.00572967
0.00565303
0.00557268
0.0054886
0.00540077
0.0053092
0.0052139
0.0051149
0.00501222
0.00490592
0.00479606
0.00468274
0.00456609
0.00444627
0.00432351
0.00419807
0.00407029
0.00394055
0.00380932
0.00367714
0.00354462
0.00341242
0.00328126
0.00315188
0.00302502
0.00290136
0.00278152
0.00266602
0.00255523
0.00244941
0.00234865
0.00225293
0.00216213
0.00207604
0.00199437
0.00191684
0.00184312
0.0017729
0.00170591
0.00164184
0.00158039
0.00152118
0.0014642
0.00140944
0.00135684
0.0013063
0.00125794
0.000122291
0.000316879
0.000508361
0.000669742
0.000800211
0.00090336
0.000983198
0.0010434
0.00108696
0.00111669
0.00113531
0.00114542
0.00114956
0.00115032
0.00115032
0.00115217
0.0011583
0.00117087
0.00119154
0.00122142
0.00126102
0.00131033
0.00136895
0.0014362
0.00151122
0.00159305
0.00168069
0.00177313
0.0018694
0.00196856
0.00206976
0.00217221
0.00227522
0.00237818
0.00248057
0.00258195
0.00268198
0.00278037
0.00287691
0.00297142
0.00306379
0.00315395
0.00324184
0.00332745
0.00341077
0.00349183
0.00357067
0.00364733
0.00372188
0.00379438
0.00386491
0.00393356
0.00400041
0.00406557
0.00412912
0.00419117
0.00425181
0.00431114
0.00436927
0.0044263
0.00448232
0.00453742
0.00459171
0.00464527
0.0046982
0.00475057
0.00480247
0.00485398
0.00490518
0.00495613
0.00500691
0.00505757
0.00510818
0.00515882
0.00520952
0.00526033
0.00531126
0.00536233
0.00541355
0.00546491
0.0055164
0.005568
0.00561967
0.00567138
0.00572306
0.00577466
0.00582611
0.00587733
0.00592824
0.00597874
0.00602873
0.00607807
0.00612666
0.00617437
0.00622107
0.00626663
0.00631092
0.00635378
0.00639507
0.00643465
0.00647237
0.00650808
0.00654161
0.00657281
0.00660154
0.00662766
0.00665104
0.00667155
0.00668905
0.00670344
0.00671459
0.00672242
0.0067268
0.00672767
0.00672492
0.00671848
0.00670829
0.00669428
0.0066764
0.00665461
0.00662885
0.00659909
0.0065653
0.00652744
0.0064855
0.00643944
0.00638923
0.00633487
0.00627635
0.00621366
0.00614678
0.0060757
0.00600039
0.00592084
0.00583704
0.005749
0.00565671
0.00556017
0.0054594
0.00535442
0.00524528
0.00513203
0.00501477
0.0048936
0.00476869
0.00464023
0.00450847
0.00437372
0.00423636
0.00409684
0.00395569
0.00381351
0.00367098
0.00352888
0.00338801
0.00324923
0.00311341
0.00298136
0.00285385
0.00273152
0.00261486
0.00250421
0.00239972
0.00230139
0.00220904
0.00212238
0.00204104
0.00196458
0.00189252
0.00182442
0.00175982
0.00169832
0.00163953
0.00158306
0.00152859
0.00147613
0.00142567
0.00137717
0.00133057
0.001286
0.000127489
0.000328911
0.000527647
0.000695616
0.000831849
0.000940088
0.00102456
0.001089
0.00113674
0.00117088
0.00119425
0.00120947
0.00121907
0.00122551
0.00123122
0.00123855
0.00124967
0.00126649
0.00129051
0.00132274
0.00136371
0.00141347
0.00147171
0.00153783
0.00161102
0.00169039
0.00177501
0.00186395
0.00195629
0.0020512
0.0021479
0.00224571
0.00234401
0.00244227
0.00254003
0.00263692
0.00273262
0.00282689
0.00291954
0.00301041
0.0030994
0.00318645
0.00327149
0.0033545
0.00343548
0.00351445
0.00359141
0.00366641
0.0037395
0.00381072
0.00388015
0.00394785
0.0040139
0.00407837
0.00414136
0.00420294
0.00426321
0.00432225
0.00438017
0.00443704
0.00449296
0.00454803
0.00460232
0.00465594
0.00470897
0.00476149
0.0048136
0.00486537
0.00491689
0.00496823
0.0050195
0.00507083
0.00512227
0.00517389
0.00522575
0.00527788