/*--------------------------------*- C++ -*----------------------------------*\
  =========                 |
  \\      /  F ield         | OpenFOAM: The Open Source CFD Toolbox
   \\    /   O peration     | Website:  https://openfoam.org
    \\  /    A nd           | Version:  12
     \\/     M anipulation  |
\*---------------------------------------------------------------------------*/
FoamFile
{
    format      ascii;
    class       volScalarField;
    location    "0.06";
    object      p;
}
// * * * * * * * * * * * * * * * * * * * * * * * * * * * * * * * * * * * * * //

dimensions      [0 2 -2 0 0 0 0];

internalField   nonuniform List<scalar> 
12225
(
-1.24466
-3.52774
-4.69035
-4.99869
-5.1672
-5.32721
-5.45214
-5.54097
-5.61104
-5.67254
-5.72724
-5.77489
-5.81568
-5.84865
-5.87298
-5.87564
-5.88977
-5.84577
-4.71218
-5.41436
-5.50473
-5.36982
-5.32999
-5.39759
-5.4787
-5.54498
-5.60248
-5.6564
-5.70651
-5.75161
-5.79135
-5.82467
-5.8519
-5.86408
-5.89513
-5.89719
-4.91693
-4.81404
-4.97095
-5.09326
-5.20085
-5.32347
-5.43214
-5.51525
-5.58296
-5.64338
-5.69815
-5.74702
-5.79012
-5.82712
-5.85918
-5.88238
-5.9236
-5.95984
-4.77962
-4.70155
-4.97774
-5.15664
-5.25132
-5.34878
-5.44428
-5.52229
-5.58742
-5.64625
-5.70023
-5.74902
-5.79276
-5.83166
-5.86739
-5.89983
-5.94747
-6.00292
-4.78658
-4.80388
-5.04408
-5.19415
-5.27042
-5.35544
-5.44544
-5.52198
-5.5865
-5.64488
-5.6988
-5.74808
-5.79305
-5.83438
-5.87409
-5.91398
-5.96595
-6.02873
-4.84825
-4.89075
-5.06864
-5.19953
-5.27775
-5.36059
-5.44729
-5.52261
-5.58679
-5.64495
-5.69894
-5.74881
-5.79503
-5.83862
-5.88168
-5.92663
-5.98108
-6.04613
-4.90797
-4.94751
-5.08402
-5.20637
-5.28898
-5.36901
-5.45107
-5.52439
-5.58803
-5.6459
-5.69988
-5.75026
-5.79761
-5.8431
-5.88872
-5.93687
-5.99239
-6.05665
-4.96109
-4.996
-5.10639
-5.21916
-5.30193
-5.37812
-5.45544
-5.52658
-5.58955
-5.64709
-5.70101
-5.75181
-5.80012
-5.84711
-5.89453
-5.94441
-5.99977
-6.06142
-5.01085
-5.04259
-5.13346
-5.23439
-5.31467
-5.38741
-5.46052
-5.52932
-5.59139
-5.64848
-5.70225
-5.75333
-5.80235
-5.85037
-5.89884
-5.9493
-6.00355
-6.06178
-5.05817
-5.0868
-5.16205
-5.25107
-5.32764
-5.39729
-5.46656
-5.5328
-5.59369
-5.65017
-5.70364
-5.75479
-5.80421
-5.85277
-5.90161
-5.9518
-6.00431
-6.05891
-5.1029
-5.12818
-5.19104
-5.26921
-5.34127
-5.4078
-5.47346
-5.53702
-5.59648
-5.65218
-5.70519
-5.75617
-5.80564
-5.8543
-5.90293
-5.95223
-6.00266
-6.05376
-5.14136
-5.16368
-5.21757
-5.28693
-5.35435
-5.41785
-5.48041
-5.54148
-5.59944
-5.65425
-5.70666
-5.75724
-5.80645
-5.85478
-5.90281
-5.95092
-5.99933
-6.04748
-5.17702
-5.19677
-5.24334
-5.30495
-5.36765
-5.42808
-5.48772
-5.54634
-5.6027
-5.65648
-5.70814
-5.75815
-5.80685
-5.85459
-5.90174
-5.94848
-5.99486
-6.04032
-5.21448
-5.23174
-5.27156
-5.32562
-5.38308
-5.43994
-5.49643
-5.55237
-5.60681
-5.65927
-5.70992
-5.75907
-5.80696
-5.85377
-5.89969
-5.94475
-5.9889
-6.03163
-5.25252
-5.26738
-5.30125
-5.34832
-5.40032
-5.45324
-5.5064
-5.55947
-5.61169
-5.66251
-5.71183
-5.7598
-5.8065
-5.85201
-5.89636
-5.93949
-5.9813
-6.02139
-5.28919
-5.30191
-5.33079
-5.37175
-5.41848
-5.46731
-5.51708
-5.56722
-5.61701
-5.66588
-5.71356
-5.76
-5.80518
-5.84905
-5.89156
-5.93262
-5.97211
-6.00975
-5.3216
-5.33258
-5.35757
-5.39361
-5.43576
-5.4808
-5.52736
-5.57467
-5.62201
-5.66878
-5.71459
-5.75927
-5.80267
-5.8447
-5.88525
-5.92422
-5.96152
-5.99697
-5.34539
-5.35518
-5.37756
-5.41025
-5.4491
-5.49124
-5.53523
-5.5802
-5.6254
-5.67022
-5.7142
-5.75709
-5.79869
-5.83888
-5.87754
-5.91458
-5.94995
-5.98353
-5.35359
-5.36295
-5.3844
-5.41592
-5.45358
-5.49454
-5.5373
-5.58101
-5.62494
-5.66845
-5.71108
-5.75254
-5.79266
-5.83131
-5.8684
-5.90386
-5.93768
-5.96982
-5.33845
-5.34851
-5.37146
-5.40507
-5.44481
-5.48733
-5.5311
-5.57543
-5.61971
-5.66327
-5.70569
-5.74673
-5.78626
-5.8242
-5.86048
-5.89509
-5.92804
-5.95933
-5.31212
-5.32331
-5.34906
-5.38674
-5.43043
-5.47589
-5.52181
-5.56785
-5.6134
-5.65775
-5.70056
-5.74173
-5.7812
-5.81894
-5.85491
-5.88913
-5.92166
-5.95252
-5.27708
-5.28946
-5.31945
-5.36386
-5.41327
-5.46228
-5.51087
-5.55938
-5.60688
-5.65247
-5.69599
-5.73755
-5.7772
-5.81494
-5.85079
-5.88482
-5.91711
-5.94772
-5.23639
-5.24899
-5.28431
-5.33882
-5.39585
-5.44872
-5.50012
-5.55131
-5.60085
-5.64776
-5.69212
-5.73426
-5.77424
-5.81211
-5.84795
-5.88189
-5.91404
-5.94451
-5.19249
-5.20406
-5.24639
-5.31293
-5.37751
-5.43501
-5.49073
-5.54519
-5.59645
-5.64423
-5.68924
-5.73186
-5.7721
-5.81005
-5.84587
-5.87973
-5.91177
-5.9421
-5.1456
-5.15335
-5.21433
-5.29404
-5.35905
-5.41856
-5.48026
-5.53961
-5.5931
-5.64184
-5.68752
-5.73061
-5.77107
-5.80905
-5.84479
-5.87854
-5.91046
-5.94073
-5.09762
-5.07397
-5.18469
-5.29353
-5.35397
-5.4079
-5.47112
-5.53323
-5.58822
-5.6379
-5.68439
-5.72807
-5.76885
-5.80697
-5.84276
-5.87649
-5.90838
-5.93858
-5.08829
-4.94396
-5.10293
-5.26902
-5.35336
-5.41419
-5.47876
-5.53965
-5.59308
-5.64187
-5.68788
-5.7311
-5.77142
-5.80909
-5.84446
-5.8778
-5.90937
-5.93936
-5.23368
-4.94984
-4.9845
-5.11485
-5.23428
-5.34109
-5.43491
-5.51038
-5.5723
-5.62716
-5.67748
-5.7236
-5.76588
-5.80492
-5.84125
-5.87525
-5.90745
-5.93848
-5.17047
-5.67013
-5.68016
-5.5208
-5.43968
-5.46366
-5.51755
-5.56666
-5.61142
-5.65559
-5.6988
-5.73975
-5.77809
-5.81401
-5.84771
-5.8793
-5.90904
-5.93879
-1.8318
-3.70232
-4.7735
-5.06644
-5.20111
-5.33765
-5.4493
-5.52899
-5.5916
-5.64722
-5.69808
-5.74426
-5.78633
-5.82503
-5.86078
-5.89358
-5.92311
-5.94759
-7.27654
-7.25418
-7.23243
-7.22683
-7.24307
-7.26085
-7.27397
-7.29079
-7.31056
-7.33102
-7.34831
-7.36004
-7.36449
-7.36495
-7.35672
-7.33129
-7.29906
-7.27288
-7.25708
-7.23898
-7.2099
-7.18881
-7.17837
-7.17236
-7.17117
-7.17473
-7.18334
-7.19783
-7.21955
-7.25034
-7.29205
-7.34612
-7.41318
-7.49278
-7.58336
-7.6825
-7.78721
-7.8943
-8.00075
-8.10392
-8.20169
-8.2925
-8.37533
-8.44962
-8.51516
-8.57203
-8.62047
-8.66083
-8.69353
-8.71898
-8.73761
-8.74979
-8.75586
-8.75612
-8.75082
-8.74018
-8.72437
-8.70353
-8.67775
-8.64711
-8.61166
-8.57143
-8.52643
-8.47666
-8.42209
-8.3627
-8.29846
-8.22934
-8.15529
-8.07628
-7.99229
-7.90328
-7.80923
-7.71015
-7.60602
-7.49688
-7.38276
-7.26372
-7.13983
-7.0112
-6.878
-6.7404
-6.59844
-6.45207
-6.30163
-6.14738
-5.98957
-5.82847
-5.66436
-5.49752
-5.32823
-5.1568
-4.98352
-4.80871
-4.63267
-4.4557
-4.27809
-4.1001
-3.92201
-3.74404
-3.5664
-3.38927
-3.21278
-3.03704
-2.86209
-2.68794
-2.51455
-2.34182
-2.16961
-1.99768
-1.82574
-1.6534
-1.48021
-1.30565
-1.12909
-0.949838
-0.767098
-0.579998
-0.387573
-0.188772
0.0175464
0.232605
0.457708
0.694236
0.943635
1.20741
1.48712
1.78433
2.10066
2.43768
2.79695
3.17998
3.58814
4.02271
4.48474
4.97508
5.49426
6.04246
6.61943
7.22442
7.85609
8.51245
9.19076
9.88747
10.5981
11.3171
12.0382
12.7537
13.4567
14.1393
14.7928
15.408
15.9762
16.4893
16.9404
17.3241
17.6368
17.8771
18.0456
18.1452
18.1807
18.159
18.088
17.9769
17.8352
17.673
17.4996
17.3244
17.1558
17.0018
16.8712
16.7676
16.6833
16.6253
16.6019
16.6199
16.689
16.8178
17.0422
17.3166
-7.30045
-7.2842
-7.27845
-7.28892
-7.30677
-7.32424
-7.34116
-7.35851
-7.37583
-7.39092
-7.40175
-7.40655
-7.4028
-7.38781
-7.36996
-7.34821
-7.31184
-7.26737
-7.22604
-7.19147
-7.1623
-7.13686
-7.12013
-7.10901
-7.10204
-7.09906
-7.10104
-7.10956
-7.12707
-7.15633
-7.19995
-7.25959
-7.33541
-7.42593
-7.52828
-7.63877
-7.75342
-7.86849
-7.98076
-8.0877
-8.1875
-8.27903
-8.36166
-8.4352
-8.49972
-8.55551
-8.60295
-8.64247
-8.67452
-8.69954
-8.71794
-8.73006
-8.73625
-8.73676
-8.73184
-8.72168
-8.70643
-8.68622
-8.66115
-8.63127
-8.59663
-8.55726
-8.51315
-8.4643
-8.4107
-8.3523
-8.28908
-8.22099
-8.148
-8.07007
-7.98715
-7.89923
-7.80627
-7.70827
-7.60522
-7.49714
-7.38405
-7.26601
-7.1431
-7.01529
-6.8828
-6.74571
-6.60411
-6.45836
-6.30856
-6.15492
-5.99767
-5.83705
-5.67334
-5.50681
-5.33776
-5.16649
-4.99329
-4.81849
-4.64238
-4.46528
-4.28749
-4.10928
-3.93093
-3.75269
-3.57477
-3.39737
-3.22063
-3.04466
-2.86953
-2.69525
-2.52181
-2.34914
-2.17711
-2.00552
-1.83408
-1.66244
-1.49016
-1.31675
-1.1416
-0.964024
-0.783265
-0.598463
-0.408672
-0.212859
-0.0099
0.201411
0.422364
0.654324
0.898726
1.15706
1.43087
1.72173
2.03123
2.36095
2.71246
3.08724
3.48669
3.91209
4.36453
4.84485
5.35365
5.89115
6.45716
7.05101
7.67146
8.31664
8.98398
9.67013
10.3709
11.0812
11.795
12.5054
13.2038
13.8819
14.5323
15.1462
15.7152
16.2312
16.6876
17.0787
17.401
17.6528
17.8345
17.9486
17.9997
17.9942
17.9397
17.8449
17.7193
17.5724
17.4135
17.2516
17.0948
16.951
16.8252
16.72
16.6411
16.5906
16.5729
16.5931
16.6593
16.777
16.9761
17.2064
-7.33711
-7.32074
-7.31666
-7.3275
-7.34719
-7.3687
-7.38935
-7.4078
-7.42316
-7.43433
-7.44026
-7.44002
-7.43275
-7.418
-7.39619
-7.36659
-7.32862
-7.28546
-7.2408
-7.19801
-7.15832
-7.12559
-7.10075
-7.08322
-7.07221
-7.06797
-7.07207
-7.08677
-7.11438
-7.15663
-7.2142
-7.28651
-7.37181
-7.4675
-7.57048
-7.67759
-7.78586
-7.89269
-7.99595
-8.09401
-8.18567
-8.27014
-8.34694
-8.41586
-8.47691
-8.5302
-8.57596
-8.61447
-8.64605
-8.671
-8.68963
-8.70223
-8.70906
-8.71035
-8.7063
-8.69708
-8.68282
-8.66365
-8.63964
-8.61085
-8.57733
-8.53908
-8.49613
-8.44845
-8.39602
-8.33882
-8.27681
-8.20995
-8.13819
-8.0615
-7.97984
-7.89317
-7.80146
-7.7047
-7.60289
-7.49601
-7.3841
-7.26719
-7.14529
-7.01869
-6.88732
-6.75129
-6.61077
-6.46594
-6.31699
-6.1641
-6.00752
-5.84749
-5.68429
-5.51818
-5.34946
-5.17843
-5.0054
-4.83068
-4.65459
-4.47744
-4.29954
-4.12117
-3.94263
-3.76418
-3.58604
-3.40842
-3.23149
-3.05537
-2.88015
-2.70587
-2.53253
-2.36009
-2.18844
-2.0174
-1.84672
-1.67606
-1.50503
-1.33314
-1.1598
-0.984376
-0.806108
-0.624167
-0.437628
-0.245478
-0.0466127
0.160155
0.376099
0.602568
0.840981
1.09282
1.35962
1.64294
1.94436
2.26548
2.60784
2.97295
3.36222
3.77694
4.21821
4.68694
5.18374
5.70889
6.26229
6.84335
7.45094
8.08332
8.73807
9.41203
10.1012
10.8006
11.5044
12.2058
12.8977
13.5722
14.2212
14.8362
15.4086
15.9305
16.3951
16.7968
17.1317
17.398
17.5956
17.7269
17.7959
17.8086
17.7725
17.6957
17.5875
17.4571
17.3136
17.1657
17.0215
16.8883
16.7716
16.6749
16.6019
16.5553
16.5393
16.5575
16.6161
16.7167
16.8749
17.0332
-7.38814
-7.38002
-7.37961
-7.38932
-7.40479
-7.42199
-7.43864
-7.45326
-7.46469
-7.47189
-7.47394
-7.47004
-7.45957
-7.44211
-7.41752
-7.38598
-7.34823
-7.30607
-7.26204
-7.21913
-7.18007
-7.14758
-7.123
-7.10681
-7.0993
-7.10127
-7.1141
-7.1393
-7.17792
-7.23016
-7.29529
-7.37174
-7.45741
-7.54992
-7.64684
-7.74586
-7.84485
-7.94197
-8.03568
-8.12476
-8.20825
-8.28551
-8.3561
-8.41979
-8.47651
-8.5263
-8.5693
-8.60568
-8.63567
-8.65949
-8.67738
-8.68955
-8.69621
-8.69755
-8.69372
-8.68487
-8.67111
-8.65252
-8.62917
-8.60112
-8.56837
-8.53096
-8.48886
-8.44207
-8.39056
-8.33429
-8.27322
-8.2073
-8.13649
-8.06075
-7.98003
-7.89429
-7.80349
-7.70763
-7.60668
-7.50064
-7.38954
-7.27343
-7.15235
-7.02641
-6.89568
-6.76025
-6.62029
-6.47595
-6.32743
-6.17492
-6.01865
-5.85888
-5.69586
-5.52988
-5.36123
-5.19021
-5.01714
-4.84233
-4.66612
-4.48881
-4.31072
-4.13216
-3.95343
-3.77478
-3.59648
-3.41872
-3.24171
-3.06558
-2.89044
-2.71635
-2.54333
-2.37135
-2.20033
-2.0301
-1.86043
-1.69101
-1.52146
-1.35131
-1.18
-1.00691
-0.831292
-0.65234
-0.469145
-0.280707
-0.0859375
0.11634
0.327385
0.54854
0.781217
1.02689
1.2871
1.56339
1.85737
2.17061
2.5047
2.86114
3.24138
3.64673
4.07833
4.53712
5.02379
5.53869
6.08175
6.65251
7.24994
7.87241
8.51762
9.18253
9.86318
10.5548
11.2518
11.9478
12.6359
13.3087
13.9577
14.5743
15.1501
15.6773
16.1489
16.5591
16.904
17.1815
17.3913
17.5355
17.618
17.6444
17.622
17.5589
17.4638
17.3461
17.2145
17.0777
16.9436
16.8191
16.7093
16.6181
16.5491
16.5058
16.491
16.5071
16.5576
16.6403
16.7593
16.8588
-7.42507
-7.42504
-7.42719
-7.4355
-7.44778
-7.46125
-7.47407
-7.48494
-7.49277
-7.49659
-7.49559
-7.48911
-7.47662
-7.45778
-7.4326
-7.40149
-7.36544
-7.32615
-7.28602
-7.24778
-7.21405
-7.18693
-7.1678
-7.15757
-7.15701
-7.16702
-7.18851
-7.2221
-7.26788
-7.32525
-7.39298
-7.46936
-7.55245
-7.64023
-7.7307
-7.82206
-7.91266
-8.00109
-8.08619
-8.16702
-8.24284
-8.31315
-8.37757
-8.43591
-8.48806
-8.53402
-8.57387
-8.60771
-8.63569
-8.65797
-8.67471
-8.68608
-8.69222
-8.69329
-8.68939
-8.68063
-8.6671
-8.64886
-8.62595
-8.59841
-8.56624
-8.52945
-8.48801
-8.4419
-8.39108
-8.33552
-8.27516
-8.20994
-8.13983
-8.06476
-7.9847
-7.89959
-7.8094
-7.7141
-7.61367
-7.50813
-7.3975
-7.28181
-7.16113
-7.03551
-6.90504
-6.76983
-6.63003
-6.4858
-6.33733
-6.18482
-6.0285
-5.86863
-5.70548
-5.53932
-5.37046
-5.1992
-5.02588
-4.85081
-4.67432
-4.49675
-4.31842
-4.13964
-3.96073
-3.78195
-3.60357
-3.42582
-3.2489
-3.07296
-2.89813
-2.72449
-2.55207
-2.38086
-2.21078
-2.04167
-1.87334
-1.70547
-1.53771
-1.36959
-1.20057
-1.03005
-0.857283
-0.681482
-0.501746
-0.317083
-0.126415
0.0714301
0.277707
0.493753
0.72098
0.960866
1.21494
1.48478
1.77198
2.07814
2.40485
2.75366
3.12602
3.52329
3.94665
4.39708
4.87535
5.38185
5.9166
6.47922
7.06879
7.68376
8.32194
8.98033
9.65515
10.3418
11.0349
11.7281
12.4146
13.0869
13.7367
14.3554
14.9347
15.4666
15.944
16.3611
16.7139
16.9999
17.2189
17.3727
17.4652
17.5018
17.4895
17.4364
17.3511
17.2428
17.1202
16.9918
16.8652
16.7473
16.6431
16.5564
16.491
16.4497
16.4346
16.4473
16.4885
16.5537
16.6396
16.6964
-7.43536
-7.44311
-7.44875
-7.45745
-7.46833
-7.4795
-7.48962
-7.49769
-7.50282
-7.50425
-7.5013
-7.49342
-7.48022
-7.46155
-7.43756
-7.40884
-7.37653
-7.34233
-7.30847
-7.27735
-7.25121
-7.23187
-7.22065
-7.21852
-7.22629
-7.24459
-7.27382
-7.31399
-7.36464
-7.4248
-7.49308
-7.56788
-7.64746
-7.73011
-7.81424
-7.89841
-7.98134
-8.06197
-8.13938
-8.21286
-8.28183
-8.34587
-8.40467
-8.45805
-8.50591
-8.54821
-8.58497
-8.61626
-8.64217
-8.66281
-8.67828
-8.6887
-8.69419
-8.69483
-8.69071
-8.68191
-8.66847
-8.65045
-8.62785
-8.60069
-8.56897
-8.53266
-8.49174
-8.44616
-8.39589
-8.34086
-8.28103
-8.21633
-8.14671
-8.07211
-7.99247
-7.90774
-7.81789
-7.72289
-7.62272
-7.51739
-7.40692
-7.29134
-7.1707
-7.04506
-6.91451
-6.77917
-6.63919
-6.49472
-6.34596
-6.19312
-6.03644
-5.87617
-5.71259
-5.54599
-5.37667
-5.20497
-5.0312
-4.85571
-4.67883
-4.5009
-4.32227
-4.14326
-3.96418
-3.78533
-3.60697
-3.42935
-3.25268
-3.07713
-2.90285
-2.72991
-2.55838
-2.38823
-2.21941
-2.05176
-1.8851
-1.71913
-1.55349
-1.38775
-1.22136
-1.05372
-0.884108
-0.711735
-0.535706
-0.355038
-0.168652
0.024618
0.226027
0.436914
0.658691
0.892842
1.14091
1.40446
1.68511
1.98449
2.3042
2.6458
3.01081
3.40058
3.81634
4.25914
4.72978
5.22876
5.75612
6.31159
6.89433
7.50285
8.13506
8.78814
9.45841
10.1414
10.8317
11.5232
12.2091
12.8817
13.533
14.1543
14.7373
15.2738
15.7567
16.1802
16.5398
16.8332
17.0599
17.2218
17.3224
17.3672
17.3631
17.3181
17.2407
17.1401
17.0248
16.9033
16.7831
16.6707
16.5712
16.4886
16.4262
16.3863
16.3705
16.3791
16.4113
16.4604
16.5197
16.545
-7.41421
-7.43156
-7.44111
-7.45185
-7.46324
-7.47389
-7.48286
-7.4895
-7.49321
-7.49341
-7.48962
-7.48146
-7.46872
-7.45142
-7.42992
-7.40497
-7.37779
-7.35007
-7.32382
-7.30112
-7.28385
-7.27357
-7.27141
-7.2782
-7.2945
-7.32062
-7.35653
-7.40187
-7.45589
-7.51748
-7.58532
-7.65795
-7.73391
-7.81179
-7.89031
-7.96831
-8.04479
-8.1189
-8.18991
-8.25725
-8.32047
-8.3792
-8.43321
-8.48231
-8.52641
-8.56545
-8.59945
-8.62842
-8.65243
-8.67153
-8.68581
-8.69533
-8.70017
-8.70039
-8.69604
-8.68716
-8.67379
-8.65593
-8.63359
-8.60676
-8.57541
-8.53951
-8.49901
-8.45387
-8.40402
-8.34941
-8.28997
-8.22563
-8.15633
-8.082
-8.00258
-7.91803
-7.8283
-7.73335
-7.63318
-7.5278
-7.41721
-7.30143
-7.18052
-7.05454
-6.9236
-6.78781
-6.64731
-6.50229
-6.35293
-6.19946
-6.04212
-5.88117
-5.7169
-5.54962
-5.37963
-5.20728
-5.0329
-4.85684
-4.67945
-4.5011
-4.32212
-4.14285
-3.96363
-3.78476
-3.60651
-3.42915
-3.25289
-3.07792
-2.9044
-2.73241
-2.56202
-2.39322
-2.22596
-2.0601
-1.89544
-1.7317
-1.56854
-1.40551
-1.24209
-1.07767
-0.911534
-0.742899
-0.570872
-0.394469
-0.212614
-0.0241403
0.17221
0.377776
0.593978
0.822305
1.0643
1.32156
1.5957
1.88836
2.20117
2.53573
2.89356
3.27608
3.68452
4.12
4.58338
5.07521
5.59559
6.1443
6.72063
7.32318
7.94996
8.59824
9.26446
9.94424
10.6323
11.3226
12.0083
12.6819
13.335
13.9592
14.5459
15.087
15.5752
16.0044
16.3703
16.6702
16.9038
17.0726
17.1802
17.2321
17.235
17.1969
17.1265
17.0325
16.9237
16.8083
16.6938
16.5865
16.4916
16.4128
16.3532
16.3147
16.2982
16.3031
16.3271
16.3625
16.4009
16.4034
-7.36838
-7.39132
-7.40789
-7.42245
-7.43573
-7.44717
-7.45626
-7.46265
-7.46599
-7.46596
-7.46228
-7.45477
-7.44342
-7.42844
-7.41036
-7.39006
-7.3688
-7.3482
-7.33004
-7.31611
-7.30797
-7.30687
-7.31369
-7.32903
-7.35316
-7.38609
-7.42754
-7.47689
-7.5333
-7.59568
-7.66282
-7.73346
-7.80636
-7.88035
-7.95439
-8.02751
-8.09891
-8.16789
-8.23387
-8.29638
-8.35503
-8.40954
-8.45969
-8.50534
-8.54639
-8.58279
-8.61453
-8.64161
-8.66407
-8.68193
-8.69525
-8.70407
-8.70843
-8.70835
-8.70388
-8.69501
-8.68176
-8.66411
-8.64205
-8.61554
-8.58454
-8.54902
-8.5089
-8.46412
-8.41462
-8.36032
-8.30116
-8.23705
-8.16792
-8.0937
-8.01434
-7.92976
-7.83994
-7.74483
-7.64443
-7.53873
-7.42774
-7.31147
-7.19
-7.06339
-6.93175
-6.7952
-6.65389
-6.50801
-6.35776
-6.20337
-6.04509
-5.8832
-5.71801
-5.54981
-5.37895
-5.20576
-5.03061
-4.85386
-4.67587
-4.49701
-4.31764
-4.13812
-3.95878
-3.77994
-3.60189
-3.4249
-3.24921
-3.075
-2.90243
-2.73162
-2.56263
-2.39545
-2.23004
-2.06626
-1.90392
-1.74274
-1.58238
-1.42239
-1.26226
-1.10138
-0.939034
-0.774437
-0.606697
-0.434829
-0.257755
-0.0743041
0.116783
0.316853
0.527329
0.749711
0.985556
1.23646
1.50406
1.79001
2.09597
2.42355
2.77432
3.1497
3.551
3.97933
4.43562
4.92048
5.43411
5.97634
6.54651
7.14335
7.76496
8.4087
9.07114
9.74797
10.4341
11.1234
11.8091
12.4835
13.1386
13.7655
14.3558
14.9011
15.3941
15.8285
16.1999
16.5057
16.7451
16.9199
17.0336
17.0916
17.1006
17.0687
17.0044
16.9165
16.8136
16.704
16.595
16.4928
16.4025
16.3277
16.2712
16.2344
16.2177
16.2196
16.2369
16.2613
16.2839
16.2703
-7.30419
-7.33354
-7.35673
-7.37568
-7.39161
-7.40466
-7.41471
-7.42169
-7.4255
-7.42604
-7.42324
-7.41713
-7.40788
-7.39589
-7.38179
-7.36656
-7.35146
-7.33797
-7.32767
-7.32205
-7.3224
-7.32967
-7.34452
-7.3673
-7.39805
-7.43659
-7.48243
-7.53489
-7.59309
-7.65601
-7.72257
-7.79166
-7.86225
-7.93333
-8.00402
-8.07353
-8.14116
-8.20635
-8.2686
-8.32752
-8.38279
-8.43417
-8.48148
-8.52458
-8.5634
-8.59788
-8.62799
-8.65374
-8.67513
-8.69218
-8.70491
-8.71334
-8.71748
-8.71735
-8.71293
-8.70423
-8.69123
-8.67389
-8.65218
-8.62605
-8.59544
-8.56029
-8.52053
-8.47608
-8.42687
-8.37281
-8.31382
-8.24983
-8.18074
-8.10648
-8.027
-7.94222
-7.85211
-7.75663
-7.65576
-7.54948
-7.43782
-7.3208
-7.19848
-7.07095
-6.93832
-6.80071
-6.6583
-6.51128
-6.35985
-6.20427
-6.0448
-5.88172
-5.71537
-5.54605
-5.37412
-5.19993
-5.02387
-4.84631
-4.66762
-4.4882
-4.30841
-4.12863
-3.9492
-3.77046
-3.5927
-3.4162
-3.24121
-3.06794
-2.89653
-2.72712
-2.55976
-2.39446
-2.23116
-2.06975
-1.91002
-1.7517
-1.59444
-1.4378
-1.28126
-1.12421
-0.965945
-0.805659
-0.642464
-0.475373
-0.303301
-0.125076
0.0605704
0.254988
0.459611
0.675945
0.905562
1.15007
1.41111
1.69037
1.98951
2.31017
2.65392
3.02226
3.41651
3.83785
4.2872
4.76524
5.27226
5.80816
6.37234
6.96362
7.5802
8.21953
8.87828
9.55223
10.2363
10.9245
11.6101
12.2853
12.9419
13.5712
14.1645
14.7135
15.2105
15.6494
16.0255
16.336
16.5804
16.7602
16.8791
16.9423
16.9568
16.9303
16.8716
16.7893
16.6922
16.5882
16.4847
16.3878
16.3024
16.2321
16.1792
16.1448
16.1287
16.1288
16.1412
16.1575
16.1686
16.1445
-7.23133
-7.26624
-7.29541
-7.31864
-7.33745
-7.35251
-7.36403
-7.37217
-7.37704
-7.37875
-7.37744
-7.37329
-7.36664
-7.35799
-7.34809
-7.33792
-7.32869
-7.32174
-7.31844
-7.32005
-7.3276
-7.34185
-7.36325
-7.39196
-7.42789
-7.4707
-7.51984
-7.57459
-7.63409
-7.6974
-7.76355
-7.83157
-7.90053
-7.9696
-8.03798
-8.10499
-8.17005
-8.23266
-8.29238
-8.3489
-8.40192
-8.45124
-8.49671
-8.5382
-8.57563
-8.60897
-8.63816
-8.66321
-8.6841
-8.70083
-8.71342
-8.72184
-8.72611
-8.72621
-8.72211
-8.71379
-8.70121
-8.68432
-8.66308
-8.6374
-8.60723
-8.57249
-8.53309
-8.48895
-8.43998
-8.38609
-8.32719
-8.2632
-8.19402
-8.11958
-8.03982
-7.95466
-7.86406
-7.76798
-7.66639
-7.55929
-7.44669
-7.32864
-7.2052
-7.07647
-6.94256
-6.80362
-6.65982
-6.51138
-6.35851
-6.20148
-6.04056
-5.87608
-5.70834
-5.53771
-5.36453
-5.1892
-5.0121
-4.83362
-4.65417
-4.47414
-4.29392
-4.11388
-3.93441
-3.75582
-3.57845
-3.40257
-3.22843
-3.05626
-2.8862
-2.7184
-2.5529
-2.38972
-2.2288
-2.07001
-1.91317
-1.75798
-1.6041
-1.45108
-1.29841
-1.14545
-0.9915
-0.83576
-0.67733
-0.515215
-0.348327
-0.175486
0.00458291
0.193237
0.391917
0.602137
0.825479
1.06357
1.31808
1.59068
1.88305
2.19686
2.5337
2.89509
3.28241
3.69686
4.13941
4.61078
5.11133
5.64101
6.1993
6.78511
7.39672
8.03165
8.68667
9.35763
10.0395
10.7264
11.4114
12.0869
12.7445
13.3755
13.9711
14.5227
15.0229
15.4651
15.8447
16.1589
16.4072
16.5911
16.7141
16.7818
16.8009
16.7793
16.7258
16.6489
16.5573
16.4591
16.3614
16.2702
16.1903
16.125
16.0765
16.0454
16.0311
16.0309
16.0404
16.0512
16.055
16.0247
-7.15758
-7.19681
-7.231
-7.25805
-7.27959
-7.29672
-7.30993
-7.31953
-7.32585
-7.32915
-7.32971
-7.32786
-7.32402
-7.31879
-7.31293
-7.30741
-7.30334
-7.30193
-7.30436
-7.31171
-7.32483
-7.34433
-7.37052
-7.40348
-7.44302
-7.48874
-7.54007
-7.5963
-7.65661
-7.72013
-7.78598
-7.85328
-7.9212
-7.98897
-8.05592
-8.12141
-8.18493
-8.24602
-8.30431
-8.35948
-8.41131
-8.45958
-8.50416
-8.54495
-8.58185
-8.61482
-8.64381
-8.66882
-8.6898
-8.70676
-8.71968
-8.72854
-8.73331
-8.73396
-8.73046
-8.72276
-8.71081
-8.69454
-8.67388
-8.64875
-8.61909
-8.58478
-8.54575
-8.50189
-8.45312
-8.39933
-8.34043
-8.27632
-8.20693
-8.13216
-8.05195
-7.96622
-7.87492
-7.778
-7.67545
-7.56727
-7.45347
-7.33412
-7.20928
-7.07907
-6.9436
-6.80305
-6.6576
-6.50747
-6.3529
-6.19418
-6.03159
-5.86547
-5.69617
-5.52404
-5.34947
-5.17286
-4.99461
-4.81514
-4.63487
-4.4542
-4.27354
-4.09328
-3.91381
-3.73546
-3.55858
-3.38345
-3.21032
-3.03942
-2.87091
-2.70491
-2.5415
-2.38067
-2.22237
-2.06646
-1.91274
-1.76093
-1.61068
-1.46153
-1.31294
-1.16429
-1.01487
-0.863872
-0.710379
-0.553394
-0.391822
-0.224473
-0.0500671
0.132763
0.325467
0.529565
0.746649
0.978363
1.22638
1.4924
1.77811
2.0852
2.41528
2.76988
3.15042
3.55814
3.99405
4.4589
4.95311
5.47669
6.02918
6.60957
7.21619
7.84666
8.4978
9.16555
9.84492
10.53
11.2139
11.889
12.5468
13.1785
13.7752
14.3284
14.8303
15.2746
15.6563
15.9729
16.2238
16.4105
16.5366
16.6078
16.6308
16.6137
16.5649
16.4932
16.4073
16.315
16.2234
16.1385
16.0648
16.0055
15.9624
15.9358
15.9246
15.9258
15.9345
15.9426
15.9424
15.9098
-7.08889
-7.13121
-7.16931
-7.19948
-7.22338
-7.24242
-7.25727
-7.26843
-7.27633
-7.28138
-7.28395
-7.28443
-7.28334
-7.28127
-7.27898
-7.27738
-7.27749
-7.28037
-7.28706
-7.2985
-7.31543
-7.33836
-7.36757
-7.40308
-7.44468
-7.49197
-7.5444
-7.6013
-7.66188
-7.72535
-7.79088
-7.85767
-7.92495
-7.99201
-8.05821
-8.12297
-8.18581
-8.24629
-8.30408
-8.35887
-8.41043
-8.45857
-8.50316
-8.54408
-8.58125
-8.61461
-8.6441
-8.66971
-8.69138
-8.7091
-8.72283
-8.73254
-8.73819
-8.73973
-8.73711
-8.73027
-8.71914
-8.70364
-8.6837
-8.65921
-8.6301
-8.59625
-8.55758
-8.51398
-8.46535
-8.41158
-8.35258
-8.28825
-8.2185
-8.14325
-8.0624
-7.97589
-7.88365
-7.78566
-7.68189
-7.57236
-7.4571
-7.33617
-7.20966
-7.07769
-6.94041
-6.79798
-6.65061
-6.49854
-6.34204
-6.1814
-6.01693
-5.84899
-5.67795
-5.50418
-5.32809
-5.1501
-4.97063
-4.79012
-4.60899
-4.42768
-4.24661
-4.06618
-3.88678
-3.70877
-3.5325
-3.35825
-3.18628
-3.01683
-2.85005
-2.68608
-2.52496
-2.3667
-2.21123
-2.05843
-1.90807
-1.75987
-1.61345
-1.46837
-1.32407
-1.17992
-1.0352
-0.889082
-0.740653
-0.588901
-0.432723
-0.270919
-0.102201
0.0748067
0.261562
0.459597
0.670509
0.895951
1.13761
1.3972
1.67642
1.97697
2.30048
2.64851
3.02249
3.42369
3.85316
4.31168
4.79971
5.31733
5.86411
6.43909
7.04069
7.66658
8.31363
8.97783
9.65422
10.3369
11.0189
11.6926
12.3495
12.9807
13.5772
14.1304
14.6326
15.0771
15.4594
15.7768
16.0287
16.2169
16.345
16.4187
16.4449
16.4315
16.3871
16.3206
16.2403
16.1542
16.0693
15.9914
15.9249
15.8726
15.8362
15.8155
15.809
15.8134
15.8236
15.8317
15.8307
15.7988
-7.02943
-7.0738
-7.11475
-7.14726
-7.17298
-7.19355
-7.2098
-7.22234
-7.23171
-7.23837
-7.24277
-7.24534
-7.2466
-7.24715
-7.2477
-7.24908
-7.2522
-7.25801
-7.26745
-7.28135
-7.3004
-7.32507
-7.35563
-7.39211
-7.43434
-7.48197
-7.53447
-7.59123
-7.65152
-7.71461
-7.77971
-7.84607
-7.91295
-7.97969
-8.04566
-8.1103
-8.17315
-8.23378
-8.29184
-8.34705
-8.39916
-8.44798
-8.49336
-8.53518
-8.57334
-8.60777
-8.63841
-8.66521
-8.68811
-8.70709
-8.72208
-8.73304
-8.73991
-8.74264
-8.74116
-8.73539
-8.72525
-8.71066
-8.69152
-8.66773
-8.63921
-8.60583
-8.5675
-8.5241
-8.47554
-8.4217
-8.36249
-8.2978
-8.22754
-8.15162
-8.06992
-7.98239
-7.88898
-7.78965
-7.68441
-7.57327
-7.45629
-7.33353
-7.20509
-7.07111
-6.93175
-6.7872
-6.63769
-6.48347
-6.32482
-6.16207
-5.99555
-5.82564
-5.65271
-5.47718
-5.29948
-5.12003
-4.9393
-4.75771
-4.57573
-4.39381
-4.21237
-4.03183
-3.85261
-3.67505
-3.49952
-3.32631
-3.15568
-2.98786
-2.82302
-2.66126
-2.50265
-2.34718
-2.19478
-2.04529
-1.8985
-1.7541
-1.61172
-1.47088
-1.33103
-1.19152
-1.05162
-0.910479
-0.767185
-0.620712
-0.469945
-0.313677
-0.150607
0.0206471
0.201553
0.393651
0.598547
0.817902
1.05341
1.3068
1.57978
1.87405
2.19127
2.53301
2.90071
3.29566
3.71894
4.17137
4.65343
5.16523
5.7064
6.27602
6.87254
7.49369
8.13636
8.79658
9.4694
10.1489
10.8281
11.4994
12.154
12.7832
13.3778
13.9291
14.4295
14.8725
15.2534
15.5696
15.8209
16.009
16.1377
16.2129
16.2413
16.2311
16.1909
16.1293
16.0549
15.9754
15.8979
15.8278
15.7695
15.7255
15.6972
15.684
15.684
15.6936
15.7077
15.7184
15.7195
15.6912
-6.98193
-7.02761
-7.07049
-7.10455
-7.13141
-7.15293
-7.1701
-7.18358
-7.19398
-7.20183
-7.20757
-7.21168
-7.21463
-7.217
-7.21944
-7.22268
-7.22756
-7.23494
-7.24567
-7.26053
-7.28016
-7.30506
-7.33551
-7.3716
-7.41322
-7.46007
-7.51172
-7.5676
-7.62705
-7.68938
-7.75386
-7.81976
-7.88638
-7.95304
-8.01915
-8.08415
-8.14755
-8.20893
-8.26792
-8.32421
-8.37755
-8.42773
-8.47457
-8.51794
-8.55772
-8.59382
-8.62615
-8.65465
-8.67926
-8.69991
-8.71653
-8.72908
-8.73746
-8.74162
-8.74148
-8.73694
-8.72792
-8.71433
-8.69606
-8.67301
-8.64507
-8.61214
-8.5741
-8.53084
-8.48226
-8.42825
-8.36871
-8.30352
-8.23258
-8.15577
-8.073
-7.98421
-7.88938
-7.78847
-7.68151
-7.56852
-7.44956
-7.32471
-7.19411
-7.05789
-6.91623
-6.76935
-6.61749
-6.46093
-6.29998
-6.13496
-5.96625
-5.79424
-5.61934
-5.44197
-5.2626
-5.08167
-4.89966
-4.71702
-4.53423
-4.35175
-4.17004
-3.98951
-3.81058
-3.63363
-3.459
-3.287
-3.11791
-2.95192
-2.78922
-2.62989
-2.47401
-2.32154
-2.1724
-2.02643
-1.88339
-1.74298
-1.60479
-1.46834
-1.33306
-1.19829
-1.06327
-0.927153
-0.789009
-0.6478
-0.502398
-0.351586
-0.194055
-0.0284104
0.146821
0.333188
0.532303
0.745832
0.97548
1.22297
1.49004
1.77838
2.08966
2.42545
2.78722
3.17626
3.59368
4.04029
4.51663
5.0228
5.55848
6.12276
6.71413
7.33034
7.9683
8.62404
9.2926
9.96802
10.6434
11.3107
11.9616
12.5869
13.1776
13.725
14.2214
14.6604
15.0377
15.3507
15.5994
15.7856
15.9136
15.989
16.0188
16.0112
15.9746
15.918
15.8496
15.7772
15.7077
15.6465
15.5976
15.5634
15.5447
15.5408
15.5494
15.5664
15.5867
15.6027
15.6085
15.5862
-6.94821
-6.9948
-7.03887
-7.07365
-7.10085
-7.12256
-7.13987
-7.15354
-7.16424
-7.1725
-7.17881
-7.1836
-7.18732
-7.19047
-7.19364
-7.19751
-7.20283
-7.2104
-7.22101
-7.2354
-7.25425
-7.27804
-7.30713
-7.34166
-7.3816
-7.42676
-7.47675
-7.5311
-7.58923
-7.65048
-7.71416
-7.77955
-7.84597
-7.91275
-7.97927
-8.04498
-8.10935
-8.17194
-8.23237
-8.29028
-8.3454
-8.39749
-8.44635
-8.4918
-8.5337
-8.57194
-8.60642
-8.63703
-8.66371
-8.68636
-8.70491
-8.71928
-8.72939
-8.73516
-8.73649
-8.7333
-8.72547
-8.71293
-8.69555
-8.67322
-8.64585
-8.61332
-8.57552
-8.53232
-8.48364
-8.42935
-8.36935
-8.30349
-8.23165
-8.15372
-8.06965
-7.97938
-7.8829
-7.78019
-7.67127
-7.55621
-7.43506
-7.30793
-7.17496
-7.03632
-6.89219
-6.74283
-6.58848
-6.42945
-6.26607
-6.0987
-5.92773
-5.75357
-5.57666
-5.39745
-5.21642
-5.03403
-4.85079
-4.66718
-4.48367
-4.30076
-4.1189
-3.93853
-3.76007
-3.5839
-3.41037
-3.2398
-3.07244
-2.90851
-2.74816
-2.59149
-2.43853
-2.28927
-2.14359
-2.00132
-1.86221
-1.72593
-1.59206
-1.4601
-1.32946
-1.19947
-1.06936
-0.938259
-0.80522
-0.669195
-0.529045
-0.383539
-0.231362
-0.0711085
0.0987016
0.279623
0.473273
0.681323
0.905479
1.14747
1.40903
1.69186
1.99762
2.3279
2.68416
3.0677
3.47963
3.92077
4.39166
4.89243
5.42275
5.98174
6.56788
7.17892
7.81178
8.46245
9.12594
9.79625
10.4664
11.1283
11.7735
12.3929
12.9774
13.5183
14.0082
14.4408
14.8119
15.1194
15.3634
15.546
15.6716
15.7459
15.7761
15.7703
15.7371
15.6852
15.623
15.5582
15.4976
15.4463
15.4082
15.3853
15.3782
15.3857
15.4049
15.4316
15.4606
15.4844
15.4974
15.4836
-6.9292
-6.97681
-7.02139
-7.05597
-7.08251
-7.10333
-7.1197
-7.13251
-7.14245
-7.15011
-7.15591
-7.16025
-7.16353
-7.16617
-7.1687
-7.17174
-7.17599
-7.18221
-7.19117
-7.20362
-7.22025
-7.2416
-7.26808
-7.29992
-7.33719
-7.37977
-7.4274
-7.47966
-7.53602
-7.59587
-7.65854
-7.72335
-7.78961
-7.85664
-7.92381
-7.99053
-8.05625
-8.12049
-8.18281
-8.24284
-8.30024
-8.35474
-8.4061
-8.45411
-8.49859
-8.53941
-8.57642
-8.60952
-8.63859
-8.66354
-8.68428
-8.70071
-8.71273
-8.72027
-8.7232
-8.72145
-8.7149
-8.70345
-8.68699
-8.66541
-8.63859
-8.60643
-8.56882
-8.52564
-8.47678
-8.42213
-8.3615
-8.29475
-8.22177
-8.14251
-8.05692
-7.96495
-7.86659
-7.76186
-7.6508
-7.53346
-7.40993
-7.28034
-7.14484
-7.00361
-6.85688
-6.7049
-6.54795
-6.38636
-6.22049
-6.05072
-5.87745
-5.70114
-5.52224
-5.34122
-5.15859
-4.97484
-4.79049
-4.60603
-4.42197
-4.2388
-4.057
-3.877
-3.69925
-3.52412
-3.35197
-3.18309
-3.01775
-2.85616
-2.69845
-2.54472
-2.39498
-2.24919
-2.10723
-1.9689
-1.83394
-1.70198
-1.57261
-1.44528
-1.31941
-1.19428
-1.06912
-0.943045
-0.815083
-0.684175
-0.549169
-0.408825
-0.261814
-0.106727
0.0579249
0.2337
0.42222
0.625155
0.844213
1.08112
1.33761
1.61537
1.91608
2.2413
2.59249
2.97095
3.37777
3.81379
4.27953
4.77511