/*--------------------------------*- C++ -*----------------------------------*\
  =========                 |
  \\      /  F ield         | OpenFOAM: The Open Source CFD Toolbox
   \\    /   O peration     | Website:  https://openfoam.org
    \\  /    A nd           | Version:  12
     \\/     M anipulation  |
\*---------------------------------------------------------------------------*/
FoamFile
{
    format      ascii;
    class       surfaceScalarField;
    location    "0.06";
    object      phi;
}
// * * * * * * * * * * * * * * * * * * * * * * * * * * * * * * * * * * * * * //

dimensions      [0 3 -1 0 0 0 0];

internalField   nonuniform List<scalar> 
24170
(
3.1336e-06
5.48083e-08
3.04826e-06
8.5338e-08
2.97311e-06
7.51469e-08
2.90424e-06
6.88691e-08
2.83937e-06
6.48756e-08
2.78209e-06
5.72801e-08
2.73311e-06
4.89743e-08
2.69149e-06
4.16193e-08
2.65593e-06
3.5562e-08
2.62525e-06
3.06838e-08
2.59846e-06
2.67918e-08
2.57472e-06
2.37338e-08
2.55331e-06
2.14123e-08
2.53345e-06
1.98631e-08
2.51433e-06
1.91159e-08
2.49346e-06
2.0871e-08
2.47135e-06
2.21105e-08
4.07396e-08
2.43061e-06
3.45362e-06
1.84393e-08
3.45617e-06
8.2784e-08
3.44962e-06
8.17002e-08
3.43798e-06
8.0506e-08
3.42347e-06
7.93882e-08
3.4059e-06
7.48543e-08
3.38622e-06
6.86474e-08
3.36526e-06
6.25792e-08
3.34378e-06
5.70406e-08
3.32239e-06
5.20792e-08
3.30147e-06
4.77109e-08
3.28124e-06
4.39601e-08
3.26182e-06
4.08393e-08
3.24316e-06
3.85146e-08
3.22538e-06
3.68957e-08
3.20845e-06
3.78096e-08
3.19338e-06
3.71793e-08
5.07663e-08
3.18335e-06
3.66536e-06
1.55988e-08
3.67825e-06
6.98883e-08
3.6853e-06
7.46511e-08
3.68956e-06
7.62444e-08
3.69121e-06
7.77417e-08
3.69004e-06
7.60223e-08
3.68654e-06
7.21453e-08
3.68129e-06
6.78338e-08
3.6747e-06
6.36289e-08
3.66712e-06
5.96568e-08
3.65883e-06
5.60038e-08
3.65002e-06
5.27664e-08
3.64084e-06
5.00229e-08
3.63137e-06
4.79814e-08
3.62159e-06
4.66801e-08
3.61205e-06
4.73498e-08
3.60125e-06
4.79787e-08
5.55535e-08
3.59646e-06
3.92465e-06
1.63358e-08
3.9358e-06
5.87425e-08
3.94253e-06
6.79224e-08
3.94798e-06
7.0792e-08
3.95236e-06
7.33608e-08
3.95524e-06
7.31421e-08
3.95674e-06
7.06425e-08
3.95716e-06
6.74138e-08
3.95668e-06
6.41065e-08
3.95545e-06
6.08883e-08
3.95359e-06
5.78645e-08
3.9512e-06
5.51557e-08
3.94835e-06
5.28715e-08
3.94513e-06
5.12091e-08
3.94153e-06
5.02799e-08
3.93809e-06
5.07888e-08
3.93418e-06
5.18844e-08
5.63397e-08
3.9334e-06
4.20777e-06
1.56935e-08
4.21599e-06
5.05176e-08
4.22164e-06
6.22755e-08
4.22655e-06
6.58857e-08
4.23121e-06
6.86956e-08
4.23513e-06
6.92281e-08
4.23817e-06
6.76e-08
4.24047e-06
6.51093e-08
4.24215e-06
6.24325e-08
4.24327e-06
5.97629e-08
4.24392e-06
5.72141e-08
4.24416e-06
5.49155e-08
4.24405e-06
5.2988e-08
4.24366e-06
5.16001e-08
4.24307e-06
5.08694e-08
4.24269e-06
5.11644e-08
4.24247e-06
5.21055e-08
5.46384e-08
4.24417e-06
4.51044e-06
1.43389e-08
4.51686e-06
4.41027e-08
4.52215e-06
5.69826e-08
4.52678e-06
6.12538e-08
4.53136e-06
6.41183e-08
4.5355e-06
6.50821e-08
4.53903e-06
6.40714e-08
4.54201e-06
6.21325e-08
4.54451e-06
5.99289e-08
4.5466e-06
5.76775e-08
4.54832e-06
5.54979e-08
4.54971e-06
5.35187e-08
4.55084e-06
5.18585e-08
4.55179e-06
5.06502e-08
4.55268e-06
4.9985e-08
4.55381e-06
5.00285e-08
4.55536e-06
5.05537e-08
5.17189e-08
4.55828e-06
4.83412e-06
1.29361e-08
4.83957e-06
3.86513e-08
4.84481e-06
5.17499e-08
4.84937e-06
5.66922e-08
4.85384e-06
5.9646e-08
4.85802e-06
6.09e-08
4.86173e-06
6.03629e-08
4.865e-06
5.88658e-08
4.86789e-06
5.70396e-08
4.87044e-06
5.51229e-08
4.8727e-06
5.32399e-08
4.87471e-06
5.15125e-08
4.87652e-06
5.00484e-08
4.87822e-06
4.89455e-08
4.87995e-06
4.82587e-08
4.88194e-06
4.8033e-08
4.88441e-06
4.80819e-08
4.82725e-08
4.88786e-06
5.1809e-06
1.16144e-08
5.1857e-06
3.38541e-08
5.19081e-06
4.6635e-08
5.19536e-06
5.21425e-08
5.19979e-06
5.52205e-08
5.204e-06
5.66871e-08
5.20783e-06
5.6536e-08
5.21128e-06
5.54178e-08
5.2144e-06
5.39136e-08
5.21725e-06
5.22789e-08
5.21985e-06
5.06422e-08
5.22224e-06
4.9116e-08
5.2245e-06
4.7793e-08
5.2267e-06
4.67413e-08
5.22898e-06
4.59825e-08
5.23152e-06
4.54948e-08
5.23449e-06
4.51084e-08
4.4622e-08
5.23814e-06
5.5526e-06
1.03492e-08
5.55685e-06
2.96114e-08
5.56174e-06
4.17367e-08
5.56628e-06
4.76043e-08
5.5707e-06
5.08016e-08
5.57496e-06
5.24256e-08
5.5789e-06
5.25945e-08
5.58251e-06
5.18123e-08
5.58583e-06
5.05955e-08
5.5889e-06
4.92081e-08
5.59176e-06
4.77823e-08
5.59445e-06
4.642e-08
5.59705e-06
4.51991e-08
5.59962e-06
4.41642e-08
5.60229e-06
4.33132e-08
5.6052e-06
4.25933e-08
5.60845e-06
4.18549e-08
4.09165e-08
5.61215e-06
5.95099e-06
9.13746e-09
5.95475e-06
2.5846e-08
5.95939e-06
3.70996e-08
5.9639e-06
4.3098e-08
5.96832e-06
4.63809e-08
5.97263e-06
4.81157e-08
5.97668e-06
4.85415e-08
5.98044e-06
4.80536e-08
5.98394e-06
4.70955e-08
5.98722e-06
4.59287e-08
5.99031e-06
4.46871e-08
5.99327e-06
4.34624e-08
5.99615e-06
4.23186e-08
5.99903e-06
4.12843e-08
6.002e-06
4.03443e-08
6.00516e-06
3.94382e-08
6.00857e-06
3.84425e-08
3.72244e-08
6.01226e-06
6.37796e-06
7.99263e-09
6.38132e-06
2.24805e-08
6.38569e-06
3.27323e-08
6.39014e-06
3.86478e-08
6.39456e-06
4.19632e-08
6.39891e-06
4.37663e-08
6.40306e-06
4.43856e-08
6.40697e-06
4.41455e-08
6.41065e-06
4.34166e-08
6.41413e-06
4.24462e-08
6.41745e-06
4.13666e-08
6.42065e-06
4.02605e-08
6.42379e-06
3.91803e-08
6.42693e-06
3.8145e-08
6.43014e-06
3.71356e-08
6.43348e-06
3.60975e-08
6.43699e-06
3.49365e-08
3.35699e-08
6.44064e-06
5.74175e-06
7.07689e-09
5.74433e-06
1.99006e-08
5.74782e-06
2.9247e-08
5.75152e-06
3.49438e-08
5.75525e-06
3.82351e-08
5.75895e-06
4.00663e-08
5.76253e-06
4.08019e-08
5.76594e-06
4.07317e-08
5.76919e-06
4.0172e-08
5.77229e-06
3.93496e-08
5.77526e-06
3.83922e-08
5.77815e-06
3.73756e-08
5.78098e-06
3.63453e-08
5.78381e-06
3.53156e-08
5.78668e-06
3.42693e-08
5.78961e-06
3.31622e-08
5.79262e-06
3.1924e-08
3.05082e-08
5.79569e-06
6.99913e-06
6.099e-09
7.00186e-06
1.71708e-08
7.00564e-06
2.54743e-08
7.00978e-06
3.07999e-08
7.01403e-06
3.39838e-08
7.0183e-06
3.58003e-08
7.02248e-06
3.66207e-08
7.02651e-06
3.67023e-08
7.03037e-06
3.63061e-08
7.03409e-06
3.56321e-08
7.03768e-06
3.47998e-08
7.04118e-06
3.38781e-08
7.04462e-06
3.29063e-08
7.04804e-06
3.18971e-08
7.05147e-06
3.08385e-08
7.05493e-06
2.97004e-08
7.05842e-06
2.84368e-08
2.70334e-08
7.06189e-06
8.53188e-06
5.06788e-09
8.53473e-06
1.43171e-08
8.53877e-06
2.144e-08
8.54335e-06
2.62203e-08
8.54815e-06
2.9184e-08
8.55302e-06
3.09214e-08
8.55787e-06
3.17771e-08
8.56259e-06
3.19761e-08
8.56717e-06
3.17262e-08
8.57161e-06
3.11948e-08
8.57592e-06
3.04885e-08
8.58013e-06
2.96692e-08
8.58427e-06
2.87713e-08
8.58836e-06
2.78083e-08
8.59242e-06
2.67759e-08
8.59646e-06
2.56587e-08
8.60046e-06
2.44322e-08
2.3106e-08
8.60439e-06
1.04003e-05
3.99395e-09
1.04033e-05
1.13568e-08
1.04075e-05
1.7161e-08
1.04125e-05
2.12084e-08
1.04179e-05
2.38101e-08
1.04235e-05
2.53792e-08
1.0429e-05
2.62022e-08
1.04345e-05
2.64674e-08
1.04399e-05
2.63339e-08
1.04452e-05
2.59323e-08
1.04503e-05
2.53519e-08
1.04554e-05
2.46464e-08
1.04603e-05
2.38464e-08
1.04651e-05
2.2967e-08
1.04699e-05
2.20116e-08
1.04746e-05
2.09773e-08
1.04791e-05
1.98563e-08
1.8672e-08
1.04836e-05
1.26779e-05
2.8828e-09
1.2681e-05
8.28112e-09
1.26855e-05
1.26264e-08
1.2691e-05
1.5749e-08
1.2697e-05
1.78225e-08
1.27032e-05
1.91079e-08
1.27096e-05
1.98125e-08
1.2716e-05
2.00791e-08
1.27223e-05
2.00213e-08
1.27285e-05
1.9732e-08
1.27346e-05
1.92786e-08
1.27405e-05
1.87042e-08
1.27463e-05
1.8035e-08
1.2752e-05
1.72867e-08
1.27576e-05
1.64678e-08
1.2763e-05
1.55839e-08
1.27682e-05
1.4637e-08
1.36562e-08
1.27732e-05
1.54543e-05
1.72349e-09
1.54576e-05
5.03834e-09
1.54624e-05
7.76594e-09
1.54684e-05
9.76723e-09
1.54751e-05
1.11313e-08
1.54822e-05
1.19978e-08
1.54896e-05
1.24862e-08
1.54969e-05
1.26833e-08
1.55043e-05
1.2657e-08
1.55116e-05
1.24627e-08
1.55187e-05
1.21424e-08
1.55257e-05
1.17243e-08
1.55325e-05
1.12277e-08
1.55391e-05
1.06654e-08
1.55455e-05
1.00473e-08
1.55517e-05
9.38166e-09
1.55577e-05
8.67444e-09
7.95371e-09
1.55634e-05
1.88389e-05
4.74836e-10
1.88424e-05
1.49669e-09
1.88478e-05
2.39033e-09
1.88545e-05
3.05264e-09
1.88621e-05
3.51868e-09
1.88703e-05
3.82701e-09
1.88788e-05
4.0038e-09
1.88874e-05
4.06942e-09
1.8896e-05
4.04255e-09
1.89045e-05
3.93907e-09
1.89129e-05
3.77102e-09
1.89211e-05
3.54744e-09
1.8929e-05
3.27556e-09
1.89367e-05
2.96168e-09
1.89442e-05
2.61167e-09
1.89513e-05
2.23199e-09
1.89582e-05
1.82744e-09
1.42077e-09
1.89647e-05
2.29648e-05
-9.70309e-10
2.29689e-05
-2.64551e-09
2.29753e-05
-3.94034e-09
2.29832e-05
-4.8953e-09
2.29922e-05
-5.51585e-09
2.30019e-05
-5.88074e-09
2.3012e-05
-6.08011e-09
2.30223e-05
-6.17112e-09
2.30325e-05
-6.1899e-09
2.30426e-05
-6.16769e-09
2.30525e-05
-6.13003e-09
2.30622e-05
-6.09343e-09
2.30715e-05
-6.06703e-09
2.30805e-05
-6.05559e-09
2.30892e-05
-6.06105e-09
2.30975e-05
-6.08273e-09
2.31054e-05
-6.11982e-09
-6.15722e-09
2.3113e-05
1.68118e-05
-2.11349e-09
1.68151e-05
-5.88761e-09
1.682e-05
-8.89341e-09
1.68262e-05
-1.10585e-08
1.68331e-05
-1.24219e-08
1.68404e-05
-1.3211e-08
1.6848e-05
-1.3627e-08
1.68556e-05
-1.37767e-08
1.68631e-05
-1.37344e-08
1.68705e-05
-1.35705e-08
1.68778e-05
-1.33398e-08
1.68847e-05
-1.30768e-08
1.68915e-05
-1.2802e-08
1.68979e-05
-1.25286e-08
1.69041e-05
-1.22643e-08
1.69101e-05
-1.20127e-08
1.69157e-05
-1.17756e-08
-1.15427e-08
1.69211e-05
1.46357e-05
-3.21972e-09
1.46388e-05
-9.05343e-09
1.46437e-05
-1.37412e-08
1.46496e-05
-1.69774e-08
1.46561e-05
-1.89001e-08
1.46629e-05
-1.99781e-08
1.46697e-05
-2.05115e-08
1.46766e-05
-2.06332e-08
1.46833e-05
-2.04624e-08
1.46899e-05
-2.01152e-08
1.46962e-05
-1.96704e-08
1.47023e-05
-1.91736e-08
1.47081e-05
-1.86532e-08
1.47137e-05
-1.81294e-08
1.47191e-05
-1.76143e-08
1.47242e-05
-1.71144e-08
1.47291e-05
-1.66331e-08
-1.61631e-08
1.47337e-05
1.27412e-05
-4.26528e-09
1.27444e-05
-1.22696e-08
1.27494e-05
-1.87204e-08
1.27552e-05
-2.28051e-08
1.27614e-05
-2.5057e-08
1.27677e-05
-2.63162e-08
1.27741e-05
-2.68848e-08
1.27803e-05
-2.68887e-08
1.27864e-05
-2.6519e-08
1.27922e-05
-2.59467e-08
1.27978e-05
-2.52666e-08
1.28032e-05
-2.45281e-08
1.28083e-05
-2.37654e-08
1.28131e-05
-2.30028e-08
1.28178e-05
-2.22551e-08
1.28222e-05
-2.15294e-08
1.28264e-05
-2.08292e-08
-2.0149e-08
1.28304e-05
1.10918e-05
-5.13982e-09
1.10951e-05
-1.55966e-08
1.11004e-05
-2.40349e-08
1.11063e-05
-2.86163e-08
1.11121e-05
-3.09359e-08
1.11181e-05
-3.22793e-08
1.1124e-05
-3.27931e-08
1.11297e-05
-3.25957e-08
1.11352e-05
-3.19783e-08
1.11404e-05
-3.11568e-08
1.11453e-05
-3.02284e-08
1.11501e-05
-2.92442e-08
1.11545e-05
-2.82437e-08
1.11588e-05
-2.72541e-08
1.11628e-05
-2.62901e-08
1.11667e-05
-2.53583e-08
1.11703e-05
-2.44615e-08
-2.35948e-08
1.11737e-05
9.65583e-06
-5.75119e-09
9.65935e-06
-1.91251e-08
9.66497e-06
-2.96527e-08
9.67068e-06
-3.43253e-08
9.67635e-06
-3.66074e-08
9.68203e-06
-3.79528e-08
9.6875e-06
-3.82695e-08
9.69268e-06
-3.77764e-08
9.69759e-06
-3.68803e-08
9.70223e-06
-3.58036e-08
9.70663e-06
-3.4626e-08
9.71078e-06
-3.33985e-08
9.71471e-06
-3.21662e-08
9.71841e-06
-3.09579e-08
9.72191e-06
-2.97877e-08
9.72521e-06
-2.86614e-08
9.72833e-06
-2.75799e-08
-2.65371e-08
9.73127e-06
8.40543e-06
-5.82874e-09
8.40981e-06
-2.35034e-08
8.41533e-06
-3.51702e-08
8.42054e-06
-3.95375e-08
8.426e-06
-4.20652e-08
8.4315e-06
-4.34561e-08
8.43668e-06
-4.34553e-08
8.44148e-06
-4.2574e-08
8.44595e-06
-4.1348e-08
8.45012e-06
-3.9977e-08
8.45402e-06
-3.85183e-08
8.45764e-06
-3.70237e-08
8.46102e-06
-3.5541e-08
8.46416e-06
-3.40991e-08
8.46708e-06
-3.27114e-08
8.4698e-06
-3.13837e-08
8.47234e-06
-3.01165e-08
-2.89051e-08
8.47471e-06
7.31506e-06
-3.59978e-09
7.32194e-06
-3.03912e-08
7.32741e-06
-4.06319e-08
7.33219e-06
-4.43239e-08
7.33753e-06
-4.74003e-08
7.34293e-06
-4.88567e-08
7.34792e-06
-4.84462e-08
7.35243e-06
-4.70863e-08
7.35651e-06
-4.5424e-08
7.36017e-06
-4.36375e-08
7.36343e-06
-4.17858e-08
7.36634e-06
-3.99321e-08
7.36893e-06
-3.81259e-08
7.37122e-06
-3.6393e-08
7.37326e-06
-3.4745e-08
7.37506e-06
-3.31863e-08
7.37666e-06
-3.17142e-08
-3.03215e-08
7.37807e-06
6.36222e-06
4.24755e-09
6.37295e-06
-4.11185e-08
6.38008e-06
-4.77678e-08
6.38628e-06
-5.05184e-08
6.39226e-06
-5.33876e-08
6.39757e-06
-5.41648e-08
6.40195e-06
-5.28275e-08
6.40555e-06
-5.06871e-08
6.40849e-06
-4.83573e-08
6.4108e-06
-4.59503e-08
6.41255e-06
-4.35336e-08
6.4138e-06
-4.1185e-08
6.41463e-06
-3.89527e-08
6.41509e-06
-3.68565e-08
6.41525e-06
-3.49027e-08
6.41515e-06
-3.30925e-08
6.41486e-06
-3.14177e-08
-2.98574e-08
6.41439e-06
5.53608e-06
1.36355e-08
5.54775e-06
-5.27935e-08
5.55745e-06
-5.74616e-08
5.56603e-06
-5.90983e-08
5.57281e-06
-6.01688e-08
5.57724e-06
-5.86017e-08
5.57941e-06
-5.4992e-08
5.57986e-06
-5.11406e-08
5.57903e-06
-4.75223e-08
5.57718e-06
-4.41083e-08
5.57456e-06
-4.09061e-08
5.57133e-06
-3.79534e-08
5.56764e-06
-3.52636e-08
5.56361e-06
-3.28282e-08
5.55934e-06
-3.06329e-08
5.55492e-06
-2.86745e-08
5.55045e-06
-2.69441e-08
-2.53806e-08
5.54597e-06
4.8575e-06
-1.62598e-08
4.8609e-06
-5.61932e-08
4.8615e-06
-5.80585e-08
4.85884e-06
-5.64389e-08
4.85484e-06
-5.61722e-08
4.84816e-06
-5.19203e-08
4.83892e-06
-4.57546e-08
4.82769e-06
-3.99073e-08
4.8151e-06
-3.49321e-08
4.80174e-06
-3.07518e-08
4.78807e-06
-2.72303e-08
4.77438e-06
-2.42644e-08
4.76088e-06
-2.17633e-08
4.7477e-06
-1.96478e-08
4.73492e-06
-1.78549e-08
4.72262e-06
-1.63746e-08
4.71091e-06
-1.52336e-08
-1.49255e-08
4.70046e-06
4.18642e-06
4.13022e-06
4.07216e-06
4.01573e-06
3.95955e-06
3.90763e-06
3.86188e-06
3.82197e-06
3.78704e-06
3.75629e-06
3.72906e-06
3.70479e-06
3.68303e-06
3.66338e-06
3.64553e-06
3.62915e-06
3.61392e-06
3.59899e-06
1.63648e-08
-1.63648e-08
6.19902e-08
-4.56254e-08
1.26595e-07
-6.46052e-08
2.0569e-07
-7.90946e-08
2.94244e-07
-8.85544e-08
3.83228e-07
-8.89834e-08
4.6527e-07
-8.20425e-08
5.3746e-07
-7.21892e-08
5.98455e-07
-6.09955e-08
6.47349e-07
-4.88939e-08
6.83372e-07
-3.60231e-08
7.05862e-07
-2.24903e-08
7.11649e-07
-5.78669e-09
6.96593e-07
1.50563e-08
6.64588e-07
3.20046e-08
6.19545e-07
4.5043e-08
5.61959e-07
5.75864e-08
4.94683e-07
6.72754e-08
4.2364e-07
7.10431e-08
3.54723e-07
6.89171e-08
2.91252e-07
6.34709e-08
2.336e-07
5.76519e-08
1.80334e-07
5.32663e-08
1.2577e-07
5.4564e-08
6.46042e-08
6.11659e-08
-6.81327e-09
7.14174e-08
-9.06199e-08
8.38066e-08
-1.88604e-07
9.79839e-08
-3.01352e-07
1.12748e-07
-4.2801e-07
1.26658e-07
-5.66248e-07
1.38238e-07
-7.12634e-07
1.46386e-07
-8.63233e-07
1.506e-07
-1.01416e-06
1.50926e-07
-1.16196e-06
1.47797e-07
-1.30382e-06
1.41868e-07
-1.43771e-06
1.33882e-07
-1.56227e-06
1.24564e-07
-1.67683e-06
1.14562e-07
-1.78124e-06
1.04408e-07
-1.87574e-06
9.45044e-08
-1.96088e-06
8.51346e-08
-2.03735e-06
7.64746e-08
-2.10597e-06
6.86147e-08
-2.16755e-06
6.15799e-08
-2.2229e-06
5.53502e-08
-2.27277e-06
4.9876e-08
-2.31787e-06
4.50912e-08
-2.35879e-06
4.09225e-08
-2.39608e-06
3.72956e-08
-2.43022e-06
3.41393e-08
-2.46161e-06
3.1388e-08
-2.49059e-06
2.89826e-08
-2.51746e-06
2.68706e-08
-2.54247e-06
2.50063e-08
-2.56582e-06
2.33501e-08
-2.58769e-06
2.18676e-08
-2.60822e-06
2.05295e-08
-2.62753e-06
1.93106e-08
-2.64572e-06
1.81894e-08
-2.66287e-06
1.71473e-08
-2.67903e-06
1.61689e-08
-2.69427e-06
1.52406e-08
-2.70863e-06
1.43512e-08
-2.72212e-06
1.3491e-08
-2.73477e-06
1.26522e-08
-2.7466e-06
1.1828e-08
-2.75761e-06
1.1013e-08
-2.76781e-06
1.0203e-08
-2.77721e-06
9.39449e-09
-2.78579e-06
8.5851e-09
-2.79357e-06
7.77309e-09
-2.80052e-06
6.95752e-09
-2.80666e-06
6.13809e-09
-2.81198e-06
5.31491e-09
-2.81647e-06
4.48849e-09
-2.82012e-06
3.6589e-09
-2.82295e-06
2.82679e-09
-2.82494e-06
1.99312e-09
-2.82608e-06
1.13991e-09
-2.82634e-06
2.57811e-10
-2.82568e-06
-6.62442e-10
-2.8242e-06
-1.48098e-09
-2.82197e-06
-2.23159e-09
-2.81905e-06
-2.91261e-09
-2.81551e-06
-3.53978e-09
-2.81139e-06
-4.11927e-09
-2.80674e-06
-4.65246e-09
-2.8016e-06
-5.13877e-09
-2.79603e-06
-5.57775e-09
-2.79006e-06
-5.96838e-09
-2.78375e-06
-6.30926e-09
-2.77715e-06
-6.59991e-09
-2.77031e-06
-6.84043e-09
-2.76328e-06
-7.03187e-09
-2.7561e-06
-7.17602e-09
-2.74882e-06
-7.27575e-09
-2.74149e-06
-7.33512e-09
-2.73413e-06
-7.35927e-09
-2.72678e-06
-7.35466e-09
-2.71945e-06
-7.32856e-09
-2.71216e-06
-7.28827e-09
-2.70492e-06
-7.23933e-09
-2.69773e-06
-7.18448e-09
-2.69061e-06
-7.12413e-09
-2.68355e-06
-7.06202e-09
-2.67654e-06
-7.00978e-09
-2.66955e-06
-6.98556e-09
-2.66255e-06
-7.00774e-09
-2.65545e-06
-7.09191e-09
-2.6482e-06
-7.253e-09
-2.64069e-06
-7.50648e-09
-2.63283e-06
-7.86784e-09
-2.62447e-06
-8.35285e-09
-2.6155e-06
-8.97776e-09
-2.60574e-06
-9.75922e-09
-2.59502e-06
-1.07142e-08
-2.58316e-06
-1.18604e-08
-2.56995e-06
-1.32154e-08
-2.55515e-06
-1.47977e-08
-2.53852e-06
-1.66257e-08
-2.51981e-06
-1.8718e-08
-2.49871e-06
-2.10935e-08
-2.47494e-06
-2.37707e-08
-2.44817e-06
-2.67682e-08
-2.41807e-06
-3.01041e-08
-2.38427e-06
-3.37965e-08
-2.34641e-06
-3.7863e-08
-2.30409e-06
-4.23213e-08
-2.2569e-06
-4.71885e-08
-2.20442e-06
-5.24806e-08
-2.14621e-06
-5.82116e-08
-2.08181e-06
-6.43934e-08
-2.01078e-06
-7.10354e-08
-1.93263e-06
-7.81448e-08
-1.84691e-06
-8.57261e-08
-1.75313e-06
-9.37774e-08
-1.65084e-06
-1.0229e-07
-1.53959e-06
-1.1125e-07
-1.41896e-06
-1.20635e-07
-1.28855e-06
-1.30408e-07
-1.14802e-06
-1.40525e-07
-9.97103e-07
-1.50919e-07
-8.35589e-07
-1.61514e-07
-6.63378e-07
-1.7221e-07
-4.80528e-07
-1.82851e-07
-2.87332e-07
-1.93196e-07
-8.42356e-08
-2.03096e-07
1.2846e-07
-2.12696e-07
3.50248e-07
-2.21788e-07
5.79967e-07
-2.29719e-07
8.16368e-07
-2.36401e-07
1.058e-06
-2.41636e-07
1.30322e-06
-2.45211e-07
1.55015e-06
-2.46937e-07
1.79681e-06
-2.46657e-07
2.04107e-06
-2.44262e-07
2.28076e-06
-2.39694e-07
2.51371e-06
-2.3295e-07
2.7378e-06
-2.24086e-07
2.951e-06
-2.13203e-07
3.15146e-06
-2.00453e-07
3.33748e-06
-1.8602e-07
3.50759e-06
-1.70118e-07
3.66057e-06
-1.5297e-07
3.79535e-06
-1.34789e-07
3.91113e-06
-1.15781e-07
4.00741e-06
-9.6277e-08
4.08406e-06
-7.6649e-08
4.13942e-06
-5.5361e-08
4.16687e-06
-2.74527e-08
4.15911e-06
7.76783e-09
4.11881e-06
4.02981e-08
4.05185e-06
6.69547e-08
3.96202e-06
8.98298e-08
3.85052e-06
1.11509e-07
3.71474e-06
1.35774e-07
3.54823e-06
1.66517e-07
3.3249e-06
2.23328e-07
2.8523e-07
3.03967e-06
7.54211e-08
-9.17859e-08
1.63725e-07
-1.3393e-07
2.4635e-07
-1.4723e-07
3.18289e-07
-1.51034e-07
3.78531e-07
-1.48796e-07
4.29958e-07
-1.40411e-07
4.74662e-07
-1.26747e-07
5.12191e-07
-1.09718e-07
5.41826e-07
-9.063e-08
5.63026e-07
-7.00943e-08
5.75406e-07
-4.84028e-08
5.78549e-07
-2.56332e-08
5.74309e-07
-1.54683e-09
5.65687e-07
2.36779e-08
5.48581e-07
4.91104e-08
5.19578e-07
7.40465e-08
4.7943e-07
9.77343e-08
4.28757e-07
1.17949e-07
3.66727e-07
1.33073e-07
2.93375e-07
1.42269e-07
2.0957e-07
1.47276e-07
1.1705e-07
1.50171e-07
1.5114e-08
1.55202e-07
-9.52785e-08
1.64956e-07
-2.14355e-07
1.80242e-07
-3.42878e-07
1.9994e-07
-4.81043e-07
2.21972e-07
-6.27057e-07
2.43998e-07
-7.77833e-07
2.63524e-07
-9.29554e-07
2.78379e-07
-1.07838e-06
2.87068e-07
-1.22101e-06
2.89009e-07
-1.3549e-06
2.84495e-07
-1.47844e-06
2.74466e-07
-1.59085e-06
2.60204e-07
-1.69206e-06
2.43081e-07
-1.78255e-06
2.24371e-07
-1.86313e-06
2.05146e-07
-1.93481e-06
1.86233e-07
-1.99861e-06
1.68217e-07
-2.05558e-06
1.51468e-07
-2.10663e-06
1.36185e-07
-2.15259e-06
1.22434e-07
-2.19417e-06
1.10192e-07
-2.23196e-06
9.93761e-08
-2.26648e-06
8.98694e-08
-2.29815e-06
8.15401e-08
-2.32731e-06
7.4253e-08
-2.35426e-06
6.78774e-08
-2.37926e-06
6.22915e-08
-2.4025e-06
5.73852e-08
-2.42418e-06
5.30603e-08
-2.44442e-06
4.92302e-08
-2.46337e-06
4.58193e-08
-2.48113e-06
4.27621e-08
-2.49778e-06
4.00017e-08
-2.5134e-06
3.74891e-08
-2.52805e-06
3.51821e-08
-2.54179e-06
3.30442e-08
-2.55464e-06
3.10439e-08
-2.56665e-06
2.91546e-08
-2.57783e-06
2.7353e-08
-2.58821e-06
2.56195e-08
-2.5978e-06
2.39374e-08
-2.6066e-06
2.22926e-08
-2.61462e-06
2.06736e-08
-2.62186e-06
1.90705e-08
-2.62833e-06
1.74758e-08
-2.63401e-06
1.58835e-08
-2.6389e-06
1.42893e-08
-2.64301e-06
1.26901e-08
-2.64632e-06
1.10845e-08
-2.64883e-06
9.47218e-09
-2.65055e-06
7.85385e-09
-2.65147e-06
6.23146e-09
-2.65159e-06
4.60775e-09
-2.65091e-06
2.98638e-09
-2.64946e-06
1.37052e-09
-2.64725e-06
-2.12926e-10
-2.6443e-06
-1.81339e-09
-2.64067e-06
-3.37228e-09
-2.63644e-06
-4.89264e-09
-2.63157e-06
-6.3508e-09
-2.62605e-06
-7.74655e-09
-2.6199e-06
-9.06913e-09
-2.61312e-06
-1.03142e-08
-2.60576e-06
-1.14779e-08
-2.59786e-06
-1.25558e-08
-2.58945e-06
-1.3543e-08
-2.5806e-06
-1.44354e-08
-2.57134e-06
-1.52295e-08
-2.56172e-06
-1.59222e-08
-2.55181e-06
-1.65116e-08
-2.54165e-06
-1.69973e-08
-2.53131e-06
-1.73802e-08
-2.52082e-06
-1.76633e-08
-2.51024e-06
-1.78511e-08
-2.49963e-06
-1.79502e-08
-2.48902e-06
-1.79691e-08
-2.47846e-06
-1.79182e-08
-2.46797e-06
-1.78093e-08
-2.45761e-06
-1.76547e-08
-2.44738e-06
-1.74662e-08
-2.43731e-06
-1.72546e-08
-2.42741e-06
-1.703e-08
-2.41766e-06
-1.68071e-08
-2.40806e-06
-1.6608e-08
-2.39859e-06
-1.64624e-08
-2.38919e-06
-1.64022e-08
-2.37982e-06
-1.64582e-08
-2.37042e-06
-1.66607e-08
-2.36088e-06
-1.70409e-08
-2.35112e-06
-1.76304e-08
-2.34101e-06
-1.84619e-08
-2.33042e-06
-1.95685e-08
-2.31919e-06
-2.09846e-08
-2.30716e-06
-2.27452e-08
-2.29414e-06
-2.48861e-08
-2.27991e-06
-2.74442e-08
-2.26425e-06
-3.04566e-08
-2.24691e-06
-3.39613e-08
-2.22764e-06
-3.79964e-08
-2.20613e-06
-4.26002e-08
-2.18209e-06
-4.78108e-08
-2.15519e-06
-5.36659e-08
-2.12509e-06
-6.02027e-08
-2.09143e-06
-6.74574e-08
-2.05383e-06
-7.54655e-08
-2.01189e-06
-8.42619e-08
-1.9652e-06
-9.38808e-08
-1.91332e-06
-1.04354e-07
-1.85583e-06
-1.15708e-07
-1.79225e-06
-1.27968e-07
-1.72214e-06
-1.4115e-07
-1.64502e-06
-1.55268e-07
-1.56041e-06
-1.70328e-07
-1.46786e-06
-1.86328e-07
-1.3669e-06
-2.03249e-07
-1.2571e-06
-2.21059e-07
-1.13802e-06
-2.39713e-07
-1.00929e-06
-2.59138e-07
-8.7057e-07
-2.79241e-07
-7.21594e-07
-2.99896e-07
-5.62165e-07
-3.20943e-07
-3.92196e-07
-3.42179e-07
-2.117e-07
-3.63347e-07
-2.0718e-08
-3.84178e-07
1.80629e-07
-4.04443e-07
3.9175e-07
-4.23817e-07
6.11775e-07
-4.41813e-07
8.39919e-07
-4.57863e-07
1.07505e-06
-4.7153e-07
1.31579e-06
-4.82375e-07
1.56055e-06
-4.89969e-07
1.80754e-06
-4.93935e-07
2.05485e-06
-4.93964e-07
2.30043e-06
-4.89838e-07
2.54217e-06
-4.81442e-07
2.778e-06
-4.68772e-07
3.00585e-06
-4.51935e-07
3.22378e-06
-4.31139e-07
3.43001e-06
-4.0668e-07
3.62292e-06
-3.78928e-07
3.8011e-06
-3.48306e-07
3.9634e-06
-3.15264e-07
4.10886e-06
-2.80252e-07
4.2368e-06
-2.43723e-07
4.34667e-06
-2.06149e-07
4.43783e-06
-1.67806e-07
4.5106e-06
-1.28131e-07
4.56935e-06
-8.62001e-08
4.6185e-06
-4.13791e-08
4.6548e-06
3.99375e-09
4.67351e-06
4.82442e-08
4.67233e-06
9.10111e-08
4.65023e-06
1.33607e-07
4.60598e-06
1.8003e-07
4.53811e-06
2.34382e-07
4.44079e-06
3.20646e-07
4.3208e-07
4.29394e-06
8.37664e-08
-1.75552e-07
1.67427e-07
-2.1759e-07
2.37458e-07
-2.17261e-07
2.93384e-07
-2.0696e-07
3.36506e-07
-1.91918e-07
3.69421e-07
-1.73326e-07
3.94465e-07
-1.51791e-07
4.12682e-07
-1.27935e-07
4.24312e-07
-1.02259e-07
4.29298e-07
-7.50804e-08
4.27479e-07
-4.65844e-08
4.18737e-07
-1.68907e-08
4.03284e-07
1.39064e-08
3.81342e-07
4.56196e-08
3.52545e-07
7.7907e-08
3.16382e-07
1.10209e-07
2.72498e-07
1.41619e-07
2.1971e-07
1.70737e-07
1.56574e-07
1.96208e-07
8.15068e-08
2.17337e-07
-6.10538e-09
2.34888e-07
-1.06744e-07
2.5081e-07
-2.19308e-07
2.67766e-07
-3.41863e-07
2.87512e-07
-4.71899e-07
3.10277e-07
-6.06642e-07
3.34684e-07
-7.42992e-07
3.58323e-07
-8.77488e-07
3.78493e-07
-1.00681e-06
3.92849e-07
-1.12831e-06
3.99879e-07
-1.24034e-06
3.99092e-07
-1.34227e-06
3.9094e-07
-1.43432e-06
3.76551e-07
-1.51726e-06
3.57403e-07
-1.5921e-06
3.35046e-07
-1.65993e-06
3.10906e-07
-1.72173e-06
2.86177e-07
-1.77837e-06
2.61784e-07
-1.83053e-06
2.38392e-07
-1.87875e-06
2.16439e-07
-1.92346e-06
1.96175e-07
-1.96498e-06
1.77709e-07
-2.00359e-06
1.61044e-07
-2.03952e-06
1.46115e-07
-2.07295e-06
1.32812e-07
-2.10408e-06
1.21e-07
-2.13307e-06
1.10534e-07
-2.16009e-06
1.01267e-07
-2.18527e-06
9.30594e-08
-2.20876e-06
8.57792e-08
-2.23068e-06
7.93057e-08
-2.25115e-06
7.353e-08
-2.27027e-06
6.83545e-08
-2.28815e-06
6.36926e-08
-2.30485e-06
5.94678e-08
-2.32046e-06
5.56127e-08
-2.33504e-06
5.20682e-08
-2.34864e-06
4.87826e-08
-2.36131e-06
4.57108e-08
-2.37308e-06
4.28133e-08
-2.38398e-06
4.00561e-08
-2.39404e-06
3.74097e-08
-2.40327e-06
3.48486e-08
-2.41168e-06
3.23512e-08
-2.41929e-06
2.98993e-08
-2.42609e-06
2.74774e-08
-2.43209e-06
2.50732e-08
-2.43729e-06
2.26766e-08
-2.44169e-06
2.02801e-08
-2.44528e-06
1.78781e-08
-2.44806e-06
1.54673e-08
-2.45002e-06
1.30461e-08
-2.45116e-06
1.06149e-08
-2.45148e-06
8.17567e-09
-2.45098e-06
5.73203e-09
-2.44966e-06
3.28928e-09
-2.44753e-06
8.5387e-10
-2.4446e-06
-1.56556e-09
-2.44085e-06
-3.95527e-09
-2.43635e-06
-6.31653e-09
-2.43109e-06
-8.62811e-09
-2.42511e-06
-1.08776e-08
-2.41841e-06
-1.30531e-08
-2.41101e-06
-1.51444e-08
-2.40294e-06
-1.71397e-08
-2.39423e-06
-1.90278e-08
-2.3849e-06
-2.07989e-08
-2.37502e-06
-2.24437e-08
-2.36461e-06
-2.39535e-08
-2.35372e-06
-2.53205e-08
-2.34241e-06
-2.65382e-08
-2.33073e-06
-2.76016e-08
-2.31874e-06
-2.85069e-08
-2.30648e-06
-2.92529e-08
-2.29402e-06
-2.984e-08
-2.28141e-06
-3.02717e-08
-2.26871e-06
-3.05536e-08
-2.25597e-06
-3.06942e-08
-2.24323e-06
-3.07045e-08
-2.23055e-06
-3.05983e-08
-2.21797e-06
-3.03913e-08
-2.20552e-06
-3.0101e-08
-2.19324e-06
-2.97458e-08
-2.18115e-06
-2.9345e-08
-2.16926e-06
-2.89197e-08
-2.15757e-06
-2.84958e-08
-2.14608e-06
-2.81062e-08
-2.13475e-06
-2.7791e-08
-2.12356e-06
-2.75937e-08
-2.11246e-06
-2.7559e-08
-2.10138e-06
-2.77323e-08
-2.09026e-06
-2.81603e-08
-2.079e-06
-2.88907e-08
-2.06749e-06
-2.99729e-08
-2.0556e-06
-3.14575e-08
-2.04319e-06
-3.33963e-08
-2.0301e-06
-3.58426e-08
-2.01613e-06
-3.88508e-08
-2.0011e-06
-4.24764e-08
-1.98478e-06
-4.67762e-08
-1.96693e-06
-5.18072e-08
-1.9473e-06
-5.76275e-08
-1.92561e-06
-6.42949e-08
-1.90155e-06
-7.18673e-08
-1.87482e-06
-8.04019e-08
-1.84506e-06
-8.9955e-08
-1.81194e-06
-1.00581e-07
-1.77507e-06
-1.12334e-07
-1.73407e-06
-1.25266e-07
-1.68852e-06
-1.39428e-07
-1.638e-06
-1.54868e-07
-1.58209e-06
-1.71626e-07
-1.52032e-06
-1.89738e-07
-1.45223e-06
-2.0923e-07
-1.37738e-06
-2.30121e-07
-1.29529e-06
-2.52422e-07
-1.20549e-06
-2.76127e-07
-1.10753e-06
-3.01208e-07
-1.00097e-06
-3.27619e-07
-8.8539e-07
-3.55293e-07
-7.60407e-07
-3.84122e-07
-6.2568e-07
-4.13968e-07
-4.80928e-07
-4.44648e-07
-3.25943e-07
-4.75928e-07
-1.60599e-07
-5.07523e-07
1.51688e-08
-5.39115e-07
2.01341e-07
-5.7035e-07
3.97678e-07
-6.00781e-07
6.03659e-07
-6.29798e-07
8.1855e-07
-6.56704e-07
1.04148e-06
-6.80792e-07
1.27134e-06
-7.0139e-07
1.50679e-06
-7.1783e-07
1.7463e-06
-7.29477e-07
1.98813e-06
-7.35767e-07
2.23041e-06
-7.36242e-07
2.47115e-06
-7.30577e-07
2.70831e-06
-7.186e-07
2.93985e-06
-7.00307e-07
3.16377e-06
-6.75855e-07
3.37818e-06
-6.45556e-07
3.58136e-06
-6.09853e-07
3.77173e-06
-5.69303e-07
3.94796e-06
-5.24537e-07
4.10894e-06
-4.76237e-07
4.25378e-06
-4.25098e-07
4.38187e-06
-3.71815e-07
4.49277e-06
-3.17043e-07
4.58618e-06
-2.61215e-07
4.66242e-06
-2.04371e-07
4.72286e-06
-1.46649e-07
4.76968e-06
-8.8195e-08
4.80346e-06
-2.97847e-08
4.82371e-06
2.79922e-08
4.82958e-06
8.51396e-08
4.82029e-06
1.42899e-07
4.79527e-06
2.05048e-07
4.75339e-06
2.76263e-07
4.69897e-06
3.75068e-07
5.04316e-07
4.62673e-06
7.26436e-08
-2.48196e-07
1.31204e-07
-2.7615e-07
1.77168e-07
-2.63225e-07
2.13111e-07
-2.42904e-07
2.40442e-07
-2.19249e-07
2.60303e-07
-1.93188e-07
2.73597e-07
-1.65084e-07
2.80829e-07
-1.35167e-07
2.82175e-07
-1.03606e-07
2.77615e-07
-7.05208e-08
2.67037e-07
-3.60055e-08
2.503e-07
-1.54075e-10
2.27289e-07
3.6917e-08
1.97882e-07
7.50273e-08
1.6191e-07
1.13879e-07
1.1914e-07
1.52979e-07
6.918e-08
1.91579e-07
1.12574e-08
2.2866e-07
-5.57225e-08
2.63188e-07
-1.32947e-07
2.94561e-07
-2.21111e-07
3.23052e-07
-3.20027e-07
3.49726e-07
-4.28101e-07
3.75841e-07
-5.42594e-07
4.02004e-07
-6.60019e-07
4.27702e-07
-7.76698e-07
4.51363e-07
-8.89241e-07
4.70866e-07
-9.94948e-07
4.84201e-07
-1.09211e-06
4.90007e-07
-1.18007e-06
4.8784e-07
-1.25911e-06
4.78137e-07
-1.33015e-06
4.6198e-07
-1.39439e-06
4.40795e-07
-1.45308e-06
4.16089e-07
-1.5073e-06
3.89261e-07
-1.5579e-06
3.61509e-07
-1.60551e-06
3.33789e-07
-1.65055e-06
3.06821e-07
-1.69327e-06
2.8111e-07
-1.73381e-06
2.56985e-07
-1.77227e-06
2.34632e-07
-1.80868e-06
2.14124e-07
-1.8431e-06
1.95457e-07
-1.87555e-06
1.78566e-07
-1.90609e-06
1.63351e-07
-1.93478e-06
1.49689e-07
-1.96169e-06
1.37445e-07
-1.9869e-06
1.26482e-07
-2.01051e-06
1.16663e-07
-2.03259e-06
1.0786e-07
-2.05323e-06
9.99516e-08
-2.07253e-06
9.28255e-08
-2.09055e-06
8.63796e-08
-2.10738e-06
8.05214e-08
-2.12308e-06
7.51676e-08
-2.13771e-06
7.02435e-08
-2.15133e-06
6.56828e-08
-2.16397e-06
6.14263e-08
-2.17568e-06
5.74219e-08
-2.18649e-06
5.36236e-08
-2.19643e-06
4.9991e-08
-2.20551e-06
4.6489e-08
-2.21375e-06
4.30873e-08
-2.22116e-06
3.97596e-08
-2.22774e-06
3.64839e-08
-2.2335e-06
3.32415e-08
-2.23845e-06
3.00173e-08
-2.24257e-06
2.67992e-08
-2.24587e-06
2.35781e-08
-2.24834e-06
2.03475e-08
-2.24997e-06
1.71033e-08
-2.25077e-06
1.38444e-08
-2.25073e-06
1.05714e-08
-2.24984e-06
7.28758e-09
-2.24811e-06
3.99813e-09
-2.24553e-06
7.10334e-10
-2.24211e-06
-2.56645e-09
-2.23785e-06
-5.82113e-09
-2.23277e-06
-9.04092e-09
-2.22687e-06
-1.22131e-08
-2.22018e-06
-1.53216e-08
-2.2127e-06
-1.83504e-08
-2.20447e-06
-2.12847e-08
-2.19551e-06
-2.41097e-08
-2.18584e-06
-2.68101e-08
-2.17549e-06
-2.93704e-08
-2.16452e-06
-3.17765e-08
-2.15295e-06
-3.40146e-08
-2.14083e-06
-3.60723e-08
-2.12821e-06
-3.79384e-08
-2.11514e-06
-3.96036e-08
-2.10168e-06
-4.106e-08
-2.08789e-06
-4.23024e-08
-2.07381e-06
-4.33281e-08
-2.05952e-06
-4.41369e-08
-2.04506e-06
-4.47323e-08
-2.03049e-06
-4.51207e-08
-2.01587e-06
-4.53121e-08
-2.00126e-06
-4.53197e-08
-1.98669e-06
-4.51604e-08
-1.97223e-06
-4.4854e-08
-1.95791e-06
-4.44231e-08
-1.94376e-06
-4.38929e-08
-1.92982e-06
-4.3291e-08
-1.91609e-06
-4.26488e-08
-1.90258e-06
-4.20029e-08
-1.88929e-06
-4.13969e-08
-1.8762e-06
-4.08809e-08
-1.86328e-06
-4.05099e-08
-1.8505e-06
-4.03415e-08
-1.8378e-06
-4.04354e-08
-1.8251e-06
-4.08535e-08
-1.81234e-06
-4.16596e-08
-1.79939e-06
-4.29195e-08
-1.78615e-06
-4.47009e-08
-1.77247e-06
-4.70736e-08
-1.7582e-06
-5.01086e-08
-1.74317e-06
-5.38791e-08
-1.72719e-06
-5.84595e-08