/*--------------------------------*- C++ -*----------------------------------*\
  =========                 |
  \\      /  F ield         | OpenFOAM: The Open Source CFD Toolbox
   \\    /   O peration     | Website:  https://openfoam.org
    \\  /    A nd           | Version:  12
     \\/     M anipulation  |
\*---------------------------------------------------------------------------*/
FoamFile
{
    format      ascii;
    class       volVectorField;
    location    "0.06";
    object      U;
}
// * * * * * * * * * * * * * * * * * * * * * * * * * * * * * * * * * * * * * //

dimensions      [0 1 -1 0 0 0 0];

internalField   nonuniform List<vector> 
12225
(
(9.86107 -0.874318 0)
(9.67246 -0.700186 0)
(9.4589 -0.387579 0)
(9.22451 -0.188458 0)
(9.00321 -0.0843705 0)
(8.80995 -0.0328453 0)
(8.64447 -0.00750936 0)
(8.50321 0.00508022 0)
(8.3827 0.0114112 0)
(8.27939 0.0145748 0)
(8.18985 0.0161114 0)
(8.11113 0.0168456 0)
(8.04073 0.017236 0)
(7.97666 0.0176191 0)
(7.91533 0.0181917 0)
(7.85894 0.0203193 0)
(7.77801 0.0216645 0)
(7.74336 0.0365487 0)
(10.0547 0.263068 0)
(10.1201 0.360745 0)
(10.118 0.273836 0)
(10.0826 0.187118 0)
(10.0405 0.131202 0)
(9.99376 0.0969811 0)
(9.93984 0.0756306 0)
(9.87997 0.0618488 0)
(9.81722 0.052478 0)
(9.75407 0.0457109 0)
(9.69194 0.0406133 0)
(9.63163 0.0367404 0)
(9.57348 0.0338624 0)
(9.51791 0.0320227 0)
(9.46387 0.0311048 0)
(9.41551 0.0334672 0)
(9.36132 0.0334988 0)
(9.33911 0.0572116 0)
(9.9992 0.0460825 0)
(10.0244 0.0342179 0)
(10.0538 0.0149747 0)
(10.0707 0.0218557 0)
(10.0777 0.0367356 0)
(10.0781 0.0460925 0)
(10.0719 0.0500595 0)
(10.0598 0.0512858 0)
(10.0433 0.0512409 0)
(10.0237 0.0505931 0)
(10.0019 0.049724 0)
(9.97845 0.0488992 0)
(9.95379 0.0482955 0)
(9.92836 0.0482172 0)
(9.90192 0.0487552 0)
(9.87614 0.0517251 0)
(9.8481 0.0543262 0)
(9.82342 0.0689399 0)
(9.9968 0.00642075 0)
(10.0085 0.025027 0)
(10.0342 0.0389683 0)
(10.0527 0.0503542 0)
(10.0643 0.0571845 0)
(10.0729 0.05927 0)
(10.0786 0.0589948 0)
(10.0811 0.0581229 0)
(10.0809 0.0571815 0)
(10.0786 0.0562549 0)
(10.0746 0.0554093 0)
(10.0692 0.0547543 0)
(10.0625 0.0544135 0)
(10.0547 0.0546519 0)
(10.046 0.0556533 0)
(10.0371 0.0586198 0)
(10.0277 0.06239 0)
(10.0194 0.0725748 0)
(9.99923 0.00672876 0)
(10.0081 0.0335874 0)
(10.0271 0.0460864 0)
(10.0417 0.0509159 0)
(10.0523 0.0540154 0)
(10.062 0.0556402 0)
(10.0705 0.0560321 0)
(10.077 0.0559072 0)
(10.0816 0.0556181 0)
(10.0848 0.0552664 0)
(10.0869 0.0549414 0)
(10.088 0.0547725 0)
(10.0881 0.0549056 0)
(10.0875 0.0555808 0)
(10.0863 0.0570143 0)
(10.0851 0.0599098 0)
(10.0841 0.0638085 0)
(10.0848 0.070798 0)
(10.0002 0.00906432 0)
(10.0078 0.0321433 0)
(10.0225 0.0419663 0)
(10.0349 0.0457545 0)
(10.0446 0.0492515 0)
(10.054 0.0518318 0)
(10.0627 0.0530253 0)
(10.07 0.053448 0)
(10.076 0.0535826 0)
(10.081 0.0536041 0)
(10.0852 0.0536202 0)
(10.0887 0.0537637 0)
(10.0915 0.054181 0)
(10.0937 0.0550727 0)
(10.0957 0.0566251 0)
(10.0979 0.0592167 0)
(10.1006 0.0626243 0)
(10.105 0.0674672 0)
(10.0004 0.00878965 0)
(10.0068 0.0275415 0)
(10.0189 0.0371502 0)
(10.0302 0.0418492 0)
(10.0393 0.045814 0)
(10.048 0.0486906 0)
(10.0563 0.0501647 0)
(10.0636 0.0508402 0)
(10.0699 0.0512108 0)
(10.0755 0.05146 0)
(10.0805 0.0516906 0)
(10.0849 0.052026 0)
(10.0888 0.0526 0)
(10.0924 0.0535689 0)
(10.0959 0.0550666 0)
(10.0997 0.0572686 0)
(10.1041 0.0600042 0)
(10.1099 0.0632751 0)
(10.0004 0.00782545 0)
(10.0057 0.0237235 0)
(10.016 0.0334495 0)
(10.0263 0.0387159 0)
(10.035 0.0426622 0)
(10.0431 0.0455156 0)
(10.0509 0.0471426 0)
(10.058 0.048015 0)
(10.0643 0.0485659 0)
(10.0701 0.0489797 0)
(10.0753 0.0493589 0)
(10.0801 0.0498162 0)
(10.0846 0.0504669 0)
(10.0888 0.0514251 0)
(10.0931 0.0527711 0)
(10.0977 0.0545556 0)
(10.1028 0.0566051 0)
(10.1091 0.0586998 0)
(10.0004 0.00693823 0)
(10.0049 0.0207413 0)
(10.0136 0.0301288 0)
(10.0229 0.0355503 0)
(10.0311 0.0393933 0)
(10.0387 0.0422209 0)
(10.0461 0.0439925 0)
(10.053 0.0450399 0)
(10.0592 0.0457357 0)
(10.065 0.0462715 0)
(10.0703 0.0467529 0)
(10.0753 0.0472799 0)
(10.08 0.0479472 0)
(10.0846 0.0488323 0)
(10.0893 0.0499709 0)
(10.0943 0.0513422 0)
(10.0997 0.0527709 0)
(10.1059 0.0540029 0)
(10.0004 0.00615013 0)
(10.0042 0.0181604 0)
(10.0116 0.0269043 0)
(10.0199 0.0323079 0)
(10.0276 0.0360821 0)
(10.0348 0.0388863 0)
(10.0418 0.0407588 0)
(10.0484 0.0419394 0)
(10.0545 0.0427456 0)
(10.0602 0.0433694 0)
(10.0656 0.0439163 0)
(10.0706 0.0444727 0)
(10.0755 0.0451127 0)
(10.0803 0.045885 0)
(10.0852 0.0467935 0)
(10.0903 0.0477831 0)
(10.0958 0.0486915 0)
(10.1017 0.0493035 0)
(10.0003 0.00541263 0)
(10.0036 0.0158417 0)
(10.0099 0.0238304 0)
(10.0172 0.0290979 0)
(10.0244 0.0327873 0)
(10.0312 0.0355314 0)
(10.0379 0.0374443 0)
(10.0443 0.0387122 0)
(10.0502 0.0395969 0)
(10.0558 0.0402794 0)
(10.0611 0.0408612 0)
(10.0662 0.0414157 0)
(10.0712 0.0419985 0)
(10.0761 0.0426374 0)
(10.081 0.043318 0)
(10.0861 0.043975 0)
(10.0915 0.0444707 0)
(10.0971 0.0446493 0)
(10.0003 0.00475852 0)
(10.0032 0.0139017 0)
(10.0085 0.0211687 0)
(10.0152 0.0262096 0)
(10.0218 0.0297775 0)
(10.0283 0.0324324 0)
(10.0346 0.0343365 0)
(10.0408 0.0356457 0)
(10.0466 0.0365743 0)
(10.0521 0.037286 0)
(10.0574 0.0378762 0)
(10.0625 0.0384074 0)
(10.0674 0.0389216 0)
(10.0723 0.0394336 0)
(10.0773 0.0399215 0)
(10.0823 0.0403235 0)
(10.0875 0.0405289 0)
(10.0928 0.0404341 0)
(10.0003 0.00415213 0)
(10.0028 0.0121365 0)
(10.0075 0.0186633 0)
(10.0134 0.0233864 0)
(10.0196 0.0267889 0)
(10.0257 0.0293293 0)
(10.0317 0.0311885 0)
(10.0376 0.032504 0)
(10.0433 0.0334495 0)
(10.0487 0.0341678 0)
(10.0539 0.034746 0)
(10.059 0.0352375 0)
(10.0639 0.0356738 0)
(10.0688 0.0360618 0)
(10.0737 0.0363785 0)
(10.0786 0.0365718 0)
(10.0835 0.0365577 0)
(10.0886 0.0362772 0)
(10.0003 0.00351991 0)
(10.0024 0.0103003 0)
(10.0064 0.0159802 0)
(10.0117 0.0202544 0)
(10.0174 0.0234036 0)
(10.0231 0.0257703 0)
(10.0288 0.0275319 0)
(10.0344 0.0288101 0)
(10.0399 0.0297401 0)
(10.0452 0.030439 0)
(10.0503 0.0309826 0)
(10.0553 0.0314155 0)
(10.0602 0.0317607 0)
(10.065 0.0320207 0)
(10.0698 0.0321758 0)
(10.0745 0.0321874 0)
(10.0792 0.0319984 0)
(10.0839 0.0315869 0)
(10.0002 0.00286106 0)
(10.002 0.00839128 0)
(10.0055 0.0131281 0)
(10.0101 0.0168179 0)
(10.0153 0.0196035 0)
(10.0206 0.0217176 0)
(10.0259 0.0233132 0)
(10.0313 0.0244941 0)
(10.0365 0.0253612 0)
(10.0417 0.0260038 0)
(10.0467 0.0264837 0)
(10.0515 0.0268365 0)
(10.0563 0.0270791 0)
(10.061 0.027213 0)
(10.0656 0.0272249 0)
(10.0702 0.0270912 0)
(10.0746 0.0267786 0)
(10.079 0.0262919 0)
(10.0002 0.00217559 0)
(10.0017 0.00640967 0)
(10.0047 0.0101103 0)
(10.0088 0.0130755 0)
(10.0134 0.0153676 0)
(10.0183 0.0171287 0)
(10.0233 0.0184727 0)
(10.0284 0.0194802 0)
(10.0334 0.0202224 0)
(10.0383 0.0207617 0)
(10.0432 0.0211433 0)
(10.0479 0.0213943 0)
(10.0526 0.0215274 0)
(10.0571 0.0215449 0)
(10.0615 0.0214407 0)
(10.0658 0.0212042 0)
(10.07 0.0208203 0)
(10.0741 0.0203093 0)
(10.0002 0.00146051 0)
(10.0015 0.00433858 0)
(10.0041 0.00690272 0)
(10.0077 0.00900065 0)
(10.0119 0.0106557 0)
(10.0164 0.011944 0)
(10.0211 0.0129353 0)
(10.0259 0.0136818 0)
(10.0307 0.0142274 0)
(10.0354 0.0146098 0)
(10.0401 0.0148574 0)
(10.0446 0.0149878 0)
(10.0491 0.0150098 0)
(10.0535 0.0149266 0)
(10.0577 0.0147373 0)
(10.0618 0.0144401 0)
(10.0657 0.0140305 0)
(10.0695 0.0135353 0)
(10.0001 0.000698399 0)
(10.0013 0.00212172 0)
(10.0037 0.00342399 0)
(10.0069 0.00450186 0)
(10.0108 0.00536558 0)
(10.0151 0.00604567 0)
(10.0195 0.00656952 0)
(10.0241 0.00695827 0)
(10.0287 0.00722975 0)
(10.0332 0.00739898 0)
(10.0377 0.00747693 0)
(10.0421 0.00747027 0)
(10.0464 0.00738249 0)
(10.0506 0.00721523 0)
(10.0546 0.00696935 0)
(10.0585 0.0066465 0)
(10.0622 0.00624668 0)
(10.0657 0.00579575 0)
(10.0001 -0.000157144 0)
(10.0013 -0.00037348 0)
(10.0035 -0.000517506 0)
(10.0067 -0.000636101 0)
(10.0105 -0.000720037 0)
(10.0146 -0.000777974 0)
(10.0189 -0.000827199 0)
(10.0234 -0.000880809 0)
(10.0278 -0.000947463 0)
(10.0323 -0.00103501 0)
(10.0367 -0.00115108 0)
(10.0409 -0.00130209 0)
(10.0451 -0.0014928 0)
(10.0491 -0.00172645 0)
(10.0529 -0.00200484 0)
(10.0566 -0.00232779 0)
(10.0602 -0.00269567 0)
(10.0635 -0.00308857 0)
(10.0001 -0.000979617 0)
(10.0014 -0.00277873 0)
(10.0038 -0.00432748 0)
(10.0071 -0.00559521 0)
(10.0111 -0.00657 0)
(10.0154 -0.00730904 0)
(10.0199 -0.00787773 0)
(10.0244 -0.00832068 0)
(10.0289 -0.00867237 0)
(10.0334 -0.00896522 0)
(10.0377 -0.00922644 0)
(10.042 -0.00947548 0)
(10.046 -0.00972567 0)
(10.05 -0.00998642 0)
(10.0537 -0.0102641 0)
(10.0574 -0.0105622 0)
(10.0608 -0.0108834 0)
(10.0641 -0.0112141 0)
(10.0002 -0.0016918 0)
(10.0015 -0.0048864 0)
(10.0042 -0.00766688 0)
(10.008 -0.00987349 0)
(10.0123 -0.011517 0)
(10.0169 -0.0127504 0)
(10.0216 -0.0136901 0)
(10.0263 -0.0143951 0)
(10.031 -0.0149195 0)
(10.0355 -0.0153224 0)
(10.0399 -0.0156513 0)
(10.0442 -0.0159369 0)
(10.0483 -0.0161995 0)
(10.0522 -0.0164533 0)
(10.0559 -0.0167084 0)
(10.0595 -0.0169706 0)
(10.0629 -0.0172442 0)
(10.0661 -0.0175197 0)
(10.0002 -0.00237188 0)
(10.0017 -0.00697881 0)
(10.0049 -0.0110181 0)
(10.0092 -0.0140676 0)
(10.0141 -0.0162173 0)
(10.0191 -0.0178017 0)
(10.0241 -0.0190003 0)
(10.0291 -0.0198767 0)
(10.0339 -0.020503 0)
(10.0386 -0.020962 0)
(10.0431 -0.0213154 0)
(10.0474 -0.0216016 0)
(10.0515 -0.0218473 0)
(10.0554 -0.0220718 0)
(10.0591 -0.0222886 0)
(10.0627 -0.0225052 0)
(10.0661 -0.0227269 0)
(10.0693 -0.0229471 0)
(10.0002 -0.00300565 0)
(10.0018 -0.00909098 0)
(10.0056 -0.0144136 0)
(10.0109 -0.0182169 0)
(10.0164 -0.0208005 0)
(10.0218 -0.022662 0)
(10.0271 -0.0239953 0)
(10.0324 -0.0249056 0)
(10.0374 -0.0255306 0)
(10.0423 -0.025982 0)
(10.0468 -0.0263198 0)
(10.0512 -0.0265796 0)
(10.0553 -0.02679 0)
(10.0593 -0.0269741 0)
(10.063 -0.0271467 0)
(10.0666 -0.0273162 0)
(10.0699 -0.0274877 0)
(10.0731 -0.0276567 0)
(10.0001 -0.00357998 0)
(10.0019 -0.0115247 0)
(10.0065 -0.0178792 0)
(10.0127 -0.0219737 0)
(10.019 -0.0249282 0)
(10.0249 -0.0272022 0)
(10.0306 -0.0287195 0)
(10.0361 -0.0296093 0)
(10.0414 -0.0301484 0)
(10.0463 -0.030515 0)
(10.051 -0.0307751 0)
(10.0554 -0.030961 0)
(10.0596 -0.0311023 0)
(10.0636 -0.0312225 0)
(10.0673 -0.0313355 0)
(10.0708 -0.0314481 0)
(10.0741 -0.0315637 0)
(10.0773 -0.0316772 0)
(9.99996 -0.00369851 0)
(10.0018 -0.0151713 0)
(10.0076 -0.0226128 0)
(10.0148 -0.0259184 0)
(10.0215 -0.0284599 0)
(10.0278 -0.0309019 0)
(10.0341 -0.0326615 0)
(10.0402 -0.0336831 0)
(10.0457 -0.0342678 0)
(10.0508 -0.0346244 0)
(10.0556 -0.0348365 0)
(10.0601 -0.034953 0)
(10.0642 -0.0350162 0)
(10.0681 -0.0350558 0)
(10.0717 -0.0350882 0)
(10.0751 -0.0351218 0)
(10.0782 -0.0351602 0)
(10.0811 -0.0351998 0)
(9.99897 -0.00131639 0)
(9.99999 -0.0179681 0)
(10.0085 -0.029041 0)
(10.0174 -0.0326465 0)
(10.0245 -0.0340537 0)
(10.0313 -0.0352644 0)
(10.0383 -0.0361967 0)
(10.045 -0.0368254 0)
(10.051 -0.0372632 0)
(10.0562 -0.0375503 0)
(10.0609 -0.0377014 0)
(10.0651 -0.0377526 0)
(10.0689 -0.0377452 0)
(10.0722 -0.0377088 0)
(10.0752 -0.0376616 0)
(10.0778 -0.0376149 0)
(10.0801 -0.0375724 0)
(10.0821 -0.0375324 0)
(9.99527 0.00386332 0)
(9.99333 -0.01031 0)
(10.007 -0.0270874 0)
(10.0212 -0.0388961 0)
(10.0311 -0.0448207 0)
(10.0392 -0.0464149 0)
(10.0467 -0.04592 0)
(10.0531 -0.0449525 0)
(10.0583 -0.0440675 0)
(10.0623 -0.043286 0)
(10.0655 -0.0425649 0)
(10.0678 -0.0419011 0)
(10.0695 -0.0413011 0)
(10.0704 -0.0407647 0)
(10.0709 -0.0402895 0)
(10.0709 -0.0398745 0)
(10.0706 -0.0395103 0)
(10.07 -0.0391696 0)
(9.99144 -0.0172973 0)
(9.99188 0.000367267 0)
(10.01 0.0176769 0)
(10.0296 0.011609 0)
(10.0442 -0.00507767 0)
(10.0542 -0.0187858 0)
(10.0601 -0.027126 0)
(10.0624 -0.0319975 0)
(10.0619 -0.0348739 0)
(10.0593 -0.0364747 0)
(10.0552 -0.0372476 0)
(10.0498 -0.0375177 0)
(10.0436 -0.0374979 0)
(10.0366 -0.0373179 0)
(10.029 -0.0370613 0)
(10.0212 -0.0367894 0)
(10.0131 -0.0365578 0)
(10.005 -0.0363352 0)
(10.0235 -0.206009 0)
(10.0684 -0.312336 0)
(10.0788 -0.255583 0)
(10.0704 -0.184162 0)
(10.0606 -0.134881 0)
(10.0499 -0.102702 0)
(10.0343 -0.0811378 0)
(10.013 -0.0665881 0)
(9.98796 -0.0565935 0)
(9.96077 -0.0494352 0)
(9.9326 -0.0440759 0)
(9.90415 -0.0399259 0)
(9.87591 -0.0366269 0)
(9.84821 -0.0339462 0)
(9.82129 -0.0317359 0)
(9.79526 -0.0299323 0)
(9.77038 -0.0285055 0)
(9.74665 -0.0277721 0)
(9.94226 0.671595 0)
(9.87996 0.567458 0)
(9.77446 0.338473 0)
(9.63243 0.183329 0)
(9.48774 0.0949162 0)
(9.35666 0.0470949 0)
(9.24115 0.0213122 0)
(9.13971 0.00709264 0)
(9.05082 -0.00096506 0)
(8.97289 -0.00560484 0)
(8.90419 -0.00829281 0)
(8.84317 -0.00985406 0)
(8.7886 -0.0107588 0)
(8.73948 -0.0112758 0)
(8.69498 -0.0115659 0)
(8.65441 -0.0117538 0)
(8.61691 -0.0119332 0)
(8.5821 -0.0124657 0)
(0.00470309 0.0136666 -3.50579e-20)
(0.0350009 -0.0299141 2.987e-20)
(0.0811192 -0.0678034 0)
(0.142179 -0.102907 0)
(0.217558 -0.127685 0)
(0.302503 -0.130052 -2.9632e-20)
(0.380491 -0.118083 0)
(0.447192 -0.104283 0)
(0.506448 -0.0897966 0)
(0.556293 -0.0746074 0)
(0.594674 -0.0588191 2.66118e-20)
(0.621247 -0.0424647 0)
(0.635917 -0.0155351 0)
(0.632297 0.021224 0)
(0.610053 0.0436447 0)
(0.576437 0.0546427 2.30208e-20)
(0.530542 0.0687864 0)
(0.473529 0.0823185 0)
(0.409924 0.084868 0)
(0.347461 0.0760314 0)
(0.2883 0.0604925 0)
(0.233252 0.0474856 0)
(0.185396 0.0343444 0)
(0.137753 0.031409 2.78234e-20)
(0.0866091 0.0366321 -2.80231e-20)
(0.0278985 0.0465077 2.82824e-20)
(-0.0402951 0.0576781 2.79187e-20)
(-0.121435 0.0711901 0)
(-0.216206 0.0870077 0)
(-0.324486 0.103635 -2.48484e-20)
(-0.444729 0.118881 -2.38743e-20)
(-0.574154 0.130807 0)
(-0.709259 0.138328 0)
(-0.8464 0.141213 -2.14673e-20)
(-0.982209 0.139849 0)
(-1.11385 0.134989 0)
(-1.23916 0.12754 1.99324e-20)
(-1.35661 0.118404 0)
(-1.46535 0.108385 1.92722e-20)
(-1.56502 0.0981317 3.80278e-20)
(-1.65567 0.0881281 0)
(-1.7377 0.0787015 0)
(-1.81166 0.0700474 0)
(-1.87823 0.0622586 0)
(-1.93817 0.0553529 0)
(-1.99219 0.0492985 3.58865e-20)
(-2.04099 0.0440331 3.55976e-20)
(-2.08524 0.0394789 3.53133e-20)
(-2.1255 0.0355526 0)
(-2.1623 0.0321723 -3.47477e-20)
(-2.19609 0.0292614 0)
(-2.22726 0.0267504 3.41735e-20)
(-2.25614 0.0245779 3.388e-20)
(-2.28303 0.0226905 0)
(-2.30816 0.0210422 0)
(-2.33174 0.0195935 0)
(-2.35394 0.0183112 3.26459e-20)
(-2.37489 0.017167 0)
(-2.39472 0.0161369 0)
(-2.41353 0.0152008 0)
(-2.43139 0.0143417 0)
(-2.44836 0.0135455 0)
(-2.4645 0.0128001 0)
(-2.47984 0.0120955 0)
(-2.49442 0.0114234 0)
(-2.50826 0.010777 -2.94095e-20)
(-2.52136 0.0101507 0)
(-2.53375 0.0095398 0)
(-2.54542 0.00894089 2.81666e-20)
(-2.55638 0.00835115 2.77329e-20)
(-2.56662 0.00776858 0)
(-2.57615 0.00719177 -2.68356e-20)
(-2.58495 0.00661985 2.6372e-20)
(-2.59303 0.00605238 0)
(-2.60037 0.00548917 -2.54153e-20)
(-2.60698 0.0049301 0)
(-2.61285 0.0043753 0)
(-2.61797 0.00382534 2.39074e-20)
(-2.62234 0.00327663 0)
(-2.62596 0.00271993 -2.2856e-20)
(-2.6288 0.00215405 0)
(-2.63083 0.00158391 2.17711e-20)
(-2.63201 0.00104773 2.12159e-20)
(-2.6325 0.000598601 2.06538e-20)
(-2.63235 0.000215015 4.01706e-20)
(-2.63161 -0.000123952 -3.90217e-20)
(-2.63032 -0.000426401 0)
(-2.62852 -0.000694153 0)
(-2.62627 -0.000928041 0)
(-2.62359 -0.00112966 -3.43334e-20)
(-2.62054 -0.00129977 -3.31455e-20)
(-2.61715 -0.00143824 3.19544e-20)
(-2.61349 -0.00154559 0)
(-2.60958 -0.00162308 -2.95695e-20)
(-2.60549 -0.00167248 -2.83789e-20)
(-2.60124 -0.00169618 -2.71919e-20)
(-2.5969 -0.00169718 0)
(-2.59249 -0.00167914 0)
(-2.58806 -0.00164647 0)
(-2.58363 -0.00160437 -2.25092e-20)
(-2.57922 -0.00155888 0)
(-2.57487 -0.00151597 0)
(-2.57056 -0.00147922 1.91015e-20)
(-2.56632 -0.00144722 0)
(-2.56214 -0.00141532 0)
(-2.55804 -0.00138342 1.58064e-20)
(-2.55401 -0.00136129 0)
(-2.55003 -0.00136352 0)
(-2.54606 -0.00140118 -1.26228e-20)
(-2.54207 -0.00148105 -1.15829e-20)
(-2.53797 -0.00160972 0)
(-2.53369 -0.00179455 9.52504e-21)
(-2.52913 -0.00204272 0)
(-2.52418 -0.00236126 -7.48027e-21)
(-2.51871 -0.00275737 0)
(-2.51257 -0.0032383 -5.42243e-21)
(-2.50562 -0.00381143 -4.37836e-21)
(-2.49766 -0.0044842 0)
(-2.4885 -0.00526419 0)
(-2.47792 -0.00615902 0)
(-2.46569 -0.00717635 0)
(-2.45157 -0.00832385 0)
(-2.43527 -0.00960919 0)
(-2.4165 -0.01104 0)
(-2.39495 -0.0126238 5.10097e-21)
(-2.37029 -0.0143683 -6.53784e-21)
(-2.34217 -0.0162812 0)
(-2.31021 -0.0183702 0)
(-2.27404 -0.0206434 0)
(-2.23323 -0.0231087 0)
(-2.18736 -0.0257741 -3.04507e-20)
(-2.13599 -0.0286468 0)
(-2.07864 -0.0317337 3.92368e-20)
(-2.01486 -0.0350412 -4.41245e-20)
(-1.94415 -0.0385752 0)
(-1.86602 -0.0423408 0)
(-1.77996 -0.0463408 0)
(-1.68548 -0.0505757 6.76057e-20)
(-1.58208 -0.0550444 7.45961e-20)
(-1.46929 -0.0597419 0)
(-1.34666 -0.0646573 9.01074e-20)
(-1.21376 -0.0697739 9.86765e-20)
(-1.07023 -0.0750638 -1.07817e-19)
(-0.915773 -0.0804868 0)
(-0.750218 -0.0859706 0)
(-0.573538 -0.0913557 -1.38823e-19)
(-0.385828 -0.0963441 0)
(-0.187441 -0.100567 0)
(0.0212058 -0.103506 0)
(0.240057 -0.105332 0)
(0.468111 -0.106455 1.77288e-19)
(0.704332 -0.106944 1.79043e-19)
(0.947393 -0.106762 0)
(1.19576 -0.105869 1.80518e-19)
(1.44768 -0.104241 0)
(1.70122 -0.101866 0)
(1.95428 -0.0987534 1.77958e-19)
(2.20468 -0.0949276 0)
(2.45018 -0.0904324 1.73629e-19)
(2.68856 -0.0853266 0)
(2.91765 -0.0796822 0)
(3.13541 -0.0735805 1.64674e-19)
(3.33996 -0.0671092 0)
(3.5296 -0.0603589 1.58057e-19)
(3.70285 -0.053416 0)
(3.85846 -0.0463484 0)
(3.99537 -0.0392179 0)
(4.11273 -0.0321962 -1.46142e-19)
(4.21014 -0.025532 0)
(4.28762 -0.0183409 1.41882e-19)
(4.34222 -0.0076077 0)
(4.36067 0.00577243 0)
(4.34186 0.0181152 0)
(4.29265 0.0276788 0)
(4.21792 0.0347267 0)
(4.11979 0.0403337 0)
(3.99918 0.0460664 0)
(3.84595 0.0532471 -2.88534e-19)
(3.67157 0.0691213 0)
(3.34587 0.0819261 0)
(0.0428457 -0.0822495 1.04264e-19)
(0.109492 -0.149975 -8.90675e-20)
(0.182292 -0.185323 0)
(0.251296 -0.206662 4.88795e-20)
(0.310968 -0.21714 0)
(0.360933 -0.213894 2.22664e-20)
(0.403428 -0.197452 -4.3574e-20)
(0.439963 -0.172856 -4.27006e-20)
(0.470162 -0.144203 0)
(0.493156 -0.113258 -4.18615e-20)
(0.508382 -0.0807688 -2.07641e-20)
(0.515472 -0.0469977 0)
(0.514772 -0.0117268 0)
(0.50935 0.0247259 0)
(0.498941 0.0609459 0)
(0.479326 0.0953884 -2.08434e-20)
(0.448891 0.126126 0)
(0.408573 0.148889 4.25649e-20)
(0.358179 0.162495 0)
(0.297678 0.166376 0)
(0.226973 0.16479 -4.28325e-20)
(0.148035 0.159335 0)
(0.0606501 0.158386 4.32228e-20)
(-0.0345061 0.165649 -2.13945e-20)
(-0.136855 0.182114 2.05613e-20)
(-0.247646 0.205947 -1.9699e-20)
(-0.367488 0.234327 -1.89072e-20)
(-0.495747 0.264283 0)
(-0.630121 0.29242 0)
(-0.767352 0.315528 1.68175e-20)
(-0.90384 0.331155 -1.60535e-20)
(-1.03623 0.338089 0)
(-1.16181 0.336391 0)
(-1.27868 0.32709 1.48686e-20)
(-1.38577 0.311765 0)
(-1.48275 0.292182 0)
(-1.56983 0.270028 -1.40432e-20)
(-1.64764 0.246762 0)
(-1.71704 0.223536 1.36673e-20)
(-1.77896 0.201194 -2.70465e-20)
(-1.83434 0.180296 0)
(-1.88406 0.161164 0)
(-1.9289 0.143937 -5.24531e-20)
(-1.96955 0.128622 -5.19751e-20)
(-2.00659 0.115137 -5.15148e-20)
(-2.04051 0.103343 2.54714e-20)
(-2.07172 0.093076 -2.53807e-20)
(-2.10056 0.0841609 -7.53659e-20)
(-2.12733 0.0764267 4.97714e-20)
(-2.15225 0.0697129 2.47408e-20)
(-2.17554 0.0638735 0)
(-2.19736 0.058779 -2.43113e-20)
(-2.21786 0.0543155 2.39646e-20)
(-2.23717 0.0503847 0)
(-2.25538 0.046902 0)
(-2.27258 0.0437951 0)
(-2.28884 0.0410022 -2.31904e-20)
(-2.30423 0.0384709 0)
(-2.31879 0.0361568 4.53279e-20)
(-2.33256 0.0340222 0)
(-2.34557 0.0320352 4.43452e-20)
(-2.35785 0.030169 0)
(-2.36942 0.028401 -4.33173e-20)
(-2.38028 0.0267122 0)
(-2.39045 0.025087 4.22404e-20)
(-2.39993 0.0235123 -2.08114e-20)
(-2.40872 0.0219778 0)
(-2.41681 0.0204749 -4.05259e-20)
(-2.42422 0.0189971 -1.99843e-20)
(-2.43093 0.0175396 -1.96747e-20)
(-2.43693 0.016099 0)
(-2.44223 0.0146732 -1.90095e-20)
(-2.44682 0.0132611 -1.87026e-20)
(-2.45069 0.0118629 0)
(-2.45384 0.0104791 1.80185e-20)
(-2.45627 0.00911127 -3.53295e-20)
(-2.45798 0.00776127 0)
(-2.45898 0.00643082 -1.69396e-20)
(-2.45928 0.0051238 0)
(-2.4589 0.0038465 4.85732e-20)
(-2.45786 0.002589 0)
(-2.45624 0.0013581 -4.62457e-20)
(-2.4541 0.00018545 -1.50104e-20)
(-2.45135 -0.000892164 1.46409e-20)
(-2.448 -0.00187824 2.84783e-20)
(-2.44408 -0.0027822 -2.76667e-20)
(-2.4396 -0.00360801 0)
(-2.4346 -0.00435649 0)
(-2.42912 -0.00502694 0)
(-2.4232 -0.00561859 7.28911e-20)
(-2.41688 -0.00613096 2.3427e-20)
(-2.41021 -0.00656391 -2.25861e-20)
(-2.40325 -0.00691796 0)
(-2.39603 -0.00719466 -2.10008e-20)
(-2.38861 -0.00739662 2.00678e-20)
(-2.38103 -0.00752768 1.92335e-20)
(-2.37336 -0.00759289 0)
(-2.36563 -0.00759865 0)
(-2.35788 -0.00755268 0)
(-2.35016 -0.00746381 1.59483e-20)
(-2.34251 -0.00734156 0)
(-2.33496 -0.00719527 -2.87767e-20)
(-2.32753 -0.00703322 -4.07593e-20)
(-2.32025 -0.00686189 2.56392e-20)
(-2.31313 -0.00668646 0)
(-2.30616 -0.00651414 1.13237e-20)
(-2.29935 -0.00635848 0)
(-2.29268 -0.00623938 1.9574e-20)
(-2.28611 -0.00617816 -9.08789e-21)
(-2.27961 -0.00619374 -8.358e-21)
(-2.2731 -0.00630339 0)
(-2.26652 -0.00652409 -2.05577e-20)
(-2.25979 -0.0068727 1.22944e-20)
(-2.25278 -0.00736596 5.36964e-21)
(-2.24539 -0.00802059 0)
(-2.23746 -0.00885334 3.90163e-21)
(-2.22885 -0.00988096 9.62083e-21)
(-2.21937 -0.0111202 0)
(-2.20883 -0.0125876 3.4301e-21)
(-2.19702 -0.0143 1.85436e-21)
(-2.18371 -0.0162736 2.28264e-22)
(-2.16863 -0.0185245 0)
(-2.15151 -0.0210684 0)
(-2.13207 -0.0239203 0)
(-2.10998 -0.0270949 3.28909e-21)
(-2.08491 -0.0306056 4.74653e-21)
(-2.0565 -0.0344655 0)
(-2.02439 -0.0386869 1.34945e-20)
(-1.98817 -0.0432816 1.59422e-20)
(-1.94743 -0.0482606 0)
(-1.90174 -0.0536335 2.21053e-20)
(-1.85065 -0.0594076 4.86679e-20)
(-1.7937 -0.0655879 -2.84407e-20)
(-1.7304 -0.0721766 -2.99682e-20)
(-1.66029 -0.079174 0)
(-1.58285 -0.0865775 0)
(-1.49759 -0.0943788 0)
(-1.40402 -0.102563 -4.8585e-20)
(-1.30165 -0.11111 5.05452e-20)
(-1.19001 -0.119993 1.14184e-19)
(-1.06866 -0.129173 -6.41707e-20)
(-0.937185 -0.138602 6.644e-20)
(-0.79524 -0.148217 7.61815e-20)
(-0.642533 -0.157943 0)
(-0.47887 -0.167686 0)
(-0.30416 -0.177318 -9.22458e-20)
(-0.118416 -0.186659 0)
(0.0783393 -0.195472 0)
(0.285925 -0.203346 2.22529e-19)
(0.503578 -0.210097 0)
(0.730521 -0.215702 1.16007e-19)
(0.965849 -0.220065 -1.23677e-19)
(1.20834 -0.22303 0)
(1.45654 -0.224446 1.23943e-19)
(1.70876 -0.22419 0)
(1.96314 -0.222171 0)
(2.21767 -0.218345 -1.31966e-19)
(2.47024 -0.212714 2.61085e-19)
(2.7187 -0.205326 -1.32306e-19)
(2.96091 -0.196278 0)
(3.1948 -0.185703 0)
(3.41839 -0.173768 1.27872e-19)
(3.62989 -0.160665 0)
(3.8277 -0.1466 1.26133e-19)
(4.0104 -0.13178 0)
(4.17684 -0.116406 0)
(4.32609 -0.10067 0)
(4.45746 -0.0847905 1.23445e-19)
(4.57035 -0.0689143 0)
(4.66395 -0.0524072 -1.21919e-19)
(4.73905 -0.0334632 0)
(4.80449 -0.0128567 0)
(4.85996 0.00698322 2.41807e-19)
(4.89896 0.0249576 -2.41667e-19)
(4.91805 0.0413141 0)
(4.91533 0.0570301 0)
(4.891 0.0740895 0)
(4.8394 0.0941756 7.45295e-19)
(4.77304 0.128533 0)
(4.64023 0.167974 -5.1213e-19)
(0.0499076 -0.263804 3.96881e-22)
(0.116025 -0.348385 1.119e-19)
(0.181257 -0.357688 0)
(0.237374 -0.346059 -8.94405e-20)
(0.281561 -0.324149 0)
(0.31522 -0.294636 0)
(0.34083 -0.259311 -2.51294e-22)
(0.360067 -0.220042 3.69885e-20)
(0.373486 -0.178139 3.65911e-20)
(0.381085 -0.134344 3.60516e-20)
(0.382708 -0.0890489 0)
(0.378195 -0.042456 0)
(0.367544 0.00541599 -3.64608e-20)
(0.351043 0.0542603 -7.31081e-20)
(0.328714 0.103142 7.34883e-20)
(0.300126 0.151011 0)
(0.264845 0.196311 7.4629e-20)
(0.222211 0.236298 -3.74505e-20)
(0.170888 0.268333 0)
(0.109456 0.291365 7.54864e-20)
(0.036723 0.307225 3.76845e-20)
(-0.0477814 0.32018 -7.37882e-20)
(-0.143765 0.335675 -3.52754e-20)
(-0.249636 0.357405 0)
(-0.363388 0.386158 6.43345e-20)
(-0.482844 0.419885 6.1591e-20)
(-0.605433 0.454798 0)
(-0.728131 0.486508 5.68767e-20)
(-0.847748 0.510963 0)
(-0.96146 0.525263 5.30323e-20)
(-1.06726 0.528069 2.55287e-20)
(-1.16414 0.5196 0)
(-1.25196 0.501302 0)
(-1.33121 0.475336 0)
(-1.40276 0.444099 0)
(-1.46758 0.40987 0)
(-1.52664 0.374594 0)
(-1.58076 0.339793 4.37854e-20)
(-1.63063 0.306554 -6.45297e-20)
(-1.67681 0.27558 0)
(-1.71971 0.247254 0)
(-1.75966 0.221721 0)
(-1.79692 0.198955 1.35641e-23)
(-1.83171 0.178816 4.02643e-20)
(-1.86421 0.161101 7.95787e-20)
(-1.89459 0.145573 -7.87055e-20)
(-1.92301 0.131989 -3.88942e-20)
(-1.94961 0.120109 3.85662e-20)
(-1.97453 0.109713 -8.56195e-23)
(-1.99788 0.100596 3.76955e-20)
(-2.01979 0.0925782 0)
(-2.04038 0.0855005 3.69335e-20)
(-2.05972 0.0792232 -8.40908e-23)
(-2.07793 0.0736257 0)
(-2.09506 0.0686034 0)
(-2.1112 0.0640665 -3.54302e-20)
(-2.12641 0.0599377 0)
(-2.14073 0.0561507 0)
(-2.1542 0.0526488 3.42166e-20)
(-2.16688 0.0493836 6.77742e-20)
(-2.17877 0.0463138 -3.35433e-20)
(-2.18991 0.0434043 0)
(-2.20031 0.0406255 3.27161e-20)
(-2.20999 0.0379528 0)
(-2.21894 0.0353653 3.17812e-20)
(-2.22719 0.0328463 3.14153e-20)
(-2.23472 0.030382 -6.18685e-20)
(-2.24154 0.0279616 -3.04523e-20)
(-2.24764 0.025577 0)
(-2.25302 0.0232224 5.90701e-20)
(-2.25767 0.0208938 0)
(-2.2616 0.0185896 8.56646e-20)
(-2.26479 0.0163095 5.60897e-20)
(-2.26723 0.014055 5.5055e-20)
(-2.26894 0.0118286 -5.39996e-20)
(-2.2699 0.00963484 7.93793e-20)
(-2.27012 0.00747896 0)
(-2.2696 0.00536586 0)
(-2.26835 0.0033021 -4.95678e-20)
(-2.26638 0.0013017 -7.25936e-20)
(-2.26372 -0.000628445 0)
(-2.26038 -0.00247669 2.29989e-20)
(-2.25638 -0.00423149 0)
(-2.25172 -0.0058911 -6.54242e-20)
(-2.24643 -0.00744634 6.32772e-23)
(-2.24053 -0.00888973 -6.67303e-23)
(-2.23405 -0.0102161 3.99391e-20)
(-2.22702 -0.0114208 0)
(-2.21949 -0.0124998 -3.74368e-20)
(-2.21149 -0.01345 7.55318e-23)
(-2.20307 -0.0142692 0)
(-2.19427 -0.0149565 0)
(-2.18515 -0.0155123 0)
(-2.17576 -0.0159384 3.10659e-20)
(-2.16615 -0.0162386 0)
(-2.15638 -0.0164184 0)
(-2.14648 -0.0164851 0)
(-2.13652 -0.016448 0)
(-2.12654 -0.0163182 0)
(-2.11659 -0.0161081 2.37508e-20)
(-2.1067 -0.0158317 0)
(-2.09693 -0.0155031 2.13075e-20)
(-2.0873 -0.0151364 2.01408e-20)
(-2.07784 -0.0147454 -1.89881e-20)
(-2.06856 -0.0143442 0)
(-2.05948 -0.0139506 -1.67237e-20)
(-2.05058 -0.0135876 0)
(-2.04185 -0.0132832 -1.4511e-20)
(-2.03327 -0.0130671 1.34217e-20)
(-2.0248 -0.0129683 3.71761e-20)
(-2.0164 -0.013015 0)
(-2.00798 -0.0132353 3.0779e-20)
(-1.99948 -0.0136571 9.32662e-21)
(-1.99079 -0.0143083 0)
(-1.9818 -0.0152166 1.42257e-20)
(-1.97238 -0.0164099 1.20883e-20)
(-1.96238 -0.0179159 -1.47435e-20)
(-1.95162 -0.0197621 0)
(-1.93993 -0.021976 -2.55878e-21)
(-1.9271 -0.0245846 -1.38428e-21)
(-1.91289 -0.0276146 -9.70417e-22)
(-1.89707 -0.031092 0)
(-1.87937 -0.035042 0)
(-1.8595 -0.0394891 0)
(-1.83714 -0.044456 4.52883e-21)
(-1.81198 -0.0499644 0)
(-1.78367 -0.0560342 0)
(-1.75183 -0.0626838 -1.01248e-20)
(-1.71608 -0.0699304 -1.19668e-20)
(-1.67601 -0.0777895 0)
(-1.6312 -0.086274 0)
(-1.5812 -0.0953929 -3.6568e-20)
(-1.52555 -0.105151 0)
(-1.4638 -0.115547 4.65338e-20)
(-1.39545 -0.126576 5.031e-20)
(-1.32001 -0.13823 0)
(-1.237 -0.150489 0)
(-1.14593 -0.163323 -6.87825e-20)
(-1.0463 -0.176692 -2.30447e-21)
(-0.937665 -0.190546 -2.45694e-21)
(-0.819569 -0.204815 0)
(-0.691607 -0.219413 -2.01661e-19)
(-0.553422 -0.234233 0)
(-0.404712 -0.249147 0)
(-0.245265 -0.263996 0)
(-0.0749419 -0.278612 1.40409e-19)
(0.10633 -0.292809 0)
(0.29855 -0.30637 -3.05261e-19)
(0.501374 -0.319026 -1.6324e-19)
(0.714194 -0.330457 0)
(0.936258 -0.340316 -1.76431e-19)
(1.16663 -0.348307 0)
(1.40413 -0.354145 0)
(1.64732 -0.357567 -5.71576e-19)
(1.89458 -0.358356 3.87694e-19)
(2.1441 -0.356349 0)
(2.39391 -0.351454 4.01887e-19)
(2.64198 -0.343652 -2.06387e-19)
(2.8862 -0.333002 0)
(3.12449 -0.319638 0)
(3.35483 -0.303761 0)
(3.57531 -0.285626 -6.29421e-19)
(3.7842 -0.26553 0)
(3.97994 -0.243798 -2.11325e-19)
(4.16119 -0.220766 0)
(4.32687 -0.196764 0)
(4.47612 -0.172116 0)
(4.60832 -0.147118 0)
(4.72302 -0.121931 0)
(4.81994 -0.0964825 0)
(4.89967 -0.0708302 -4.22288e-19)
(4.96455 -0.0449894 0)
(5.01622 -0.0191387 -2.14802e-19)
(5.05444 0.0062338 6.4688e-19)
(5.07821 0.0309937 0)
(5.08641 0.0556473 0)
(5.07889 0.0819908 -4.43375e-19)
(5.05285 0.112083 -4.51484e-19)
(5.01522 0.155709 4.56766e-19)
(4.95238 0.213205 4.67577e-19)
(0.0430618 -0.414161 -1.92209e-19)
(0.0948788 -0.478549 -1.59997e-19)
(0.138295 -0.459888 -9.33898e-20)
(0.174506 -0.425689 -4.24562e-20)
(0.202754 -0.385179 0)
(0.223719 -0.34038 7.37662e-20)
(0.238438 -0.292157 -3.55861e-20)
(0.247609 -0.241196 0)
(0.251528 -0.18803 -3.35669e-20)
(0.250235 -0.133034 0)
(0.243648 -0.0764836 6.65426e-20)
(0.231633 -0.0186112 0)
(0.21407 0.0403363 3.33154e-20)
(0.190863 0.100005 6.68241e-20)
(0.161876 0.159833 -6.72912e-20)
(0.126952 0.218978 0)
(0.0858261 0.276128 -6.85914e-20)
(0.0379849 0.329383 0)
(-0.0174821 0.376867 0)
(-0.0817477 0.417709 -6.73014e-20)
(-0.155794 0.452963 0)
(-0.239906 0.485296 -2.68256e-22)
(-0.333257 0.517804 0)
(-0.433819 0.552294 0)
(-0.538746 0.588354 3.26409e-22)
(-0.64477 0.623452 -5.22605e-20)
(-0.74864 0.653857 -5.05902e-20)
(-0.847525 0.675829 -4.82897e-20)
(-0.939372 0.686616 0)
(-1.0231 0.685013 -9.05777e-20)
(-1.09858 0.671389 0)
(-1.16642 0.647337 -4.28794e-20)
(-1.22764 0.615153 0)
(-1.28339 0.57735 0)
(-1.33473 0.536294 3.96539e-20)
(-1.38254 0.494004 0)
(-1.42749 0.452069 -3.79411e-20)
(-1.47004 0.41165 2.52914e-22)
(-1.51046 0.373529 7.2823e-20)
(-1.54893 0.338177 -7.1778e-20)
(-1.58553 0.305819 0)
(-1.62033 0.276505 0)
(-1.65335 0.250157 -3.43518e-20)
(-1.68462 0.226613 0)
(-1.71418 0.205666 -3.33699e-20)
(-1.74207 0.187082 3.2972e-20)
(-1.76836 0.17062 3.25898e-20)
(-1.79312 0.156047 0)
(-1.81641 0.143137 -3.18616e-20)
(-1.83832 0.131683 -3.15111e-20)
(-1.85892 0.121499 6.22805e-20)
(-1.87829 0.112413 -3.08279e-20)
(-1.8965 0.104275 -3.04921e-20)
(-1.91362 0.0969505 0)
(-1.92971 0.0903219 0)
(-1.94484 0.0842859 2.94931e-20)
(-1.95904 0.0787524 0)
(-1.97237 0.0736429 0)
(-1.98486 0.0688892 -5.69702e-20)
(-1.99654 0.0644327 -5.62865e-20)
(-2.00743 0.0602225 0)
(-2.01756 0.0562156 0)
(-2.02694 0.0523749 0)
(-2.03557 0.0486695 0)
(-2.04347 0.0450734 -5.27217e-20)
(-2.05064 0.0415651 5.19622e-20)