/*--------------------------------*- C++ -*----------------------------------*\
  =========                 |
  \\      /  F ield         | OpenFOAM: The Open Source CFD Toolbox
   \\    /   O peration     | Website:  https://openfoam.org
    \\  /    A nd           | Version:  12
     \\/     M anipulation  |
\*---------------------------------------------------------------------------*/
FoamFile
{
    format      ascii;
    class       volScalarField;
    location    "8.5";
    object      p;
}
// * * * * * * * * * * * * * * * * * * * * * * * * * * * * * * * * * * * * * //

dimensions      [0 2 -2 0 0 0 0];

internalField   nonuniform List<scalar> 
400
(
2.15537e-08
-0.00013685
-0.000291028
-0.000187206
-0.00104978
-0.0029622
-0.00518502
-0.00719818
-0.00880942
-0.00990068
-0.010424
-0.0103331
-0.00960644
-0.00809054
-0.00567982
-0.00232363
0.00187431
0.00635746
0.00961583
0.0109479
1.0368e-05
-9.91727e-05
-0.000267281
-0.000920676
-0.00229474
-0.0042679
-0.00628706
-0.0081881
-0.00967755
-0.010695
-0.0111851
-0.0111389
-0.0105077
-0.00922059
-0.00717516
-0.00430299
-0.000588411
0.00367391
0.00736838
0.00947712
0.000374532
-0.000125728
-0.000976073
-0.00239771
-0.00433218
-0.00636684
-0.00832687
-0.0100552
-0.0113091
-0.0121098
-0.0124402
-0.0122974
-0.0116617
-0.01054
-0.00889562
-0.00668546
-0.00378482
-0.000172709
0.00343961
0.00590709
0.000232805
-0.000635796
-0.0022168
-0.00436067
-0.00663624
-0.0087037
-0.0104121
-0.0116925
-0.0126096
-0.0131728
-0.0133716
-0.0132044
-0.0126511
-0.0117087
-0.0103784
-0.00867
-0.00653291
-0.00373998
-0.000667951
0.00163844
-0.000726174
-0.00187684
-0.00397963
-0.00647205
-0.00875007
-0.010588
-0.0119752
-0.012971
-0.0136668
-0.0140848
-0.0142229
-0.0140647
-0.0135875
-0.0127953
-0.0116982
-0.0103196
-0.00874139
-0.00667183
-0.00441224
-0.00234239
-0.00248573
-0.00372661
-0.00595869
-0.00840331
-0.0104617
-0.0120058
-0.0131263
-0.0139324
-0.0144866
-0.0148145
-0.0149192
-0.0147875
-0.0143937
-0.013737
-0.0128438
-0.0117025
-0.0105028
-0.0089794
-0.00737755
-0.00567284
-0.00452791
-0.00571379
-0.00779069
-0.0100138
-0.0117887
-0.0130596
-0.0139857
-0.014651
-0.0150998
-0.0153669
-0.0154583
-0.0153568
-0.0150423
-0.0144949
-0.013765
-0.0128109
-0.0118812
-0.0107279
-0.00962745
-0.00825457
-0.00637311
-0.00743233
-0.00927014
-0.0112488
-0.0127621
-0.013816
-0.0146023
-0.015157
-0.0155192
-0.0157341
-0.0158143
-0.0157369
-0.0154949
-0.0150421
-0.0144486
-0.0136261
-0.0129123
-0.0119686
-0.011218
-0.0101331
-0.0077199
-0.00866487
-0.0103067
-0.0120912
-0.0134113
-0.014319
-0.0150009
-0.0154651
-0.0157596
-0.0159275
-0.015992
-0.015932
-0.0157477
-0.0153647
-0.0148861
-0.0141333
-0.0136118
-0.0127344
-0.0122947
-0.0113786
-0.00848808
-0.00933609
-0.0108583
-0.0125304
-0.01374
-0.0145733
-0.0151918
-0.0155974
-0.0158522
-0.0159898
-0.0160476
-0.0159911
-0.0158355
-0.0154802
-0.0150811
-0.0143352
-0.0140037
-0.0130492
-0.0129205
-0.0120723
-0.00864432
-0.00944524
-0.0109064
-0.0125537
-0.0137631
-0.014599
-0.0151987
-0.0155803
-0.0158166
-0.0159368
-0.0159791
-0.0159182
-0.0157603
-0.015416
-0.0150348
-0.0142737
-0.014099
-0.0129499
-0.0131788
-0.0122263
-0.0082021
-0.00901888
-0.0104754
-0.0121856
-0.0134808
-0.014395
-0.0150284
-0.0154246
-0.0156654
-0.0157819
-0.0158106
-0.015733
-0.0155504
-0.0152037
-0.0147683
-0.0140478
-0.0138057
-0.0125357
-0.0130422
-0.0118451
-0.00727381
-0.00815169
-0.00965051
-0.0114484
-0.012906
-0.0139653
-0.0146902
-0.0151411
-0.0154133
-0.0155399
-0.0155598
-0.0154574
-0.0152331
-0.0148521
-0.0143407
-0.0136251
-0.013173
-0.0118543
-0.0124661
-0.0108902
-0.00615038
-0.00706859
-0.00856192
-0.0103328
-0.0120064
-0.0132677
-0.0141509
-0.014713
-0.0150543
-0.0152111
-0.0152263
-0.0151023
-0.0148323
-0.014389
-0.0137811
-0.0129832
-0.0122309
-0.0108787
-0.0113975
-0.00936203
-0.00510213
-0.00596318
-0.00732401
-0.00892732
-0.0106818
-0.0121963
-0.0133503
-0.014113
-0.0145806
-0.0148042
-0.0148354
-0.0146848
-0.0143525
-0.0138098
-0.0130549
-0.0120749
-0.0109811
-0.00954837
-0.00984835
-0.00727712
-0.00464666
-0.00509768
-0.00597904
-0.00724893
-0.00891264
-0.0106518
-0.0121355
-0.0132249
-0.0139229
-0.0142713
-0.0143399
-0.0141607
-0.0137463
-0.0130661
-0.0121084
-0.0108657
-0.00943271
-0.00785281
-0.00781807
-0.00465146
-0.00474118
-0.00461748
-0.00461477
-0.00534099
-0.00680286
-0.00864211
-0.0104337
-0.0118661
-0.0128692
-0.0134404
-0.0136321
-0.0134716
-0.0129707
-0.012128
-0.010934
-0.00938869
-0.00761845
-0.00584435
-0.00534863
-0.00134879
-0.00464191
-0.00399832
-0.00314961
-0.00333319
-0.00458798
-0.00645546
-0.00844339
-0.0101462
-0.0114321
-0.0122484
-0.0125974
-0.0124948
-0.0119713
-0.0110157
-0.00963265
-0.0078349
-0.00577979
-0.00363215
-0.00203805
0.0040855
-0.00398379
-0.00303567
-0.00178767
-0.00173452
-0.00284636
-0.00470615
-0.00680599
-0.0087459
-0.0102741
-0.0113141
-0.0118182
-0.0118092
-0.0112869
-0.010279
-0.00878255
-0.00679184
-0.00429808
-0.00105486
0.00429421
0.0172126
-0.00526747
-0.00205745
-0.00061916
-0.000705159
-0.00173489
-0.00355072
-0.00570043
-0.00782944
-0.00956274
-0.0107726
-0.0114039
-0.0114692
-0.0109995
-0.0100257
-0.00855334
-0.00639168
-0.00265931
0.00454163
0.0188656
0.0420382
)
;

boundaryField
{
    movingWall
    {
        type            zeroGradient;
    }
    fixedWalls
    {
        type            zeroGradient;
    }
    frontAndBack
    {
        type            empty;
    }
}


// ************************************************************************* //
