/*--------------------------------*- C++ -*----------------------------------*\
  =========                 |
  \\      /  F ield         | OpenFOAM: The Open Source CFD Toolbox
   \\    /   O peration     | Website:  https://openfoam.org
    \\  /    A nd           | Version:  12
     \\/     M anipulation  |
\*---------------------------------------------------------------------------*/
FoamFile
{
    format      ascii;
    class       surfaceScalarField;
    location    "8.5";
    object      phi;
}
// * * * * * * * * * * * * * * * * * * * * * * * * * * * * * * * * * * * * * //

dimensions      [0 3 -1 0 0 0 0];

internalField   nonuniform List<scalar> 
760
(
3.29741e-07
-3.29743e-07
1.87191e-07
1.4255e-07
-6.35005e-07
8.22197e-07
-2.2836e-06
1.6486e-06
-4.09305e-06
1.80945e-06
-5.58763e-06
1.49458e-06
-6.84287e-06
1.25524e-06
-7.72822e-06
8.85346e-07
-8.42269e-06
6.94467e-07
-8.85109e-06
4.284e-07
-9.13235e-06
2.81262e-07
-9.18161e-06
4.92629e-08
-9.08039e-06
-1.0122e-07
-8.76723e-06
-3.13166e-07
-8.24141e-06
-5.25813e-07
-7.3548e-06
-8.86619e-07
-6.02237e-06
-1.33243e-06
-4.07558e-06
-1.94678e-06
-1.69975e-06
-2.37584e-06
-1.69975e-06
-3.29047e-07
-6.96727e-10
-1.40242e-06
1.21592e-06
-3.14943e-06
2.56921e-06
-4.78064e-06
3.2798e-06
-5.94411e-06
2.97292e-06
-7.01559e-06
2.56607e-06
-7.77106e-06
2.01071e-06
-8.42714e-06
1.54143e-06
-8.83417e-06
1.10149e-06
-9.09627e-06
6.90502e-07
-9.14842e-06
3.33411e-07
-9.06313e-06
-3.60218e-08
-8.84457e-06
-3.19781e-07
-8.49578e-06
-6.61955e-07
-7.9585e-06
-1.0631e-06
-7.23558e-06
-1.60954e-06
-6.1569e-06
-2.4111e-06
-4.58723e-06
-3.51645e-06
-2.38568e-06
-4.57739e-06
-4.08542e-06
-1.12669e-06
1.126e-06
-2.76055e-06
2.84978e-06
-4.23552e-06
4.04418e-06
-5.3e-06
4.34429e-06
-6.11584e-06
3.78875e-06
-6.72584e-06
3.17607e-06
-7.06734e-06
2.3522e-06
-7.25839e-06
1.73248e-06
-7.23486e-06
1.07796e-06
-7.18433e-06
6.39976e-07
-7.06366e-06
2.12738e-07
-6.95631e-06
-1.43374e-07
-6.7114e-06
-5.64691e-07
-6.4099e-06
-9.63453e-07
-5.96709e-06
-1.50591e-06
-5.43659e-06
-2.14004e-06
-4.79293e-06
-3.05476e-06
-3.83987e-06
-4.46951e-06
-2.27198e-06
-6.14528e-06
-6.35741e-06
-1.44976e-06
2.57576e-06
-3.0086e-06
4.40862e-06
-4.18522e-06
5.2208e-06
-4.89831e-06
5.05738e-06
-5.31959e-06
4.21003e-06
-5.45671e-06
3.31319e-06
-5.45573e-06
2.35122e-06
-5.43213e-06
1.70889e-06
-5.43189e-06
1.07771e-06
-5.42463e-06
6.32722e-07
-5.34706e-06
1.35166e-07
-5.22509e-06
-2.65348e-07
-5.03302e-06
-7.56756e-07
-4.76741e-06
-1.22907e-06
-4.40528e-06
-1.86804e-06
-3.93387e-06
-2.61145e-06
-3.41223e-06
-3.5764e-06
-2.78109e-06
-5.10065e-06
-1.76025e-06
-7.16612e-06
-8.11766e-06
-1.43132e-06
4.00708e-06
-2.68777e-06
5.66507e-06
-3.51178e-06
6.04481e-06
-3.9546e-06
5.50019e-06
-4.10488e-06
4.36031e-06
-4.11437e-06
3.32268e-06
-4.13266e-06
2.36951e-06
-4.15161e-06
1.72784e-06
-4.15759e-06
1.08369e-06
-4.14625e-06
6.21387e-07
-4.10111e-06
9.0019e-08
-4.00429e-06
-3.62159e-07
-3.83105e-06
-9.3e-07
-3.57979e-06
-1.48032e-06
-3.28553e-06
-2.1623e-06
-2.91464e-06
-2.98234e-06
-2.50589e-06
-3.98515e-06
-2.10766e-06
-5.49888e-06
-1.36611e-06
-7.90767e-06
-9.48376e-06
-1.1581e-06
5.16518e-06
-2.074e-06
6.58097e-06
-2.67653e-06
6.64734e-06
-2.9582e-06
5.78186e-06
-3.03833e-06
4.44045e-06
-3.04521e-06
3.32956e-06
-3.08616e-06
2.41046e-06
-3.10667e-06
1.74835e-06
-3.11634e-06
1.09336e-06
-3.10895e-06
6.13997e-07
-3.08231e-06
6.33827e-08
-3.01629e-06
-4.28186e-07
-2.8953e-06
-1.05099e-06
-2.66588e-06
-1.70973e-06
-2.37768e-06
-2.4505e-06
-2.06181e-06
-3.29821e-06
-1.71544e-06
-4.33152e-06
-1.37108e-06
-5.84324e-06
-1.0346e-06
-8.24416e-06
-1.05184e-05
-8.32027e-07
5.99721e-06
-1.47377e-06
7.2227e-06
-1.89515e-06
7.06872e-06
-2.07059e-06
5.9573e-06
-2.14004e-06
4.50989e-06
-2.17292e-06
3.36244e-06
-2.20653e-06
2.44407e-06
-2.20749e-06
1.74931e-06
-2.20429e-06
1.09016e-06
-2.18895e-06
5.98663e-07
-2.18263e-06
5.7065e-08
-2.14741e-06
-4.63415e-07
-2.09216e-06
-1.10623e-06
-1.95281e-06
-1.84908e-06
-1.74318e-06
-2.66013e-06
-1.49713e-06
-3.54427e-06
-1.23902e-06
-4.58963e-06
-1.00255e-06
-6.07971e-06
-7.63594e-07
-8.48311e-06
-1.1282e-05
-4.89679e-07
6.48689e-06
-9.10058e-07
7.64308e-06
-1.19679e-06
7.35545e-06
-1.32958e-06
6.0901e-06
-1.39294e-06
4.57325e-06
-1.422e-06
3.3915e-06
-1.43527e-06
2.45733e-06
-1.41249e-06
1.72653e-06
-1.39521e-06
1.07288e-06
-1.37003e-06
5.73478e-07
-1.37024e-06
5.72746e-08
-1.35084e-06
-4.82814e-07
-1.32464e-06
-1.13243e-06
-1.25887e-06
-1.91486e-06
-1.13714e-06
-2.78186e-06
-9.73474e-07
-3.70794e-06
-7.92416e-07
-4.77069e-06
-6.31711e-07
-6.24042e-06
-5.70431e-07
-8.54439e-06
-1.18524e-05
-2.17894e-07
6.70478e-06
-4.39516e-07
7.8647e-06
-5.96845e-07
7.51278e-06
-7.00288e-07
6.19354e-06
-7.53038e-07
4.626e-06
-7.73932e-07
3.4124e-06
-7.74892e-07
2.45829e-06
-7.46536e-07
1.69818e-06
-7.30328e-07
1.05667e-06
-7.09844e-07
5.52993e-07
-7.10373e-07
5.78035e-08
-7.10239e-07
-4.82948e-07
-7.06508e-07
-1.13616e-06
-6.96916e-07
-1.92445e-06
-6.68767e-07
-2.81001e-06
-5.95182e-07
-3.78152e-06
-5.21557e-07
-4.84431e-06
-4.4261e-07
-6.31936e-06
-4.07141e-07
-8.57986e-06
-1.22595e-05
6.70327e-08
6.63775e-06
-2.02886e-09
7.93377e-06
-6.12458e-08
7.572e-06
-1.11832e-07
6.24413e-06
-1.65497e-07
4.67967e-06
-1.97497e-07
3.4444e-06
-1.94399e-07
2.45519e-06
-1.68906e-07
1.67269e-06
-1.50804e-07
1.03857e-06
-1.39744e-07
5.41933e-07
-1.41996e-07
6.0056e-08
-1.60356e-07
-4.64588e-07
-1.54051e-07
-1.14246e-06
-1.92285e-07
-1.88622e-06
-1.89119e-07
-2.81318e-06
-2.33664e-07
-3.73698e-06
-2.01108e-07
-4.87687e-06
-2.18163e-07
-6.30231e-06
-3.13054e-07
-8.48497e-06
-1.25726e-05
3.3231e-07
6.30544e-06
4.65996e-07
7.80008e-06
5.1389e-07
7.52411e-06
4.30767e-07
6.32725e-06
3.60014e-07
4.75042e-06
3.32937e-07
3.47147e-06
3.39137e-07
2.44899e-06
3.55876e-07
1.65595e-06
3.66036e-07
1.02841e-06
3.74032e-07
5.33937e-07
3.71833e-07
6.2255e-08
3.53878e-07
-4.46634e-07
3.16157e-07
-1.10474e-06
2.49535e-07
-1.81959e-06
1.79062e-07
-2.7427e-06
2.16733e-08
-3.57959e-06
3.85075e-08
-4.8937e-06
-1.08999e-07
-6.1548e-06
-2.15673e-07
-8.3783e-06
-1.27883e-05
5.76942e-07
5.72849e-06
9.22052e-07
7.45497e-06
1.09234e-06
7.35381e-06
1.01282e-06
6.40677e-06
9.18775e-07
4.84447e-06
8.61836e-07
3.52841e-06
8.45385e-07
2.46544e-06
8.49394e-07
1.65194e-06
8.51562e-07
1.02624e-06
8.54339e-07
5.3116e-07
8.49934e-07
6.66598e-08
8.34769e-07
-4.31468e-07
7.69863e-07
-1.03984e-06
6.91294e-07
-1.74102e-06
5.35259e-07
-2.58667e-06
4.04328e-07
-3.44866e-06
2.65337e-07
-4.75471e-06
3.16679e-08
-5.92113e-06
-1.47951e-07
-8.19868e-06
-1.29362e-05
8.64534e-07
4.86396e-06
1.3399e-06
6.97961e-06
1.64043e-06
7.05328e-06
1.65746e-06
6.38975e-06
1.5321e-06
4.96983e-06
1.45144e-06
3.60907e-06
1.40827e-06
2.50862e-06
1.38657e-06
1.67364e-06
1.37221e-06
1.0406e-06
1.36279e-06
5.40579e-07
1.33802e-06
9.1437e-08
1.30286e-06
-3.96311e-07
1.21087e-06
-9.47843e-07
1.0902e-06
-1.62035e-06
8.88507e-07
-2.38498e-06
7.10122e-07
-3.27027e-06
4.64892e-07
-4.50948e-06
1.72814e-07
-5.62906e-06
-2.05396e-08
-8.00532e-06
-1.29567e-05
1.11216e-06
3.7518e-06
1.81363e-06
6.27814e-06
2.21672e-06
6.65019e-06
2.36852e-06
6.23794e-06
2.26026e-06
5.07809e-06
2.13935e-06
3.72997e-06
2.04193e-06
2.60604e-06
1.97916e-06
1.73641e-06
1.93591e-06
1.08385e-06
1.90532e-06
5.71167e-07
1.86662e-06
1.30137e-07
1.80796e-06
-3.37643e-07
1.69808e-06
-8.37967e-07
1.54675e-06
-1.46903e-06
1.3349e-06
-2.17312e-06
1.13085e-06
-3.06622e-06
7.97245e-07
-4.17588e-06
4.20921e-07
-5.25273e-06
9.58296e-08
-7.68023e-06
-1.28609e-05
1.35041e-06
2.40139e-06
2.14503e-06
5.48352e-06
2.69193e-06
6.10328e-06
3.07024e-06
5.85964e-06
3.14534e-06
5.00298e-06
3.05537e-06
3.81995e-06
2.92179e-06
2.73962e-06
2.79571e-06
1.86248e-06
2.68718e-06
1.19238e-06
2.61092e-06
6.47428e-07
2.53947e-06
2.0159e-07
2.45371e-06
-2.5189e-07
2.32272e-06
-7.06972e-07
2.14967e-06
-1.29598e-06
1.91533e-06
-1.93879e-06
1.6469e-06
-2.79779e-06
1.18155e-06
-3.71053e-06
6.30997e-07
-4.70218e-06
2.46093e-07
-7.29533e-06
-1.26148e-05
1.40716e-06
9.94229e-07
2.35818e-06
4.53251e-06
3.04045e-06
5.42101e-06
3.67037e-06
5.22972e-06
4.0283e-06
4.64505e-06
4.13422e-06
3.71403e-06
4.09951e-06
2.77433e-06
4.01893e-06
1.94307e-06
3.89778e-06
1.31353e-06
3.77234e-06
7.72862e-07
3.64018e-06
3.33757e-07
3.50363e-06
-1.15342e-07
3.32147e-06
-5.24813e-07
3.09115e-06
-1.06566e-06
2.78335e-06
-1.63098e-06
2.36721e-06
-2.38165e-06
1.75294e-06
-3.09626e-06
1.03235e-06
-3.98159e-06
4.98031e-07
-6.76101e-06
-1.21168e-05
8.28889e-07
1.6534e-07
2.00597e-06
3.35543e-06
3.09446e-06
4.33252e-06
4.01731e-06
4.30687e-06
4.72064e-06
3.94172e-06
5.15477e-06
3.27991e-06
5.37099e-06
2.55811e-06
5.44439e-06
1.86967e-06
5.43769e-06
1.32024e-06
5.38355e-06
8.26997e-07
5.25556e-06
4.61748e-07
5.05269e-06
8.75272e-08
4.78989e-06
-2.62011e-07
4.44533e-06
-7.21097e-07
3.94497e-06
-1.13062e-06
3.27646e-06
-1.71313e-06
2.39026e-06
-2.21007e-06
1.43406e-06
-3.02538e-06
8.33058e-07
-6.16001e-06
-1.12837e-05
-1.96268e-07
3.61609e-07
1.24284e-06
1.91631e-06
2.59854e-06
2.97682e-06
3.85914e-06
3.04627e-06
4.90601e-06
2.89484e-06
5.70964e-06
2.47628e-06
6.24744e-06
2.02031e-06
6.60374e-06
1.51337e-06
6.7687e-06
1.15527e-06
6.81953e-06
7.76169e-07
6.73128e-06
5.49996e-07
6.57278e-06
2.46026e-07
6.23699e-06
7.37884e-08
5.77272e-06
-2.56834e-07
5.10345e-06
-4.61353e-07
4.25337e-06
-8.63048e-07
3.10311e-06
-1.05981e-06
2.13355e-06
-2.05582e-06
1.40893e-06
-5.4354e-06
-9.8748e-06
-1.22349e-06
1.5851e-06
-1.8723e-07
8.80052e-07
1.4434e-06
1.34619e-06
3.01867e-06
1.471e-06
4.39608e-06
1.51744e-06
5.5225e-06
1.34986e-06
6.354e-06
1.1888e-06
6.93184e-06
9.35539e-07
7.29911e-06
7.87995e-07
7.46984e-06
6.05445e-07
7.50276e-06
5.1708e-07
7.36588e-06
3.82899e-07
7.11322e-06
3.26453e-07
6.66293e-06
1.93453e-07
6.08217e-06
1.19412e-07
5.2875e-06
-6.83817e-08
4.49464e-06
-2.66951e-07
3.83352e-06
-1.3947e-06
2.62867e-06
-4.23054e-06
-7.24614e-06
1.5851e-06
2.46515e-06
3.81134e-06
5.28234e-06
6.79978e-06
8.14963e-06
9.33844e-06
1.0274e-05
1.1062e-05
1.16674e-05
1.21845e-05
1.25674e-05
1.28938e-05
1.30873e-05
1.32067e-05
1.31383e-05
1.28714e-05
1.14767e-05
7.24614e-06
)
;

boundaryField
{
    movingWall
    {
        type            calculated;
        value           uniform 0;
    }
    fixedWalls
    {
        type            calculated;
        value           uniform 0;
    }
    frontAndBack
    {
        type            empty;
    }
}


// ************************************************************************* //
