/*--------------------------------*- C++ -*----------------------------------*\
  =========                 |
  \\      /  F ield         | OpenFOAM: The Open Source CFD Toolbox
   \\    /   O peration     | Website:  https://openfoam.org
    \\  /    A nd           | Version:  12
     \\/     M anipulation  |
\*---------------------------------------------------------------------------*/
FoamFile
{
    format      ascii;
    class       volVectorField;
    location    "8.5";
    object      U;
}
// * * * * * * * * * * * * * * * * * * * * * * * * * * * * * * * * * * * * * //

dimensions      [0 1 -1 0 0 0 0];

internalField   nonuniform List<vector> 
400
(
(0.00332508 -0.00520216 0)
(0.00908157 -0.00237762 0)
(-0.00254957 0.0037867 0)
(-0.0190694 0.0144482 0)
(-0.0707464 0.0218105 0)
(-0.099989 0.0151539 0)
(-0.130106 0.01515 0)
(-0.147542 0.0109259 0)
(-0.164548 0.00982541 0)
(-0.173514 0.00661866 0)
(-0.181245 0.0055997 0)
(-0.184413 0.00299461 0)
(-0.185212 0.00124373 0)
(-0.180505 -0.00181562 0)
(-0.171628 -0.00451602 0)
(-0.155106 -0.00946217 0)
(-0.131498 -0.0146548 0)
(-0.097379 -0.020838 0)
(-0.0589785 -0.020609 0)
(-0.013157 -0.00535809 0)
(-0.00176924 -0.0093935 0)
(-0.0119076 0.00858428 0)
(-0.0410359 0.0323903 0)
(-0.081653 0.0517106 0)
(-0.112347 0.0468433 0)
(-0.132639 0.0409852 0)
(-0.150892 0.0333465 0)
(-0.163789 0.0232724 0)
(-0.174518 0.0168961 0)
(-0.180165 0.0094476 0)
(-0.184162 0.00457645 0)
(-0.183664 -0.00165793 0)
(-0.181455 -0.00640207 0)
(-0.175374 -0.0130824 0)
(-0.166558 -0.0200772 0)
(-0.151953 -0.0311286 0)
(-0.132057 -0.0451304 0)
(-0.103765 -0.0642473 0)
(-0.0709159 -0.0791677 0)
(-0.0199581 -0.0583557 0)
(-0.0103971 0.00979066 0)
(-0.0363044 0.043054 0)
(-0.0710829 0.0677226 0)
(-0.0999349 0.0758715 0)
(-0.117882 0.0669334 0)
(-0.130185 0.0568646 0)
(-0.14111 0.0422226 0)
(-0.144632 0.0332194 0)
(-0.145187 0.022653 0)
(-0.144634 0.0147077 0)
(-0.142941 0.00649913 0)
(-0.140713 -0.00043737 0)
(-0.137865 -0.00797321 0)
(-0.132223 -0.0154211 0)
(-0.12556 -0.0254251 0)
(-0.115931 -0.0380825 0)
(-0.101997 -0.0584373 0)
(-0.0822059 -0.0858159 0)
(-0.0626244 -0.114931 0)
(-0.0209196 -0.114958 0)
(-0.0138283 0.0376702 0)
(-0.0459771 0.0741186 0)
(-0.0767478 0.0936052 0)
(-0.0958912 0.0931635 0)
(-0.105102 0.0792988 0)
(-0.110631 0.0644549 0)
(-0.109139 0.0477239 0)
(-0.107345 0.0343799 0)
(-0.109158 0.0215345 0)
(-0.108314 0.0123439 0)
(-0.10865 0.00298509 0)
(-0.106335 -0.0045568 0)
(-0.103424 -0.0135984 0)
(-0.0985471 -0.0221586 0)
(-0.0918175 -0.0336058 0)
(-0.0856279 -0.0463012 0)
(-0.0752873 -0.0657082 0)
(-0.0567208 -0.0978292 0)
(-0.0479725 -0.137055 0)
(-0.0160093 -0.148419 0)
(-0.0136818 0.0647159 0)
(-0.0455966 0.0998862 0)
(-0.0666124 0.110799 0)
(-0.0796078 0.104103 0)
(-0.0822546 0.0854751 0)
(-0.0824563 0.0673992 0)
(-0.0804075 0.0480624 0)
(-0.0826451 0.0348857 0)
(-0.0823792 0.0216908 0)
(-0.0837204 0.0124134 0)
(-0.0827274 0.00199004 0)
(-0.0823599 -0.00670852 0)
(-0.078349 -0.0176424 0)
(-0.0752623 -0.0280843 0)
(-0.0673183 -0.0416667 0)
(-0.0621596 -0.0567243 0)
(-0.0580523 -0.0753563 0)
(-0.0386586 -0.105862 0)
(-0.0423016 -0.154417 0)
(-0.005794 -0.180859 0)
(-0.0115313 0.0900262 0)
(-0.0368396 0.121132 0)
(-0.0511492 0.125931 0)
(-0.0610192 0.112729 0)
(-0.0596825 0.0894659 0)
(-0.0599352 0.067589 0)
(-0.0596832 0.04874 0)
(-0.0621648 0.0355692 0)
(-0.0610933 0.0223366 0)
(-0.0632536 0.0127009 0)
(-0.0616056 0.00166697 0)
(-0.0625873 -0.00782891 0)
(-0.0587045 -0.0198625 0)
(-0.0568976 -0.0317874 0)
(-0.050391 -0.0458703 0)
(-0.0420499 -0.0626209 0)
(-0.0433675 -0.0823949 0)
(-0.0225851 -0.112243 0)
(-0.032774 -0.160742 0)
(-0.00294825 -0.20031 0)
(-0.00887536 0.110906 0)
(-0.0263683 0.136603 0)
(-0.0369565 0.135991 0)
(-0.0433157 0.116747 0)
(-0.0408286 0.0891546 0)
(-0.0424612 0.0672351 0)
(-0.0428082 0.048898 0)
(-0.044323 0.0352108 0)
(-0.0429742 0.0219034 0)
(-0.044866 0.0119813 0)
(-0.043253 0.000704181 0)
(-0.044717 -0.0096732 0)
(-0.0420307 -0.022626 0)
(-0.0407647 -0.0368707 0)
(-0.0384124 -0.0521157 0)
(-0.0286277 -0.0694593 0)
(-0.0337109 -0.0895377 0)
(-0.0134166 -0.119836 0)
(-0.0288638 -0.168078 0)
(0.00298095 -0.219451 0)
(-0.00511977 0.124529 0)
(-0.0159783 0.148312 0)
(-0.0236398 0.144199 0)
(-0.0278663 0.120868 0)
(-0.0255293 0.0922733 0)
(-0.0280573 0.0685882 0)
(-0.02794 0.0497419 0)
(-0.0285943 0.0353646 0)
(-0.0269931 0.0221562 0)
(-0.0283807 0.0122834 0)
(-0.0270136 0.00165002 0)
(-0.0281737 -0.00875659 0)
(-0.0268451 -0.0216054 0)
(-0.0250954 -0.0372275 0)
(-0.0265749 -0.0541501 0)
(-0.0163094 -0.072529 0)
(-0.0250338 -0.0930876 0)
(-0.00419031 -0.122227 0)
(-0.0233774 -0.16944 0)
(0.00428871 -0.230399 0)
(-0.00200843 0.133064 0)
(-0.00769047 0.15531 0)
(-0.0120159 0.148633 0)
(-0.014457 0.12297 0)
(-0.0128734 0.0913148 0)
(-0.0156676 0.0676606 0)
(-0.0148954 0.0491643 0)
(-0.0153421 0.0343992 0)
(-0.0138577 0.021426 0)
(-0.0149031 0.0112568 0)
(-0.0139571 0.000895433 0)
(-0.0145565 -0.00997227 0)
(-0.0147977 -0.0230164 0)
(-0.0124097 -0.0388963 0)
(-0.0169358 -0.0568918 0)
(-0.00731777 -0.07554 0)
(-0.0190388 -0.0974122 0)
(0.000975709 -0.126514 0)
(-0.0213013 -0.171662 0)
(0.0081542 -0.242021 0)
(0.00171922 0.134539 0)
(0.000519344 0.159468 0)
(-0.000860572 0.152018 0)
(-0.0024419 0.125189 0)
(-0.00162392 0.0946987 0)
(-0.00429221 0.0697976 0)
(-0.00345116 0.0500136 0)
(-0.00387646 0.034257 0)
(-0.00258864 0.0213268 0)
(-0.0031499 0.0111769 0)
(-0.0027235 0.001363 0)
(-0.00279504 -0.0094106 0)
(-0.00416397 -0.0227055 0)
(-0.00134109 -0.0377549 0)
(-0.00738598 -0.0562127 0)
(0.0014697 -0.0744216 0)
(-0.0129653 -0.0973776 0)
(0.00728755 -0.124698 0)
(-0.0185298 -0.170745 0)
(0.00899327 -0.248138 0)
(0.00514712 0.131389 0)
(0.00739132 0.159181 0)
(0.0092659 0.151972 0)
(0.00887276 0.125909 0)
(0.00897087 0.0932094 0)
(0.00639326 0.0681454 0)
(0.00733384 0.0484342 0)
(0.00690461 0.0328379 0)
(0.00771736 0.0203707 0)
(0.0073639 0.0105659 0)
(0.00718189 0.0011979 0)
(0.00766846 -0.00907384 0)
(0.00573323 -0.0227902 0)
(0.007823 -0.0376046 0)
(0.000884994 -0.0560824 0)
(0.00812627 -0.07383 0)
(-0.00812033 -0.0990622 0)
(0.0110164 -0.125039 0)
(-0.0177126 -0.169472 0)
(0.0120558 -0.254526 0)
(0.00701454 0.122295 0)
(0.0148535 0.155255 0)
(0.0197074 0.150892 0)
(0.0205462 0.127703 0)
(0.0203728 0.097027 0)
(0.0176189 0.0704844 0)
(0.0177778 0.0494974 0)
(0.0171048 0.033446 0)
(0.0173293 0.0208719 0)
(0.0171923 0.0108874 0)
(0.0164158 0.00142189 0)
(0.0174204 -0.00854698 0)
(0.0150587 -0.0211557 0)
(0.0166418 -0.0352874 0)
(0.00950948 -0.0525208 0)
(0.0146784 -0.0700036 0)
(-0.00193375 -0.0955067 0)
(0.0163712 -0.119675 0)
(-0.0168284 -0.16621 0)
(0.0138049 -0.257387 0)
(0.0108906 0.111083 0)
(0.0217475 0.14695 0)
(0.0292758 0.145308 0)
(0.032381 0.128383 0)
(0.0325779 0.0951674 0)
(0.0299665 0.0692322 0)
(0.0294666 0.0481482 0)
(0.0283094 0.0320771 0)
(0.0276287 0.0199051 0)
(0.0277491 0.0102855 0)
(0.0260661 0.00123223 0)
(0.0272327 -0.00847627 0)
(0.0240296 -0.0199046 0)
(0.0249569 -0.0336134 0)
(0.0176998 -0.0499152 0)
(0.020581 -0.0679058 0)
(0.0039421 -0.0933101 0)
(0.0196769 -0.117242 0)
(-0.016513 -0.162001 0)
(0.0175551 -0.259144 0)
(0.013088 0.0876369 0)
(0.0288446 0.136367 0)
(0.0408666 0.138795 0)
(0.0447461 0.128664 0)
(0.0468303 0.101403 0)
(0.0445581 0.0728814 0)
(0.0426177 0.0508411 0)
(0.0408411 0.0342141 0)
(0.038906 0.0216006 0)
(0.0391265 0.0116161 0)
(0.0365218 0.00264433 0)
(0.0377128 -0.0070184 0)
(0.0338083 -0.0175437 0)
(0.0345285 -0.0306537 0)
(0.0271302 -0.0454132 0)
(0.028588 -0.063025 0)
(0.0130182 -0.0859895 0)
(0.0249998 -0.1084 0)
(-0.0141764 -0.15683 0)
(0.0209552 -0.257773 0)
(0.0175383 0.0678466 0)
(0.0336234 0.119506 0)
(0.0491658 0.128256 0)
(0.0569371 0.121113 0)
(0.0615698 0.101504 0)
(0.0620299 0.0742076 0)
(0.0605435 0.0509455 0)
(0.0584534 0.0335023 0)
(0.0544326 0.0207227 0)
(0.0539447 0.0106643 0)
(0.0501393 0.00226044 0)
(0.0509475 -0.00679994 0)
(0.0463774 -0.0161669 0)
(0.0468516 -0.0281527 0)
(0.0393154 -0.0415263 0)
(0.0391743 -0.0591905 0)
(0.0242279 -0.079933 0)
(0.0297841 -0.101115 0)
(-0.0120048 -0.150245 0)
(0.0269617 -0.256134 0)
(0.0177889 0.0272259 0)
(0.0382526 0.102765 0)
(0.0552562 0.117978 0)
(0.066897 0.114597 0)
(0.0756704 0.101076 0)
(0.0808066 0.0791622 0)
(0.0819725 0.0571117 0)
(0.0829978 0.0387053 0)
(0.0790708 0.0249538 0)
(0.0782961 0.0138856 0)
(0.0728066 0.00519544 0)
(0.0725652 -0.00374359 0)
(0.0666747 -0.0124595 0)
(0.0662795 -0.0237056 0)
(0.057723 -0.0355939 0)
(0.0555868 -0.051701 0)
(0.0397208 -0.0675971 0)
(0.0376899 -0.0859441 0)
(-0.00591031 -0.141007 0)
(0.0336118 -0.25228 0)
(0.00387739 0.00892856 0)
(0.0311021 0.0725555 0)
(0.0535886 0.0969737 0)
(0.0706444 0.0973089 0)
(0.0853729 0.0886883 0)
(0.0977631 0.0734832 0)
(0.103589 0.0567881 0)
(0.109637 0.0407619 0)
(0.108622 0.0274813 0)
(0.110153 0.0161164 0)
(0.105378 0.00733341 0)
(0.104695 -0.00139774 0)
(0.0972619 -0.0092123 0)
(0.0945735 -0.018864 0)
(0.0835174 -0.0283007 0)
(0.076847 -0.0411535 0)
(0.0573122 -0.0531287 0)
(0.0455647 -0.0718187 0)
(0.000538372 -0.135118 0)
(0.0437216 -0.248518 0)
(-0.0211658 -0.00336319 0)
(0.0145805 0.0587803 0)
(0.0403987 0.0797306 0)
(0.0644169 0.0806636 0)
(0.0849813 0.0748491 0)
(0.105723 0.0632491 0)
(0.117506 0.0506686 0)
(0.129743 0.0387215 0)
(0.132956 0.0292769 0)
(0.137869 0.0200109 0)
(0.135171 0.0133673 0)
(0.134851 0.00588136 0)
(0.127257 0.000366889 0)
(0.122579 -0.00731797 0)
(0.108796 -0.0135537 0)
(0.0984227 -0.0232184 0)
(0.0746897 -0.0315477 0)
(0.054995 -0.051635 0)
(0.0162969 -0.125785 0)
(0.0570128 -0.235789 0)
(-0.0283779 0.0219195 0)
(-0.0171423 0.0208822 0)
(0.0119386 0.0407401 0)
(0.0453147 0.0431907 0)
(0.0718421 0.0427994 0)
(0.099444 0.0375528 0)
(0.11717 0.032039 0)
(0.133504 0.0236319 0)
(0.142088 0.0186305 0)
(0.148951 0.0123156 0)
(0.150491 0.00957753 0)
(0.149855 0.00437033 0)
(0.14497 0.00290043 0)
(0.139524 -0.00227714 0)
(0.126701 -0.0037748 0)
(0.116133 -0.0101241 0)
(0.0913579 -0.0139334 0)
(0.078818 -0.0403337 0)
(0.0554193 -0.113649 0)
(0.0818459 -0.185379 0)
(0.0348354 0.0324563 0)
(0.0398316 0.0179638 0)
(0.0566504 0.0174925 0)
(0.0910653 0.0186253 0)
(0.118138 0.0209982 0)
(0.148559 0.0197115 0)
(0.172522 0.0187133 0)
(0.195437 0.0163126 0)
(0.213046 0.0147003 0)
(0.228132 0.013061 0)
(0.239513 0.0116856 0)
(0.248334 0.0108396 0)
(0.255126 0.00943211 0)
(0.259231 0.00913027 0)
(0.263301 0.00768576 0)
(0.262935 0.00684417 0)
(0.25768 0.00585381 0)
(0.243692 -0.00138728 0)
(0.203703 -0.0140629 0)
(0.15084 -0.0333029 0)
)
;

boundaryField
{
    movingWall
    {
        type            fixedValue;
        value           uniform (1 0 0);
    }
    fixedWalls
    {
        type            noSlip;
    }
    frontAndBack
    {
        type            empty;
    }
}


// ************************************************************************* //
