# Selection       : all 
# Volume          : 1.0000000000e-01
# Time            	volAverage(p)
1                 	1.0000019260e+05
