# Probe 0 (0 0 0)
# Time            0                
0                 0                
0.0025            -57118.18229     
0.005             74887.03184      
0.0075            108407.1864      
0.01              129053.6195      
0.0125            144195.8129      
0.015             152565.9988      
0.0175            157302.9302      
0.02              160176.6357      
0.0225            162012.5083      
0.025             163225.5897      
0.0275            164044.2096      
0.03              164603.0964      
0.0325            164986.0825      
0.035             165247.4791      
0.0375            165423.5804      
0.04              165539.2331      
0.0425            165611.7749      
0.045             165653.4884      
0.0475            165673.1812      
0.05              165677.2291      
0.0525            165670.283       
0.055             165655.7534      
0.0575            165636.1502      
0.06              165613.323       
0.0625            165588.6346      
0.065             165563.0858      
0.0675            165537.4072      
0.07              165512.1271      
0.0725            165487.6214      
0.075             165464.1517      
0.0775            165441.8931      
0.08              165420.9561      
0.0825            165401.4023      
0.085             165383.2571      
0.0875            165366.519       
0.09              165351.1667      
0.0925            165337.1649      
0.095             165324.4682      
0.0975            165313.0245      
0.1               165302.7773      
0.1025            165293.6678      
0.105             165285.6361      
0.1075            165278.6223      
0.11              165272.5672      
0.1125            165267.4132      
0.115             165263.1044      
0.1175            165259.5868      
0.12              165256.8089      
0.1225            165254.7213      
0.125             165253.2771      
0.1275            165252.4318      
0.13              165252.1433      
0.1325            165252.3717      
0.135             165253.0796      
0.1375            165254.2313      
0.14              165255.7938      
0.1425            165257.7356      
0.145             165260.0274      
0.1475            165262.6416      
0.15              165265.5522      
0.1525            165268.7351      
0.155             165272.1674      
0.1575            165275.8279      
0.16              165279.6966      
0.1625            165283.7549      
0.165             165287.9854      
0.1675            165292.3717      
0.17              165296.8986      
0.1725            165301.5518      
0.175             165306.3181      
0.1775            165311.1849      
0.18              165316.1408      
0.1825            165321.1747      
0.185             165326.2767      
0.1875            165331.4373      
0.19              165336.6477      
0.1925            165341.8997      
0.195             165347.1856      
0.1975            165352.4985      
0.2               165357.8316      
0.2025            165363.1788      
0.205             165368.5344      
0.2075            165373.893       
0.21              165379.2497      
0.2125            165384.6         
0.215             165389.9396      
0.2175            165395.2646      
0.22              165400.5713      
0.2225            165405.8563      
0.225             165411.1166      
0.2275            165416.3493      
0.23              165421.5517      
0.2325            165426.7215      
0.235             165431.8564      
0.2375            165436.9543      
0.24              165442.0134      
0.2425            165447.0319      
0.245             165452.0085      
0.2475            165456.9415      
0.25              165461.8298      
0.2525            165466.6723      
0.255             165471.4678      
0.2575            165476.2155      
0.26              165480.9146      
0.2625            165485.5644      
0.265             165490.1641      
0.2675            165494.7134      
0.27              165499.2117      
0.2725            165503.6587      
0.275             165508.054       
0.2775            165512.3974      
0.28              165516.6886      
0.2825            165520.9277      
0.285             165525.1144      
0.2875            165529.2488      
0.29              165533.3308      
0.2925            165537.3606      
0.295             165541.3382      
0.2975            165545.2637      
0.3               165549.1373      
0.3025            165552.9593      
0.305             165556.7298      
0.3075            165560.4492      
0.31              165564.1176      
0.3125            165567.7354      
0.315             165571.3029      
0.3175            165574.8205      
0.32              165578.2885      
0.3225            165581.7073      
0.325             165585.0773      
0.3275            165588.399       
0.33              165591.6726      
0.3325            165594.8988      
0.335             165598.0778      
0.3375            165601.2103      
0.34              165604.2965      
0.3425            165607.3371      
0.345             165610.3324      
0.3475            165613.283       
0.35              165616.1893      
0.3525            165619.0518      
0.355             165621.8711      
0.3575            165624.6476      
0.36              165627.3818      
0.3625            165630.0743      
0.365             165632.7254      
0.3675            165635.3358      
0.37              165637.9058      
0.3725            165640.4361      
0.375             165642.9272      
0.3775            165645.3794      
0.38              165647.7935      
0.3825            165650.1697      
0.385             165652.5087      
0.3875            165654.811       
0.39              165657.0769      
0.3925            165659.3071      
0.395             165661.502       
0.3975            165663.662       
0.4               165665.7878      
0.4025            165667.8797      
0.405             165669.9382      
0.4075            165671.9638      
0.41              165673.957       
0.4125            165675.9182      
0.415             165677.8478      
0.4175            165679.7465      
0.42              165681.6145      
0.4225            165683.4523      
0.425             165685.2604      
0.4275            165687.0392      
0.43              165688.7892      
0.4325            165690.5108      
0.435             165692.2043      
0.4375            165693.8703      
0.44              165695.5091      
0.4425            165697.1212      
0.445             165698.7069      
0.4475            165700.2666      
0.45              165701.8008      
0.4525            165703.3098      
0.455             165704.7941      
0.4575            165706.2539      
0.46              165707.6897      
0.4625            165709.1019      
0.465             165710.4908      
0.4675            165711.8568      
0.47              165713.2002      
0.4725            165714.5214      
0.475             165715.8207      
0.4775            165717.0985      
0.48              165718.3552      
0.4825            165719.591       
0.485             165720.8062      
0.4875            165722.0013      
0.49              165723.1765      
0.4925            165724.3322      
0.495             165725.4686      
0.4975            165726.5861      
0.5               165727.6849      
