# Probe 0 (0 0 0)
# Time            0                
0                 0                
0.0025            -0.008402713912  
0.005             0.0123243475     
0.0075            0.01370158745    
0.01              0.01489440776    
0.0125            0.01582609097    
0.015             0.01643480266    
0.0175            0.01685998173    
0.02              0.01718376448    
0.0225            0.01744342937    
0.025             0.01765795481    
0.0275            0.01783859764    
0.03              0.01799282211    
0.0325            0.01812594378    
0.035             0.01824192       
0.0375            0.01834378241    
0.04              0.01843389984    
0.0425            0.0185141509     
0.045             0.01858604341    
0.0475            0.01865079997    
0.05              0.01870942102    
0.0525            0.01876273195    
0.055             0.01881141898    
0.0575            0.01885605665    
0.06              0.01889712922    
0.0625            0.01893504741    
0.065             0.01897016162    
0.0675            0.01900277244    
0.07              0.0190331391     
0.0725            0.01906148626    
0.075             0.01908800954    
0.0775            0.01911288001    
0.08              0.01913624792    
0.0825            0.01915824574    
0.085             0.01917899071    
0.0875            0.01919858696    
0.09              0.01921712732    
0.0925            0.01923469476    
0.095             0.01925136369    
0.0975            0.01926720106    
0.1               0.01928226724    
0.1025            0.01929661681    
0.105             0.01931029927    
0.1075            0.0193233596     
0.11              0.01933583878    
0.1125            0.0193477742     
0.115             0.01935920007    
0.1175            0.01937014775    
0.12              0.01938064606    
0.1225            0.01939072147    
0.125             0.01940039843    
0.1275            0.01940969948    
0.13              0.01941864547    
0.1325            0.01942725573    
0.135             0.01943554816    
0.1375            0.01944353942    
0.14              0.01945124499    
0.1425            0.0194586793     
0.145             0.0194658558     
0.1475            0.01947278705    
0.15              0.01947948482    
0.1525            0.0194859601     
0.155             0.0194922232     
0.1575            0.0194982838     
0.16              0.01950415097    
0.1625            0.01950983327    
0.165             0.01951533872    
0.1675            0.01952067492    
0.17              0.019525849      
0.1725            0.01953086769    
0.175             0.01953573737    
0.1775            0.01954046407    
0.18              0.01954505346    
0.1825            0.01954951096    
0.185             0.01955384167    
0.1875            0.01955805044    
0.19              0.01956214188    
0.1925            0.01956612036    
0.195             0.01956999003    
0.1975            0.01957375486    
0.2               0.01957741859    
0.2025            0.01958098483    
0.205             0.01958445697    
0.2075            0.01958783829    
0.21              0.01959113189    
0.2125            0.01959434074    
0.215             0.01959746767    
0.2175            0.0196005154     
0.22              0.01960348652    
0.2225            0.01960638351    
0.225             0.01960920875    
0.2275            0.01961196451    
0.23              0.01961465298    
0.2325            0.01961727624    
0.235             0.0196198363     
0.2375            0.0196223351     
0.24              0.01962477448    
0.2425            0.01962715621    
0.245             0.01962948201    
0.2475            0.01963175351    
0.25              0.0196339723     
0.2525            0.0196361399     
0.255             0.01963825777    
0.2575            0.01964032733    
0.26              0.01964234992    
0.2625            0.01964432686    
0.265             0.01964625941    
0.2675            0.01964814879    
0.27              0.01964999617    
0.2725            0.01965180269    
0.275             0.01965356945    
0.2775            0.01965529749    
0.28              0.01965698785    
0.2825            0.01965864151    
0.285             0.01966025942    
0.2875            0.01966184251    
0.29              0.01966339168    
0.2925            0.01966490778    
0.295             0.01966639166    
0.2975            0.01966784412    
0.3               0.01966926595    
0.3025            0.01967065791    
0.305             0.01967202074    
0.3075            0.01967335516    
0.31              0.01967466184    
0.3125            0.01967594148    
0.315             0.01967719471    
0.3175            0.01967842217    
0.32              0.01967962448    
0.3225            0.01968080223    
0.325             0.01968195599    
0.3275            0.01968308634    
0.33              0.01968419381    
0.3325            0.01968527894    
0.335             0.01968634224    
0.3375            0.01968738421    
0.34              0.01968840534    
0.3425            0.0196894061     
0.345             0.01969038696    
0.3475            0.01969134836    
0.35              0.01969229073    
0.3525            0.01969321451    
0.355             0.0196941201     
0.3575            0.01969500791    
0.36              0.01969587833    
0.3625            0.01969673174    
0.365             0.0196975685     
0.3675            0.01969838899    
0.37              0.01969919355    
0.3725            0.01969998253    
0.375             0.01970075626    
0.3775            0.01970151507    
0.38              0.01970225928    
0.3825            0.01970298919    
0.385             0.01970370512    
0.3875            0.01970440735    
0.39              0.01970509617    
0.3925            0.01970577186    
0.395             0.01970643471    
0.3975            0.01970708496    
0.4               0.01970772289    
0.4025            0.01970834876    
0.405             0.0197089628     
0.4075            0.01970956526    
0.41              0.01971015638    
0.4125            0.01971073639    
0.415             0.01971130551    
0.4175            0.01971186398    
0.42              0.01971241199    
0.4225            0.01971294977    
0.425             0.01971347752    
0.4275            0.01971399544    
0.43              0.01971450373    
0.4325            0.01971500257    
0.435             0.01971549217    
0.4375            0.01971597269    
0.44              0.01971644433    
0.4425            0.01971690726    
0.445             0.01971736164    
0.4475            0.01971780765    
0.45              0.01971824545    
0.4525            0.0197186752     
0.455             0.01971909706    
0.4575            0.01971951119    
0.46              0.01971991772    
0.4625            0.01972031682    
0.465             0.01972070862    
0.4675            0.01972109327    
0.47              0.0197214709     
0.4725            0.01972184166    
0.475             0.01972220566    
0.4775            0.01972256304    
0.48              0.01972291393    
0.4825            0.01972325845    
0.485             0.01972359672    
0.4875            0.01972392887    
0.49              0.019724255      
0.4925            0.01972457524    
0.495             0.01972488969    
0.4975            0.01972519846    
0.5               0.01972550166    
