# Probe 0 (0 0 0)
# Time            0                
0                 100000           
0.0025            102793.958       
0.005             103438.1931      
0.0075            105259.411       
0.01              106961.4069      
0.0125            108533.2467      
0.015             110014.8651      
0.0175            111392.1316      
0.02              112664.082       
0.0225            113837.3124      
0.025             114920.0431      
0.0275            115920.3041      
0.03              116845.4771      
0.0325            117702.2228      
0.035             118496.5184      
0.0375            119233.7232      
0.04              119918.6481      
0.0425            120555.6196      
0.045             121148.5369      
0.0475            121700.9216      
0.05              122215.9609      
0.0525            122696.5461      
0.055             123145.3043      
0.0575            123564.628       
0.06              123956.6991      
0.0625            124323.5115      
0.065             124666.8899      
0.0675            124988.5067      
0.07              125289.897       
0.0725            125572.4718      
0.075             125837.5296      
0.0775            126086.2671      
0.08              126319.7882      
0.0825            126539.1123      
0.085             126745.1819      
0.0875            126938.8692      
0.09              127120.9823      
0.0925            127292.2702      
0.095             127453.4281      
0.0975            127605.1015      
0.1               127747.8905      
0.1025            127882.3531      
0.105             128009.0088      
0.1075            128128.3414      
0.11              128240.802       
0.1125            128346.811       
0.115             128446.761       
0.1175            128541.0184      
0.12              128629.9256      
0.1225            128713.8027      
0.125             128792.9489      
0.1275            128867.6443      
0.13              128938.151       
0.1325            129004.7147      
0.135             129067.5653      
0.1375            129126.9184      
0.14              129182.9764      
0.1425            129235.929       
0.145             129285.9541      
0.1475            129333.219       
0.15              129377.8806      
0.1525            129420.0864      
0.155             129459.9751      
0.1575            129497.6769      
0.16              129533.3145      
0.1625            129567.0031      
0.165             129598.8512      
0.1675            129628.9609      
0.17              129657.4284      
0.1725            129684.3442      
0.175             129709.7936      
0.1775            129733.8571      
0.18              129756.6103      
0.1825            129778.1247      
0.185             129798.4677      
0.1875            129817.7028      
0.19              129835.8899      
0.1925            129853.0856      
0.195             129869.3432      
0.1975            129884.7132      
0.2               129899.2432      
0.2025            129912.9781      
0.205             129925.9603      
0.2075            129938.2299      
0.21              129949.825       
0.2125            129960.7812      
0.215             129971.1324      
0.2175            129980.9107      
0.22              129990.1464      
0.2225            129998.868       
0.225             130007.1027      
0.2275            130014.876       
0.23              130022.2124      
0.2325            130029.1346      
0.235             130035.6645      
0.2375            130041.8225      
0.24              130047.6283      
0.2425            130053.1001      
0.245             130058.2555      
0.2475            130063.1111      
0.25              130067.6824      
0.2525            130071.9844      
0.255             130076.031       
0.2575            130079.8357      
0.26              130083.4111      
0.2625            130086.7692      
0.265             130089.9213      
0.2675            130092.8781      
0.27              130095.65        
0.2725            130098.2465      
0.275             130100.6768      
0.2775            130102.9498      
0.28              130105.0735      
0.2825            130107.0559      
0.285             130108.9045      
0.2875            130110.6261      
0.29              130112.2276      
0.2925            130113.7153      
0.295             130115.0952      
0.2975            130116.3731      
0.3               130117.5544      
0.3025            130118.6441      
0.305             130119.6473      
0.3075            130120.5686      
0.31              130121.4124      
0.3125            130122.1828      
0.315             130122.8838      
0.3175            130123.5193      
0.32              130124.0928      
0.3225            130124.6077      
0.325             130125.0672      
0.3275            130125.4744      
0.33              130125.8323      
0.3325            130126.1435      
0.335             130126.4107      
0.3375            130126.6365      
0.34              130126.8231      
0.3425            130126.9729      
0.345             130127.088       
0.3475            130127.1703      
0.35              130127.2219      
0.3525            130127.2445      
0.355             130127.2399      
0.3575            130127.2098      
0.36              130127.1557      
0.3625            130127.079       
0.365             130126.9813      
0.3675            130126.8639      
0.37              130126.7279      
0.3725            130126.5747      
0.375             130126.4054      
0.3775            130126.2211      
0.38              130126.0227      
0.3825            130125.8113      
0.385             130125.5878      
0.3875            130125.3531      
0.39              130125.1081      
0.3925            130124.8534      
0.395             130124.5899      
0.3975            130124.3183      
0.4               130124.0392      
0.4025            130123.7534      
0.405             130123.4613      
0.4075            130123.1636      
0.41              130122.8608      
0.4125            130122.5534      
0.415             130122.242       
0.4175            130121.9269      
0.42              130121.6087      
0.4225            130121.2876      
0.425             130120.9642      
0.4275            130120.6387      
0.43              130120.3116      
0.4325            130119.9831      
0.435             130119.6536      
0.4375            130119.3233      
0.44              130118.9926      
0.4425            130118.6616      
0.445             130118.3307      
0.4475            130118           
0.45              130117.6698      
0.4525            130117.3403      
0.455             130117.0117      
0.4575            130116.6841      
0.46              130116.3577      
0.4625            130116.0327      
0.465             130115.7092      
0.4675            130115.3873      
0.47              130115.0672      
0.4725            130114.7491      
0.475             130114.4329      
0.4775            130114.1188      
0.48              130113.807       
0.4825            130113.4974      
0.485             130113.1903      
0.4875            130112.8855      
0.49              130112.5833      
0.4925            130112.2837      
0.495             130111.9867      
0.4975            130111.6925      
0.5               130111.4009      
