/*--------------------------------*- C++ -*----------------------------------*\
  =========                 |
  \\      /  F ield         | OpenFOAM: The Open Source CFD Toolbox
   \\    /   O peration     | Website:  https://openfoam.org
    \\  /    A nd           | Version:  12
     \\/     M anipulation  |
\*---------------------------------------------------------------------------*/
FoamFile
{
    format      ascii;
    class       volVectorField;
    location    "19.94";
    object      zeta;
}
// * * * * * * * * * * * * * * * * * * * * * * * * * * * * * * * * * * * * * //

dimensions      [0 1 0 0 0 0 0];

internalField   uniform (0 0 0);

boundaryField
{
    freeSurface
    {
        type            calculated;
        value           nonuniform List<vector> 
181
(
(0 0.00560049 0)
(0 0.00560063 0)
(0 0.00559958 0)
(0 0.00559771 0)
(0 0.00559605 0)
(0 0.00559331 0)
(0 0.00559264 0)
(0 0.00558886 0)
(0 0.00118719 0)
(0 0.00119237 0)
(0 0.00120384 0)
(0 0.00122073 0)
(0 0.00123575 0)
(0 0.00125795 0)
(0 0.00127943 0)
(0 0.00130387 0)
(0 0.00132724 0)
(0 0.00135064 0)
(0 0.00137129 0)
(0 0.00138902 0)
(0 0.0014024 0)
(0 0.00141092 0)
(0 0.00141407 0)
(0 0.00141111 0)
(0 0.00140147 0)
(0 0.00138445 0)
(0 0.0013595 0)
(0 0.00132605 0)
(0 0.00128396 0)
(0 0.00123322 0)
(0 0.00117382 0)
(0 0.00110578 0)
(0 0.00102919 0)
(0 0.000944289 0)
(0 0.000851494 0)
(0 0.000751496 0)
(0 0.000644843 0)
(0 0.000532499 0)
(0 0.000415185 0)
(0 0.000293901 0)
(0 0.00016962 0)
(0 4.34973e-05 0)
(0 -8.32894e-05 0)
(0 -0.000209396 0)
(0 -0.000333307 0)
(0 -0.000453689 0)
(0 -0.000569085 0)
(0 -0.000677947 0)
(0 -0.000778641 0)
(0 -0.0008696 0)
(0 -0.000949357 0)
(0 -0.00101667 0)
(0 -0.00107012 0)
(0 -0.00110861 0)
(0 -0.00113127 0)
(0 -0.00113733 0)
(0 -0.00112629 0)
(0 -0.00109792 0)
(0 -0.00105213 0)
(0 -0.000989189 0)
(0 -0.000909629 0)
(0 -0.000814387 0)
(0 -0.000704615 0)
(0 -0.000581589 0)
(0 -0.000447483 0)
(0 -0.000304383 0)
(0 -0.000154621 0)
(0 -1.08054e-06 0)
(0 0.000153183 0)
(0 0.000305227 0)
(0 0.000451606 0)
(0 0.000589214 0)
(0 0.000714821 0)
(0 0.00082526 0)
(0 0.000917781 0)
(0 0.000989714 0)
(0 0.00103856 0)
(0 0.00106252 0)
(0 0.00106029 0)
(0 0.00103096 0)
(0 0.0009749 0)
(0 0.000892656 0)
(0 0.000785814 0)
(0 0.00065667 0)
(0 0.000508365 0)
(0 0.000344586 0)
(0 0.00016984 0)
(0 -1.06915e-05 0)
(0 -0.000191671 0)
(0 -0.000367498 0)
(0 -0.000532151 0)
(0 -0.000679952 0)
(0 -0.000805238 0)
(0 -0.000902986 0)
(0 -0.000969027 0)
(0 -0.00100024 0)
(0 -0.000994307 0)
(0 -0.000950607 0)
(0 -0.000869842 0)
(0 -0.000754302 0)
(0 -0.0006078 0)
(0 -0.000435655 0)
(0 -0.000244715 0)
(0 -4.31559e-05 0)
(0 0.000160448 0)
(0 0.00035705 0)
(0 0.00053708 0)
(0 0.000691511 0)
(0 0.000812096 0)
(0 0.000891715 0)
(0 0.000925171 0)
(0 0.000909862 0)
(0 0.000845154 0)
(0 0.000733526 0)
(0 0.000580413 0)
(0 0.000393152 0)
(0 0.000183074 0)
(0 -3.7932e-05 0)
(0 -0.000256569 0)
(0 -0.000459364 0)
(0 -0.000632389 0)
(0 -0.000763421 0)
(0 -0.000842566 0)
(0 -0.000863212 0)
(0 -0.000822337 0)
(0 -0.000721564 0)
(0 -0.000567315 0)
(0 -0.000370312 0)
(0 -0.000145373 0)
(0 8.91376e-05 0)
(0 0.000315522 0)
(0 0.000514293 0)
(0 0.000667272 0)
(0 0.000759752 0)
(0 0.000782074 0)
(0 0.000730166 0)
(0 0.000607482 0)
(0 0.000424196 0)
(0 0.00019688 0)
(0 -5.1818e-05 0)
(0 -0.000297439 0)
(0 -0.00051533 0)
(0 -0.00068042 0)
(0 -0.000772723 0)
(0 -0.000779523 0)
(0 -0.000697488 0)
(0 -0.000534357 0)
(0 -0.000308226 0)
(0 -4.64789e-05 0)
(0 0.000218125 0)
(0 0.000453555 0)
(0 0.000627035 0)
(0 0.00071319 0)
(0 0.000697852 0)
(0 0.000580938 0)
(0 0.000379075 0)
(0 0.000122529 0)
(0 -0.000148886 0)
(0 -0.000395311 0)
(0 -0.000575815 0)
(0 -0.000659582 0)
(0 -0.000630076 0)
(0 -0.000490609 0)
(0 -0.00026602 0)
(0 2.40476e-06 0)
(0 0.000267873 0)
(0 0.000479854 0)
(0 0.000595592 0)
(0 0.000588392 0)
(0 0.000456548 0)
(0 0.000226735 0)
(0 -5.5225e-05 0)
(0 -0.000332431 0)
(0 -0.000543605 0)
(0 -0.00063906 0)
(0 -0.000590005 0)
(0 -0.000405867 0)
(0 -0.000125671 0)
(0 0.000188064 0)
(0 0.000458913 0)
(0 0.000617049 0)
)
;
    }
    walls
    {
        type            calculated;
        value           uniform (0 0 0);
    }
    floatingObject
    {
        type            calculated;
        value           uniform (0 0 0);
    }
    frontAndBack
    {
        type            empty;
    }
}


// ************************************************************************* //
