#           v             n
     0.523599             0
     0.648652             0
     0.790112             0
     0.953116             0
      1.13449             0
      1.34047             0
      1.56672             0
      1.82069             0
      2.09677   1.09443e-09
      2.40376   3.28686e-08
      2.73462   5.23736e-07
      3.09966   4.34913e-06
      3.49026   2.63477e-05
      3.91837   0.000107708
      4.37366   0.000353385
      4.86986   0.000871564
       5.3948    0.00180748
      5.96412    0.00297621
      6.56366      0.004218
      7.21112    0.00489246
      7.89023    0.00495121
      8.62085    0.00418515
      9.38447    0.00312046
      10.2033    0.00197528
      11.0564    0.00111427
      11.9684   0.000541163
      12.9159    0.00023648
      13.9262   9.00501e-05
      14.9731    9.5772e-05
