#           v             n
     0.523599             0
     0.648652             0
     0.790112             0
     0.953116             0
      1.13449             0
      1.34047             0
      1.56672             0
      1.82069             0
      2.09677    0.00146055
      2.40376    0.00438493
      2.73462    0.00732807
      3.09966    0.00892081
      3.49026    0.00974624
      3.91837    0.00984997
      4.37366    0.00700536
      4.86986    0.00325221
       5.3948    0.00108434
      5.96412   0.000265363
      6.56366   5.13082e-05
      7.21112   7.84459e-06
      7.89023   1.00026e-06
      8.62085   1.05276e-07
      9.38447   9.54982e-09
      10.2033   7.34868e-10
      11.0564   4.98218e-11
      11.9684   2.92013e-12
      12.9159   1.53191e-13
      13.9262   7.04514e-15
      14.9731   6.32886e-16
