/*--------------------------------*- C++ -*----------------------------------*\
  =========                 |
  \\      /  F ield         | OpenFOAM: The Open Source CFD Toolbox
   \\    /   O peration     | Website:  https://openfoam.org
    \\  /    A nd           | Version:  12
     \\/     M anipulation  |
\*---------------------------------------------------------------------------*/
FoamFile
{
    format      ascii;
    class       volScalarField;
    location    "0.5";
    object      p;
}
// * * * * * * * * * * * * * * * * * * * * * * * * * * * * * * * * * * * * * //

dimensions      [0 2 -2 0 0 0 0];

internalField   nonuniform List<scalar> 
400
(
1.31659e-08
2.3537e-06
1.05422e-05
2.40191e-05
4.29118e-05
6.73798e-05
9.7553e-05
0.000133493
0.000175136
0.000222188
0.0002742
0.000330348
0.000389295
0.000449255
0.000507986
0.000562792
0.000610714
0.000648797
0.000674386
0.000684975
-2.72211e-06
-4.83993e-07
7.55916e-06
2.08061e-05
3.94192e-05
6.3592e-05
9.34939e-05
0.000129234
0.000170801
0.000218
0.0002704
0.000327215
0.000387286
0.000448763
0.000509326
0.000566171
0.000616159
0.000656091
0.00068305
0.000694244
-1.2121e-05
-1.00653e-05
-2.23869e-06
1.07276e-05
2.9034e-05
5.293e-05
8.26595e-05
0.000118426
0.000160336
0.000208328
0.000262094
0.000320974
0.000383928
0.000449119
0.00051413
0.000575901
0.000630865
0.00067524
0.000705457
0.000718138
-2.75551e-05
-2.57448e-05
-1.82306e-05
-5.66517e-06
1.22065e-05
3.57151e-05
6.52135e-05
0.000101046
0.000143491
0.000192689
0.000248536
0.000310557
0.000378047
0.000449142
0.000521329
0.000591169
0.000654392
0.000706236
0.000741993
0.000757279
-4.89518e-05
-4.7474e-05
-4.04027e-05
-2.84188e-05
-1.11995e-05
1.16883e-05
4.07386e-05
7.64821e-05
0.000119436
0.000170026
0.00022847
0.000294555
0.000368103
0.000447329
0.000529719
0.000611369
0.000687012
0.000750369
0.000794839
0.00081429
-7.62753e-05
-7.52387e-05
-6.87845e-05
-5.76369e-05
-4.1397e-05
-1.9515e-05
8.66949e-06
4.3915e-05
8.70409e-05
0.000138867
0.000200118
0.000271355
0.000351706
0.000441223
0.0005372
0.000635241
0.000728808
0.000809363
0.000867244
0.000893216
-0.000109452
-0.000108978
-0.000103363
-9.33886e-05
-7.85811e-05
-5.82704e-05
-3.16176e-05
2.39201e-06
4.4931e-05
9.72834e-05
0.000160747
0.000236452
0.000324974
0.000426975
0.000540236
0.000660259
0.000779157
0.000885216
0.000963841
0.00100009
-0.000148359
-0.000148588
-0.000144068
-0.000135684
-0.000122889
-0.000104909
-8.07331e-05
-4.90846e-05
-8.40336e-06
4.31385e-05
0.000107563
0.0001869
0.000283
0.000398984
0.00053307
0.000681575
0.000835704
0.000979679
0.00109105
0.00114383
-0.000192818
-0.000193908
-0.000190756
-0.000184433
-0.000174338
-0.000159629
-0.000139162
-0.000111425
-7.44727e-05
-2.58809e-05
3.72495e-05
0.000118023
0.000218688
0.000349336
0.000506521
0.000690189
0.000892284
0.00109279
0.00125738
0.0013375
-0.00024262
-0.00024471
-0.000243185
-0.000239402
-0.000232751
-0.000222388
-0.000207111
-0.000185256
-0.000154567
-0.000112038
-5.37132e-05
2.56226e-05
0.000133325
0.000268205
0.000446288
0.00066985
0.000934714
0.00121884
0.00147272
0.0015997
-0.000297573
-0.000300742
-0.000301014
-0.000300174
-0.000297675
-0.000292769
-0.000284318
-0.000270654
-0.000249405
-0.000217235
-0.000169517
-9.99465e-05
-5.01494e-07
0.000136387
0.000329991
0.000592205
0.000932674
0.0013364
0.00174465
0.00195406
-0.000357609
-0.000361799
-0.000363824
-0.000366127
-0.000368309
-0.000369847
-0.000369822
-0.000366782
-0.000358531
-0.000341807
-0.000311801
-0.000261451
-0.000180428
-5.3658e-05
0.000129689
0.000410797
0.000824036
0.00138135
0.00206553
0.00241721
-0.000422986
-0.000427903
-0.000431193
-0.000436423
-0.000443437
-0.000452065
-0.000461767
-0.000471554
-0.0004798
-0.000483901
-0.00047975
-0.000460857
-0.000416912
-0.000331624
-0.000181484
4.89872e-05
0.000487502
0.00118408
0.00232455
0.00293476
-0.000494821
-0.00049954
-0.000502753
-0.00051001
-0.000521394
-0.000537157
-0.000557267
-0.000581426
-0.000608967
-0.000638615
-0.000668111
-0.000693457
-0.000707556
-0.000697712
-0.000639722
-0.000485526
-0.000232365
0.000397653
0.00189252
0.00314765
-0.000575941
-0.000578588
-0.00057846
-0.000585639
-0.000600062
-0.000622187
-0.000652455
-0.000691388
-0.000739595
-0.000797694
-0.00086651
-0.000946987
-0.00103992
-0.00114633
-0.00127167
-0.00144362
-0.00169305
-0.00170029
-0.000696974
0.00220297
-0.000672401
-0.000666842
-0.00065752
-0.000661679
-0.00067683
-0.000703564
-0.00074257
-0.000795132
-0.000863242
-0.000949393
-0.00105797
-0.00119638
-0.00137586
-0.00161777
-0.00197301
-0.00257654
-0.00359956
-0.00471873
-0.00513542
-0.000288678
-0.000806796
-0.000767943
-0.000742457
-0.000737497
-0.000749933
-0.000778539
-0.000823556
-0.000886728
-0.000970697
-0.00108071
-0.00122365
-0.00141411
-0.00167304
-0.00204323
-0.00260308
-0.00359423
-0.00544789
-0.00726782
-0.00893477
-0.00297086
-0.00101149
-0.000877739
-0.000827567
-0.000811155
-0.000817273
-0.000843457
-0.000890321
-0.00095922
-0.00105216
-0.00117945
-0.00134386
-0.00156807
-0.00186834
-0.00230815
-0.00297661
-0.00396807
-0.00635151
-0.00807543
-0.00974829
-0.00222202
-0.0014616
-0.00111394
-0.000996631
-0.000928222
-0.00091406
-0.000931926
-0.000975118
-0.00104512
-0.00113689
-0.00127766
-0.00142925
-0.00167408
-0.00196227
-0.00240835
-0.00305787
-0.00411241
-0.00596967
-0.00759125
-0.00524325
0.00828688
-0.00244975
-0.000596573
-0.000542394
-0.000629869
-0.000683741
-0.000727859
-0.000789867
-0.000884633
-0.000994101
-0.00115349
-0.00133115
-0.0015546
-0.00189593
-0.00229366
-0.0029054
-0.00366148
-0.00435142
-0.0023776
0.00853796
0.0311104
)
;

boundaryField
{
    movingWall
    {
        type            zeroGradient;
    }
    fixedWalls
    {
        type            zeroGradient;
    }
    frontAndBack
    {
        type            empty;
    }
}


// ************************************************************************* //
