/*--------------------------------*- C++ -*----------------------------------*\
  =========                 |
  \\      /  F ield         | OpenFOAM: The Open Source CFD Toolbox
   \\    /   O peration     | Website:  https://openfoam.org
    \\  /    A nd           | Version:  12
     \\/     M anipulation  |
\*---------------------------------------------------------------------------*/
FoamFile
{
    format      ascii;
    class       surfaceScalarField;
    location    "0.5";
    object      phi;
}
// * * * * * * * * * * * * * * * * * * * * * * * * * * * * * * * * * * * * * //

dimensions      [0 3 -1 0 0 0 0];

internalField   nonuniform List<scalar> 
760
(
-2.33754e-08
2.33741e-08
-5.1973e-08
2.85975e-08
-8.01187e-08
2.81457e-08
-1.07034e-07
2.69153e-08
-1.32251e-07
2.52165e-08
-1.55293e-07
2.30425e-08
-1.75664e-07
2.03707e-08
-1.92834e-07
1.71703e-08
-2.06225e-07
1.33903e-08
-2.15203e-07
8.97869e-09
-2.19316e-07
4.11314e-09
-2.17867e-07
-1.44911e-09
-2.10281e-07
-7.58664e-09
-1.96175e-07
-1.41056e-08
-1.75387e-07
-2.07881e-08
-1.48064e-07
-2.73234e-08
-1.1476e-07
-3.33041e-08
-7.65259e-08
-3.82337e-08
-3.53877e-08
-4.11383e-08
-3.53877e-08
-2.96282e-08
5.30022e-08
-6.51418e-08
6.41111e-08
-1.00004e-07
6.30079e-08
-1.33237e-07
6.01485e-08
-1.64234e-07
5.62129e-08
-1.92398e-07
5.12069e-08
-2.17124e-07
4.50962e-08
-2.37784e-07
3.78307e-08
-2.5374e-07
2.93465e-08
-2.64363e-07
1.96014e-08
-2.68896e-07
8.64546e-09
-2.66696e-07
-3.64916e-09
-2.571e-07
-1.71821e-08
-2.39681e-07
-3.15246e-08
-2.14226e-07
-4.62435e-08
-1.80893e-07
-6.0656e-08
-1.40326e-07
-7.3871e-08
-9.37764e-08
-8.47838e-08
-4.36683e-08
-9.12464e-08
-7.9056e-08
-3.09129e-08
8.39151e-08
-6.79975e-08
1.01196e-07
-1.04398e-07
9.94083e-08
-1.39128e-07
9.48789e-08
-1.71582e-07
8.86669e-08
-2.01168e-07
8.07928e-08
-2.27286e-07
7.12134e-08
-2.49313e-07
5.98576e-08
-2.66601e-07
4.66349e-08
-2.78465e-07
3.1465e-08
-2.84162e-07
1.43431e-08
-2.82912e-07
-4.89939e-09
-2.73905e-07
-2.61893e-08
-2.56542e-07
-4.88879e-08
-2.30422e-07
-7.23632e-08
-1.95518e-07
-9.55603e-08
-1.52346e-07
-1.17043e-07
-1.02175e-07
-1.34954e-07
-4.76994e-08
-1.45723e-07
-1.26755e-07
-3.22312e-08
1.16146e-07
-7.09838e-08
1.39948e-07
-1.09055e-07
1.37479e-07
-1.45454e-07
1.31278e-07
-1.79593e-07
1.22806e-07
-2.10903e-07
1.12103e-07
-2.3881e-07
9.91197e-08
-2.62708e-07
8.37564e-08
-2.81948e-07
6.5874e-08
-2.95804e-07
4.5321e-08
-3.03476e-07
2.20157e-08
-3.04107e-07
-4.26852e-09
-2.96538e-07
-3.3758e-08
-2.79908e-07
-6.55188e-08
-2.53451e-07
-9.88199e-08
-2.16779e-07
-1.32232e-07
-1.70146e-07
-1.63676e-07
-1.14787e-07
-1.90312e-07
-5.38183e-08
-2.06692e-07
-1.80574e-07
-3.40089e-08
1.50155e-07
-7.49921e-08
1.80932e-07
-1.1529e-07
1.77777e-07
-1.53907e-07
1.69895e-07
-1.90279e-07
1.59178e-07
-2.23878e-07
1.45702e-07
-2.54172e-07
1.29414e-07
-2.80597e-07
1.10182e-07
-3.0252e-07
8.77969e-08
-3.19195e-07
6.19961e-08
-3.29737e-07
3.2557e-08
-3.33238e-07
-7.67322e-10
-3.28043e-07
-3.89533e-08
-3.12911e-07
-8.06505e-08
-2.86499e-07
-1.25232e-07
-2.47788e-07
-1.70944e-07
-1.96508e-07
-2.14956e-07
-1.33711e-07
-2.5311e-07
-6.3086e-08
-2.77317e-07
-2.4366e-07
-3.62813e-08
1.86436e-07
-8.00981e-08
2.24748e-07
-1.23201e-07
2.20881e-07
-1.64585e-07
2.11278e-07
-2.03723e-07
1.98316e-07
-2.40146e-07
1.82125e-07
-2.73399e-07
1.62666e-07
-3.02994e-07
1.39777e-07
-3.28357e-07
1.1316e-07
-3.48757e-07
8.23964e-08
-3.63234e-07
4.70335e-08
-3.70847e-07
6.84613e-09
-3.69396e-07
-4.04051e-08
-3.5708e-07
-9.29665e-08
-3.31688e-07
-1.50624e-07
-2.91147e-07
-2.11485e-07
-2.34179e-07
-2.71924e-07
-1.61264e-07
-3.26024e-07
-7.67419e-08
-3.61839e-07
-3.20402e-07
-3.90753e-08
2.25512e-07
-8.63446e-08
2.72018e-07
-1.32825e-07
2.67361e-07
-1.77492e-07
2.55946e-07
-2.19872e-07
2.40696e-07
-2.59584e-07
2.21837e-07
-2.96293e-07
1.99375e-07
-3.29647e-07
1.7313e-07
-3.59199e-07
1.42712e-07
-3.84318e-07
1.07515e-07
-4.04077e-07
6.67927e-08
-4.17133e-07
1.99022e-08
-4.21516e-07
-3.6023e-08
-4.14194e-07
-1.00288e-07
-3.91813e-07
-1.73005e-07
-3.50623e-07
-2.52675e-07
-2.87434e-07
-3.35113e-07
-2.01284e-07
-4.12174e-07
-9.69001e-08
-4.66223e-07
-4.17302e-07
-4.24428e-08
2.67955e-07
-9.3816e-08
3.23391e-07
-1.44242e-07
3.17786e-07
-1.92663e-07
3.04368e-07
-2.38675e-07
2.86708e-07
-2.82026e-07
2.65189e-07
-3.22561e-07
2.3991e-07
-3.60138e-07
2.10707e-07
-3.94537e-07
1.77111e-07
-4.2533e-07
1.38308e-07
-4.51724e-07
9.31866e-08
-4.72313e-07
4.04914e-08
-4.85248e-07
-2.30885e-08
-4.86241e-07
-9.92944e-08
-4.70476e-07
-1.8877e-07
-4.31635e-07
-2.91516e-07
-3.6304e-07
-4.03708e-07
-2.60336e-07
-5.14877e-07
-1.27312e-07
-5.99247e-07
-5.44614e-07
-4.64771e-08
3.14432e-07
-1.02679e-07
3.79593e-07
-1.57627e-07
3.72734e-07
-2.1021e-07
3.56952e-07
-2.6012e-07
3.36617e-07
-3.07288e-07
3.12357e-07
-3.51811e-07
2.84432e-07
-3.93858e-07
2.52755e-07
-4.33564e-07
2.16816e-07
-4.70874e-07
1.75618e-07
-5.05331e-07
1.27644e-07
-5.35669e-07
7.08298e-08
-5.60847e-07
2.0896e-09
-5.74983e-07
-8.51585e-08
-5.71925e-07
-1.91829e-07
-5.41725e-07
-3.21716e-07
-4.71753e-07
-4.7368e-07
-3.50056e-07
-6.36574e-07
-1.74983e-07
-7.7432e-07
-7.19597e-07
-5.13542e-08
3.65786e-07
-1.13248e-07
4.41487e-07
-1.73313e-07
4.32799e-07
-2.30383e-07
4.14021e-07
-2.84283e-07
3.90517e-07
-3.35199e-07
3.63272e-07
-3.83569e-07
3.32802e-07
-4.29987e-07
2.99173e-07
-4.75094e-07
2.61923e-07
-5.19439e-07
2.19964e-07
-5.63266e-07
1.71471e-07
-6.06129e-07
1.13693e-07
-6.46596e-07
4.25562e-08
-6.81061e-07
-5.06931e-08
-7.00387e-07
-1.72502e-07
-6.90794e-07
-3.31309e-07
-6.30561e-07
-5.33914e-07
-4.9185e-07
-7.75285e-07
-2.54009e-07
-1.01216e-06
-9.73606e-07
-5.73951e-08
4.23181e-07
-1.26074e-07
5.10166e-07
-1.91894e-07
4.98619e-07
-2.53657e-07
4.75784e-07
-3.11401e-07
4.48262e-07
-3.65662e-07
4.17533e-07
-4.17321e-07
3.84462e-07
-4.67508e-07
3.4936e-07
-5.17521e-07
3.11937e-07
-5.68747e-07
2.7119e-07
-6.22512e-07
2.25236e-07
-6.79617e-07
1.70798e-07
-7.39721e-07
1.0266e-07
-8.02864e-07
1.24493e-08
-8.58304e-07
-1.17062e-07
-8.90252e-07
-2.9936e-07
-8.65407e-07
-5.58759e-07
-7.25888e-07
-9.14803e-07
-3.94701e-07
-1.34335e-06
-1.36831e-06
-6.5175e-08
4.88356e-07
-1.42109e-07
5.871e-07
-2.14374e-07
5.70884e-07
-2.80856e-07
5.42266e-07
-3.41969e-07
5.09375e-07
-3.98738e-07
4.74302e-07
-4.52596e-07
4.38319e-07
-5.05288e-07
4.02051e-07
-5.58871e-07
3.6552e-07
-6.15751e-07
3.28069e-07
-6.7871e-07
2.88195e-07
-7.50861e-07
2.42949e-07
-8.34867e-07
1.86666e-07
-9.31961e-07
1.09543e-07
-1.04197e-06
-7.05127e-09
-1.14881e-06
-1.92519e-07
-1.21046e-06
-4.97112e-07
-1.12213e-06
-1.00314e-06
-6.6346e-07
-1.80201e-06
-2.03177e-06
-7.56637e-08
5.6402e-07
-1.62983e-07
6.74419e-07
-2.42401e-07
6.50303e-07
-3.1331e-07
6.13175e-07
-3.76849e-07
5.72913e-07
-4.34749e-07
5.32203e-07
-4.89092e-07
4.92662e-07
-5.42264e-07
4.55223e-07
-5.97062e-07
4.20319e-07
-6.56928e-07
3.87935e-07
-7.2629e-07
3.57558e-07
-8.1096e-07
3.27619e-07
-9.18265e-07
2.93971e-07
-1.05626e-06
2.47541e-07
-1.23401e-06
1.70699e-07
-1.46054e-06
3.40035e-08
-1.68546e-06
-2.72186e-07
-1.74818e-06
-9.40415e-07
-1.18603e-06
-2.36417e-06
-3.2178e-06
-9.10894e-08
6.55109e-07
-1.91645e-07
7.74975e-07
-2.78568e-07
7.37225e-07
-3.53011e-07
6.87618e-07
-4.17359e-07
6.37261e-07
-4.74353e-07
5.89197e-07
-5.2681e-07
5.45119e-07
-5.7767e-07
5.06084e-07
-6.30254e-07
4.72903e-07
-6.88734e-07
4.46415e-07
-7.58883e-07
4.27707e-07
-8.49296e-07
4.18032e-07
-9.73161e-07
4.17836e-07
-1.15011e-06
4.2449e-07
-1.40916e-06
4.29751e-07
-1.77959e-06
4.04437e-07
-2.27018e-06
2.18398e-07
-2.59653e-06
-6.14067e-07
-1.95321e-06
-3.00748e-06
-5.17101e-06
-1.12819e-07
7.67929e-07
-2.32474e-07
8.9463e-07
-3.26861e-07
8.31613e-07
-4.02701e-07
7.63458e-07
-4.6524e-07
6.998e-07
-5.18545e-07
6.42501e-07
-5.6616e-07
5.92734e-07
-6.11349e-07
5.51273e-07
-6.5749e-07
5.19044e-07
-7.08715e-07
4.9764e-07
-7.71015e-07
4.90007e-07
-8.54273e-07
5.0129e-07
-9.75441e-07
5.39003e-07
-1.16552e-06
6.14568e-07
-1.47772e-06
7.4195e-07
-1.97975e-06
9.06472e-07
-2.62355e-06
8.62197e-07
-2.99076e-06
-2.46856e-07
-2.32114e-06
-3.67711e-06
-7.49215e-06
-1.63494e-07
9.31422e-07
-2.98538e-07
1.02967e-06
-3.93515e-07
9.26591e-07
-4.65944e-07
8.35887e-07
-5.22357e-07
7.56213e-07
-5.6827e-07
6.88414e-07
-6.07711e-07
6.32175e-07
-6.43791e-07
5.87352e-07
-6.79284e-07
5.54537e-07
-7.17219e-07
5.35575e-07
-7.61936e-07
5.34725e-07
-8.22101e-07
5.61454e-07
-9.14073e-07
6.30976e-07
-1.06975e-06
7.70248e-07
-1.33577e-06
1.00796e-06
-1.75829e-06
1.32899e-06
-2.26729e-06
1.3712e-06
-2.29906e-06
-2.15087e-07
-1.63436e-06
-4.34181e-06
-9.1265e-06
-2.12739e-07
1.14416e-06
-3.79442e-07
1.19638e-06
-4.75503e-07
1.02265e-06
-5.42956e-07
9.0334e-07
-5.92013e-07
8.0527e-07
-6.28265e-07
7.24666e-07
-6.56812e-07
6.60722e-07
-6.80701e-07
6.11241e-07
-7.01206e-07
5.75042e-07
-7.19043e-07
5.53412e-07
-7.34532e-07
5.50213e-07
-7.49579e-07
5.76501e-07
-7.64974e-07
6.46372e-07
-7.99827e-07
8.05101e-07
-8.75067e-07
1.0832e-06
-9.77123e-07
1.43105e-06
-1.19481e-06
1.58889e-06
-1.24096e-06
-1.68937e-07
-7.23881e-07
-4.85889e-06
-9.85039e-06
-4.88179e-07
1.63234e-06
-6.01584e-07
1.30978e-06
-6.36685e-07
1.05775e-06
-6.53437e-07
9.20091e-07
-6.62165e-07
8.13999e-07
-6.65862e-07
7.28363e-07
-6.67872e-07
6.62733e-07
-6.69547e-07
6.12916e-07
-6.69628e-07
5.75123e-07
-6.67018e-07
5.50803e-07
-6.47344e-07
5.3054e-07
-6.15779e-07
5.44936e-07
-5.41816e-07
5.72409e-07
-4.24707e-07
6.87992e-07
-2.39962e-07
8.98459e-07
-3.48797e-08
1.22597e-06
4.05128e-07
1.14888e-06
5.14251e-07
-2.78059e-07
4.66052e-07
-4.81069e-06
-9.38433e-06
-6.51975e-07
2.28431e-06
-5.85366e-07
1.24317e-06
-4.76755e-07
9.49142e-07
-3.84951e-07
8.28287e-07
-3.07553e-07
7.36601e-07
-2.35511e-07
6.5632e-07
-1.66312e-07
5.93534e-07
-9.89476e-08
5.45552e-07
-2.68995e-08
5.03075e-07
4.10277e-08
4.82876e-07
1.36916e-07
4.34652e-07
2.33916e-07
4.47936e-07
4.10002e-07
3.96322e-07
6.33321e-07
4.64673e-07
1.0837e-06
4.48084e-07
1.74595e-06
5.63707e-07
2.66665e-06
2.2819e-07
3.20224e-06
-8.13656e-07
2.36427e-06
-3.97272e-06
-7.02007e-06
2.28431e-06
3.52749e-06
4.47663e-06
5.30492e-06
6.04152e-06
6.69784e-06
7.29137e-06
7.83692e-06
8.34e-06
8.82287e-06
9.25753e-06
9.70546e-06
1.01018e-05
1.05665e-05
1.10145e-05
1.15782e-05
1.18064e-05
1.09928e-05
7.02007e-06
)
;

boundaryField
{
    movingWall
    {
        type            calculated;
        value           uniform 0;
    }
    fixedWalls
    {
        type            calculated;
        value           uniform 0;
    }
    frontAndBack
    {
        type            empty;
    }
}


// ************************************************************************* //
