/*--------------------------------*- C++ -*----------------------------------*\
  =========                 |
  \\      /  F ield         | OpenFOAM: The Open Source CFD Toolbox
   \\    /   O peration     | Website:  https://openfoam.org
    \\  /    A nd           | Version:  12
     \\/     M anipulation  |
\*---------------------------------------------------------------------------*/
FoamFile
{
    format      ascii;
    class       volVectorField;
    location    "0.5";
    object      U;
}
// * * * * * * * * * * * * * * * * * * * * * * * * * * * * * * * * * * * * * //

dimensions      [0 1 -1 0 0 0 0];

internalField   nonuniform List<vector> 
400
(
(-0.000224019 0.000221267 0)
(-0.000744293 0.000272066 0)
(-0.00132353 0.000268119 0)
(-0.001876 0.000256808 0)
(-0.00239842 0.000241131 0)
(-0.0028821 0.000220968 0)
(-0.00331721 0.000196052 0)
(-0.00369334 0.000165999 0)
(-0.00400011 0.000129962 0)
(-0.00422662 8.71528e-05 0)
(-0.00435428 4.35428e-05 0)
(-0.00438404 -1.08865e-05 0)
(-0.00429289 -7.01968e-05 0)
(-0.0040757 -0.00013295 0)
(-0.00372624 -0.000197328 0)
(-0.00324417 -0.000260362 0)
(-0.00263648 -0.000318067 0)
(-0.00191816 -0.000365667 0)
(-0.00111218 -0.000393822 0)
(-0.000345234 -0.000338292 0)
(-0.000285048 0.000749388 0)
(-0.000937498 0.000910811 0)
(-0.00165545 0.000895789 0)
(-0.00233887 0.000855946 0)
(-0.00298274 0.000801001 0)
(-0.00357586 0.000730879 0)
(-0.00410611 0.000644965 0)
(-0.00456114 0.000542416 0)
(-0.0049284 0.000422034 0)
(-0.00519514 0.000282867 0)
(-0.0053474 0.000125799 0)
(-0.00537125 -4.95799e-05 0)
(-0.00525334 -0.000242594 0)
(-0.0049831 -0.000447894 0)
(-0.00455361 -0.000658553 0)
(-0.00396439 -0.000864701 0)
(-0.00322348 -0.00105355 0)
(-0.00234844 -0.00120932 0)
(-0.00136697 -0.00130141 0)
(-0.00042666 -0.00112479 0)
(-0.000297225 0.00136588 0)
(-0.000978355 0.00164885 0)
(-0.00172826 0.00162008 0)
(-0.00244212 0.00154644 0)
(-0.0031156 0.00144527 0)
(-0.00373754 0.00131678 0)
(-0.00429596 0.00116018 0)
(-0.00477863 0.00097424 0)
(-0.00517287 0.000757375 0)
(-0.00546538 0.000508236 0)
(-0.00564188 0.000226448 0)
(-0.00568703 -8.81009e-05 0)
(-0.00558482 -0.000433225 0)
(-0.00532113 -0.000801655 0)
(-0.00488581 -0.00118169 0)
(-0.00427444 -0.00155577 0)
(-0.00349178 -0.00190052 0)
(-0.00255417 -0.00218655 0)
(-0.00149155 -0.00235745 0)
(-0.00046645 -0.00204811 0)
(-0.000309679 0.00199738 0)
(-0.00102064 0.00240703 0)
(-0.00180487 0.00236459 0)
(-0.00255219 0.00225753 0)
(-0.0032592 0.00211095 0)
(-0.00391523 0.00192542 0)
(-0.00450877 0.00169997 0)
(-0.00502806 0.00143287 0)
(-0.00546057 0.00112179 0)
(-0.0057926 0.000764257 0)
(-0.00600896 0.000358375 0)
(-0.00609303 -9.63863e-05 0)
(-0.00602445 -0.000599355 0)
(-0.00578298 -0.00114119 0)
(-0.00535218 -0.00170628 0)
(-0.00472024 -0.00226939 0)
(-0.00388553 -0.00279502 0)
(-0.00286103 -0.00323664 0)
(-0.00167985 -0.00350551 0)
(-0.000527021 -0.00305792 0)
(-0.00032654 0.00265862 0)
(-0.00107751 0.00320286 0)
(-0.00190756 0.00314684 0)
(-0.00269942 0.00300639 0)
(-0.00345093 0.00281489 0)
(-0.00415214 0.00257344 0)
(-0.00479239 0.00228097 0)
(-0.0053608 0.00193511 0)
(-0.00584544 0.00153232 0)
(-0.0062326 0.00106824 0)
(-0.00650606 0.000538583 0)
(-0.006648 -5.9481e-05 0)
(-0.00663252 -0.000728056 0)
(-0.00643057 -0.00145857 0)
(-0.00601618 -0.00223338 0)
(-0.00536525 -0.00302016 0)
(-0.00446432 -0.00376922 0)
(-0.00331856 -0.0044109 0)
(-0.00196391 -0.00481219 0)
(-0.000618976 -0.00421886 0)
(-0.00034814 0.00336043 0)
(-0.0011501 0.00404944 0)
(-0.00203813 0.00397957 0)
(-0.00288581 0.00380527 0)
(-0.00369262 0.00356903 0)
(-0.00444965 0.00327281 0)
(-0.00514763 0.00291562 0)
(-0.00577723 0.00249444 0)
(-0.00632795 0.00200411 0)
(-0.00678683 0.00143752 0)
(-0.00713714 0.000786411 0)
(-0.00736012 4.27649e-05 0)
(-0.00742407 -0.000797177 0)
(-0.00728888 -0.00173393 0)
(-0.00691445 -0.00275045 0)
(-0.0062572 -0.0038095 0)
(-0.00528262 -0.00484584 0)
(-0.0039788 -0.00575839 0)
(-0.00238046 -0.00635036 0)
(-0.000754808 -0.00560501 0)
(-0.000374762 0.00411282 0)
(-0.00123913 0.00495891 0)
(-0.00219744 0.00487418 0)
(-0.00311183 0.0046648 0)
(-0.00398382 0.00438343 0)
(-0.00480601 0.00403351 0)
(-0.00557125 0.00361461 0)
(-0.00627283 0.0031232 0)
(-0.00690291 0.00255224 0)
(-0.00745086 0.0018911 0)
(-0.00790136 0.00112606 0)
(-0.00823214 0.000241603 0)
(-0.00840997 -0.000773253 0)
(-0.0083847 -0.00193332 0)
(-0.00809277 -0.00322871 0)
(-0.00746236 -0.00462389 0)
(-0.00642249 -0.00604019 0)
(-0.00492559 -0.00733563 0)
(-0.00299152 -0.00821866 0)
(-0.000955846 -0.00732146 0)
(-0.000407137 0.0049267 0)
(-0.00134594 0.00594394 0)
(-0.00238732 0.00584208 0)
(-0.00337877 0.00559488 0)
(-0.00432447 0.00526681 0)
(-0.00521909 0.0048638 0)
(-0.00605864 0.00438671 0)
(-0.00684037 0.003832 0)
(-0.00756088 0.00319085 0)
(-0.00821389 0.00244858 0)
(-0.00878755 0.00158463 0)
(-0.00926039 0.000573772 0)
(-0.00960028 -0.000610254 0)
(-0.0097458 -0.00200365 0)
(-0.00960669 -0.00361423 0)
(-0.00907141 -0.00542315 0)
(-0.00800812 -0.00734936 0)
(-0.0062977 -0.00920501 0)
(-0.00390596 -0.0105581 0)
(-0.00125992 -0.00952781 0)
(-0.000446558 0.00581456 0)
(-0.00147306 0.00701816 0)
(-0.00261146 0.0068948 0)
(-0.00368965 0.00660441 0)
(-0.00471567 0.00622588 0)
(-0.00568698 0.00576905 0)
(-0.00660404 0.00523735 0)
(-0.0074698 0.00462809 0)
(-0.00828758 0.00393123 0)
(-0.00905844 0.00312803 0)
(-0.00977764 0.00218992 0)
(-0.0104287 0.00107813 0)
(-0.0109896 -0.000256205 0)
(-0.0113912 -0.00186663 0)
(-0.0115151 -0.00381409 0)
(-0.0112019 -0.00611872 0)
(-0.0102252 -0.00872717 0)
(-0.00832998 -0.011421 0)
(-0.00532394 -0.0135767 0)
(-0.00173763 -0.0124803 0)
(-0.000494896 0.00679133 0)
(-0.00162573 0.0081976 0)
(-0.00287668 0.00804418 0)
(-0.00405057 0.00770087 0)
(-0.00516085 0.00726439 0)
(-0.00620882 0.00675053 0)
(-0.00720099 0.00616688 0)
(-0.00814807 0.00551306 0)
(-0.00906275 0.00477907 0)
(-0.00995723 0.00394324 0)
(-0.0108397 0.00296947 0)
(-0.0117093 0.00180416 0)
(-0.0125486 0.00037268 0)
(-0.0133082 -0.0014073 0)
(-0.0138639 -0.00367786 0)
(-0.0139919 -0.00653806 0)
(-0.013343 -0.010032 0)
(-0.0114274 -0.0139849 0)
(-0.00763385 -0.01759 0)
(-0.00253485 -0.0166144 0)
(-0.000555806 0.00787711 0)
(-0.00181309 0.00950192 0)
(-0.00319501 0.00930276 0)
(-0.00447261 0.00888985 0)
(-0.00566739 0.00838205 0)
(-0.00678611 0.0078037 0)
(-0.00784338 0.00716845 0)
(-0.00885979 0.00647999 0)
(-0.00985993 0.00573049 0)
(-0.010871 0.00489814 0)
(-0.0119202 0.00394273 0)
(-0.0130299 0.00279878 0)
(-0.0142069 0.0013662 0)
(-0.0154499 -0.00049716 0)
(-0.0166561 -0.00298299 0)
(-0.0175707 -0.00637232 0)
(-0.0177257 -0.0109232 0)
(-0.0162905 -0.0167159 0)
(-0.0116089 -0.0230724 0)
(-0.00403005 -0.0227177 0)
(-0.000636021 0.00910049 0)
(-0.00205127 0.010957 0)
(-0.00358709 0.0106843 0)
(-0.00497469 0.0101741 0)
(-0.0062488 0.00957296 0)
(-0.00742454 0.00891634 0)
(-0.00852715 0.00822563 0)
(-0.00958888 0.00751024 0)
(-0.0106479 0.00676722 0)
(-0.011749 0.00597896 0)
(-0.012944 0.00510786 0)
(-0.0142925 0.00408589 0)
(-0.0158541 0.00279668 0)
(-0.0176718 0.00104886 0)
(-0.0197609 -0.00143065 0)
(-0.0219675 -0.00510752 0)
(-0.0237827 -0.0106808 0)
(-0.0240613 -0.0189698 0)
(-0.018587 -0.0304587 0)
(-0.00756179 -0.0323122 0)
(-0.000746803 0.0105094 0)
(-0.00236764 0.0125986 0)
(-0.00408769 0.012203 0)
(-0.00558749 0.0115516 0)
(-0.00692744 0.0108233 0)
(-0.00813612 0.0100664 0)
(-0.00925255 0.00931036 0)
(-0.0103218 0.00857095 0)
(-0.0113955 0.00785239 0)
(-0.0125355 0.00714692 0)
(-0.0138199 0.00643016 0)
(-0.0153504 0.00564989 0)
(-0.0172584 0.00470183 0)
(-0.0197014 0.00338272 0)
(-0.0228566 0.00131505 0)
(-0.0269065 -0.00214023 0)
(-0.0317259 -0.00813894 0)
(-0.036022 -0.0193941 0)
(-0.0296702 -0.0393478 0)
(-0.0168939 -0.0481793 0)
(-0.000917711 0.012165 0)
(-0.00281807 0.0144842 0)
(-0.0047545 0.0138741 0)
(-0.00635809 0.013011 0)
(-0.00773683 0.0121075 0)
(-0.00894067 0.0112199 0)
(-0.0100262 0.0103821 0)
(-0.0110511 0.00961438 0)
(-0.012077 0.00892888 0)
(-0.0131775 0.00833301 0)
(-0.0144494 0.0078286 0)
(-0.0160331 0.00740465 0)
(-0.0181423 0.00701641 0)
(-0.0210985 0.00653604 0)
(-0.0253667 0.00564281 0)
(-0.0315814 0.00362481 0)
(-0.0409616 -0.00140445 0)
(-0.052092 -0.0150948 0)
(-0.0460138 -0.0493089 0)
(-0.028168 -0.0770637 0)
(-0.00114141 0.0142543 0)
(-0.0034611 0.0166472 0)
(-0.00568463 0.0156818 0)
(-0.00735576 0.0145238 0)
(-0.00872205 0.0133846 0)
(-0.00986545 0.0123291 0)
(-0.0108624 0.0113878 0)
(-0.0117798 0.0105792 0)
(-0.0126825 0.00992054 0)
(-0.0136429 0.00943556 0)
(-0.0147578 0.00916091 0)
(-0.0161769 0.00915116 0)
(-0.0181514 0.00946976 0)
(-0.0211231 0.0101681 0)
(-0.0258625 0.0112203 0)
(-0.0338797 0.0121848 0)
(-0.0474855 0.00976443 0)
(-0.0619165 -0.00848477 0)
(-0.0565468 -0.0670229 0)
(-0.0239108 -0.124453 0)
(-0.00181935 0.0168666 0)
(-0.00465192 0.0193435 0)
(-0.0070622 0.0176914 0)
(-0.00867526 0.0160396 0)
(-0.00993493 0.0145975 0)
(-0.0109369 0.0133407 0)
(-0.0117757 0.0122744 0)
(-0.0125192 0.0114058 0)
(-0.0132234 0.0107496 0)
(-0.0139427 0.0103421 0)
(-0.0147436 0.0102611 0)
(-0.0157424 0.0106554 0)
(-0.0171612 0.0117664 0)
(-0.0194039 0.0140008 0)
(-0.0231801 0.0178356 0)
(-0.0302056 0.0229686 0)
(-0.0424795 0.022922 0)
(-0.0533502 -0.00399866 0)
(-0.0515074 -0.087008 0)
(0.00361844 -0.175965 0)
(-0.00185606 0.0210482 0)
(-0.00623255 0.021793 0)
(-0.00876869 0.0193416 0)
(-0.0103126 0.0174067 0)
(-0.0114283 0.0156418 0)
(-0.012245 0.0141546 0)
(-0.0128719 0.012947 0)
(-0.0133838 0.0120002 0)
(-0.0138188 0.0113132 0)
(-0.0141836 0.0109207 0)
(-0.0144906 0.0108767 0)
(-0.0147566 0.0114225 0)
(-0.0149557 0.0128443 0)
(-0.0151754 0.0158239 0)
(-0.0155769 0.0209006 0)
(-0.0181546 0.0272002 0)
(-0.0245679 0.0277843 0)
(-0.0244848 -0.00699513 0)
(-0.0389661 -0.0989305 0)
(0.0239688 -0.205692 0)
(-0.00628819 0.0263974 0)
(-0.0119927 0.0273007 0)
(-0.012641 0.0225471 0)
(-0.0130024 0.0192903 0)
(-0.0132002 0.0169816 0)
(-0.0132999 0.0152021 0)
(-0.013343 0.0138139 0)
(-0.0133683 0.0127318 0)
(-0.0133784 0.0119178 0)
(-0.0133631 0.0114143 0)
(-0.0131446 0.0112002 0)
(-0.012597 0.0116994 0)
(-0.0114903 0.0128216 0)
(-0.00950137 0.0160935 0)
(-0.00633809 0.0218959 0)
(-0.000879856 0.0301044 0)
(-0.00226138 0.0340488 0)
(0.0204347 0.00193135 0)
(-0.00844029 -0.111407 0)
(0.0389956 -0.217106 0)
(-0.00956459 0.0411312 0)
(-0.0142409 0.0211123 0)
(-0.0102844 0.0163797 0)
(-0.00871089 0.0149752 0)
(-0.00697476 0.0134835 0)
(-0.00545122 0.0120675 0)
(-0.00401495 0.0110056 0)
(-0.00263818 0.0102618 0)
(-0.00124811 0.00971728 0)
(5.64171e-05 0.00935076 0)
(0.00174199 0.00901107 0)
(0.0034949 0.0089524 0)
(0.00639474 0.00938869 0)
(0.0102826 0.0105958 0)
(0.0163258 0.0135597 0)
(0.0293477 0.0168922 0)
(0.0354968 0.00934667 0)
(0.0591789 -0.0172643 0)
(0.0492094 -0.098338 0)
(0.0785102 -0.179158 0)
(0.0473866 0.0438444 0)
(0.0546526 0.0332267 0)
(0.0780757 0.0256254 0)
(0.0984515 0.0212643 0)
(0.114283 0.0185583 0)
(0.127929 0.0164777 0)
(0.140052 0.0148065 0)
(0.151523 0.0134083 0)
(0.161983 0.0120584 0)
(0.171515 0.0114699 0)
(0.181771 0.00961839 0)
(0.188957 0.0103686 0)
(0.19986 0.00745949 0)
(0.206103 0.00944133 0)
(0.215315 0.00589129 0)
(0.222122 0.00869377 0)
(0.230545 0.00304436 0)
(0.225863 -0.00406811 0)
(0.200449 -0.0210254 0)
(0.144882 -0.0329886 0)
)
;

boundaryField
{
    movingWall
    {
        type            fixedValue;
        value           uniform (1 0 0);
    }
    fixedWalls
    {
        type            noSlip;
    }
    frontAndBack
    {
        type            empty;
    }
}


// ************************************************************************* //
