/*--------------------------------*- C++ -*----------------------------------*\
  =========                 |
  \\      /  F ield         | OpenFOAM: The Open Source CFD Toolbox
   \\    /   O peration     | Website:  https://openfoam.org
    \\  /    A nd           | Version:  12
     \\/     M anipulation  |
\*---------------------------------------------------------------------------*/
FoamFile
{
    format      ascii;
    class       volScalarField;
    location    "17.94";
    object      p;
}
// * * * * * * * * * * * * * * * * * * * * * * * * * * * * * * * * * * * * * //

dimensions      [1 -1 -2 0 0 0 0];

internalField   nonuniform List<scalar> 
3829
(
-617.018
-617.017
-617.015
-617.012
-617.008
-617.003
-616.996
-616.988
-616.979
-616.968
-616.956
-616.942
-616.927
-616.909
-616.89
-616.869
-616.846
-616.821
-616.793
-616.764
-616.732
-616.697
-616.661
-616.622
-616.581
-616.538
-616.492
-616.445
-616.395
-616.344
-616.291
-616.237
-616.182
-616.125
-616.068
-616.011
-615.954
-615.897
-615.84
-615.784
-615.73
-615.677
-615.626
-615.577
-615.531
-615.487
-615.446
-615.409
-615.375
-615.344
-615.316
-615.293
-615.272
-615.256
-615.243
-615.233
-615.227
-615.223
-615.222
-615.224
-615.228
-615.234
-615.241
-615.248
-615.256
-615.264
-615.271
-615.277
-615.28
-615.281
-615.28
-615.274
-615.265
-615.251
-615.232
-615.209
-615.18
-615.145
-615.104
-615.059
-615.008
-614.952
-614.892
-614.828
-614.761
-614.692
-614.621
-614.55
-614.48
-614.411
-614.345
-614.284
-614.227
-614.177
-614.134
-614.099
-614.073
-614.056
-614.049
-614.053
-614.067
-614.09
-614.122
-614.162
-614.208
-614.259
-614.313
-614.373
-614.428
-614.481
-614.529
-614.571
-614.604
-614.627
-614.638
-614.637
-614.623
-614.595
-614.555
-614.504
-614.444
-614.377
-614.306
-614.229
-614.159
-614.094
-614.038
-613.993
-613.964
-613.95
-613.954
-613.977
-614.018
-614.074
-614.144
-614.223
-614.308
-614.393
-614.474
-614.545
-614.601
-614.64
-614.657
-614.652
-614.624
-614.575
-614.509
-614.43
-614.345
-614.259
-614.181
-614.117
-614.073
-614.052
-614.056
-614.086
-614.139
-614.209
-614.289
-614.372
-614.447
-614.507
-614.545
-614.556
-614.538
-614.495
-614.433
-614.356
-614.278
-614.209
-614.157
-614.131
-614.133
-614.165
-614.222
-614.294
-614.4
-614.467
-614.513
-614.528
-614.509
-614.455
-614.375
-614.28
-614.185
-614.107
-614.059
-614.05
-614.082
-614.148
-614.236
-614.33
-614.408
-614.453
-614.459
-614.421
-614.352
-614.269
-614.195
-614.149
-1775.48
-1775.48
-1775.47
-1775.47
-1775.47
-1775.46
-1775.46
-1775.45
-1775.45
-1775.44
-1775.43
-1775.41
-1775.4
-1775.38
-1775.37
-1775.35
-1775.32
-1775.3
-1775.27
-1775.24
-1775.2
-1775.17
-1775.12
-1775.08
-1775.03
-1774.98
-1774.93
-1774.88
-1774.82
-1774.76
-1774.69
-1774.63
-1774.56
-1774.49
-1774.43
-1774.36
-1774.29
-1774.22
-1774.15
-1774.09
-1774.02
-1773.96
-1773.9
-1773.85
-1773.8
-1773.75
-1773.71
-1773.67
-1773.63
-1773.6
-1773.58
-1773.56
-1773.54
-1773.53
-1773.52
-1773.52
-1773.52
-1773.52
-1773.53
-1773.54
-1773.56
-1773.57
-1773.59
-1773.61
-1773.63
-1773.65
-1773.67
-1773.68
-1773.69
-1773.7
-1773.71
-1773.71
-1773.7
-1773.69
-1773.68
-1773.65
-1773.62
-1773.59
-1773.54
-1773.49
-1773.44
-1773.37
-1773.3
-1773.23
-1773.15
-1773.07
-1772.99
-1772.9
-1772.82
-1772.74
-1772.66
-1772.59
-1772.53
-1772.47
-1772.42
-1772.38
-1772.35
-1772.33
-1772.33
-1772.34
-1772.36
-1772.39
-1772.43
-1772.48
-1772.54
-1772.61
-1772.68
-1772.75
-1772.82
-1772.89
-1772.95
-1773
-1773.04
-1773.07
-1773.09
-1773.08
-1773.07
-1773.03
-1772.99
-1772.92
-1772.85
-1772.77
-1772.68
-1772.59
-1772.5
-1772.42
-1772.35
-1772.29
-1772.26
-1772.24
-1772.25
-1772.27
-1772.32
-1772.39
-1772.48
-1772.57
-1772.68
-1772.78
-1772.88
-1772.97
-1773.04
-1773.08
-1773.1
-1773.09
-1773.06
-1773
-1772.92
-1772.82
-1772.71
-1772.61
-1772.51
-1772.43
-1772.38
-1772.36
-1772.36
-1772.4
-1772.47
-1772.55
-1772.65
-1772.76
-1772.85
-1772.92
-1772.97
-1772.98
-1772.96
-1772.9
-1772.83
-1772.73
-1772.63
-1772.55
-1772.48
-1772.45
-1772.46
-1772.5
-1772.57
-1772.66
-1772.79
-1772.87
-1772.93
-1772.95
-1772.92
-1772.86
-1772.76
-1772.65
-1772.53
-1772.44
-1772.38
-1772.37
-1772.41
-1772.49
-1772.6
-1772.72
-1772.81
-1772.86
-1772.87
-1772.82
-1772.73
-1772.63
-1772.54
-1772.48
-2801.78
-2801.78
-2801.78
-2801.78
-2801.78
-2801.78
-2801.78
-2801.78
-2801.78
-2801.78
-2801.77
-2801.77
-2801.76
-2801.75
-2801.74
-2801.72
-2801.7
-2801.68
-2801.65
-2801.62
-2801.58
-2801.54
-2801.49
-2801.43
-2801.37
-2801.31
-2801.24
-2801.17
-2801.09
-2801.01
-2800.93
-2800.84
-2800.75
-2800.66
-2800.57
-2800.48
-2800.39
-2800.3
-2800.21
-2800.13
-2800.05
-2799.97
-2799.9
-2799.83
-2799.77
-2799.71
-2799.66
-2799.62
-2799.58
-2799.56
-2799.53
-2799.52
-2799.51
-2799.51
-2799.51
-2799.52
-2799.54
-2799.56
-2799.59
-2799.62
-2799.65
-2799.69
-2799.73
-2799.76
-2799.8
-2799.84
-2799.88
-2799.91
-2799.94
-2799.97
-2799.98
-2800
-2800
-2800
-2799.99
-2799.96
-2799.93
-2799.89
-2799.84
-2799.78
-2799.71
-2799.63
-2799.54
-2799.45
-2799.35
-2799.25
-2799.14
-2799.04
-2798.93
-2798.83
-2798.73
-2798.64
-2798.55
-2798.48
-2798.42
-2798.37
-2798.34
-2798.32
-2798.32
-2798.33
-2798.36
-2798.41
-2798.47
-2798.55
-2798.63
-2798.72
-2798.82
-2798.92
-2799.02
-2799.11
-2799.2
-2799.27
-2799.33
-2799.37
-2799.39
-2799.39
-2799.37
-2799.32
-2799.26
-2799.18
-2799.08
-2798.96
-2798.85
-2798.72
-2798.6
-2798.5
-2798.4
-2798.33
-2798.28
-2798.25
-2798.26
-2798.3
-2798.36
-2798.46
-2798.57
-2798.7
-2798.84
-2798.98
-2799.11
-2799.22
-2799.32
-2799.38
-2799.4
-2799.39
-2799.34
-2799.26
-2799.14
-2799.01
-2798.87
-2798.73
-2798.6
-2798.5
-2798.43
-2798.4
-2798.41
-2798.46
-2798.55
-2798.67
-2798.81
-2798.95
-2799.07
-2799.17
-2799.23
-2799.24
-2799.21
-2799.14
-2799.03
-2798.9
-2798.76
-2798.65
-2798.56
-2798.52
-2798.53
-2798.58
-2798.68
-2798.8
-2798.97
-2799.09
-2799.17
-2799.2
-2799.17
-2799.09
-2798.96
-2798.81
-2798.65
-2798.53
-2798.46
-2798.44
-2798.5
-2798.61
-2798.75
-2798.91
-2799.03
-2799.1
-2799.1
-2799.03
-2798.92
-2798.78
-2798.65
-2798.56
-3710.92
-3710.92
-3710.93
-3710.94
-3710.95
-3710.96
-3710.98
-3710.99
-3711.01
-3711.03
-3711.04
-3711.06
-3711.07
-3711.08
-3711.08
-3711.08
-3711.07
-3711.05
-3711.03
-3711
-3710.96
-3710.91
-3710.85
-3710.78
-3710.7
-3710.62
-3710.52
-3710.42
-3710.31
-3710.19
-3710.07
-3709.95
-3709.82
-3709.69
-3709.56
-3709.43
-3709.31
-3709.18
-3709.06
-3708.95
-3708.84
-3708.74
-3708.65
-3708.57
-3708.5
-3708.43
-3708.38
-3708.33
-3708.3
-3708.27
-3708.26
-3708.26
-3708.26
-3708.28
-3708.3
-3708.33
-3708.37
-3708.42
-3708.47
-3708.53
-3708.6
-3708.66
-3708.73
-3708.8
-3708.87
-3708.94
-3709
-3709.06
-3709.12
-3709.16
-3709.2
-3709.23
-3709.25
-3709.25
-3709.25
-3709.23
-3709.19
-3709.14
-3709.08
-3709
-3708.92
-3708.82
-3708.7
-3708.58
-3708.45
-3708.32
-3708.18
-3708.04
-3707.9
-3707.76
-3707.63
-3707.51
-3707.4
-3707.3
-3707.23
-3707.16
-3707.13
-3707.11
-3707.11
-3707.14
-3707.19
-3707.26
-3707.35
-3707.45
-3707.57
-3707.71
-3707.84
-3707.99
-3708.12
-3708.26
-3708.38
-3708.48
-3708.56
-3708.62
-3708.65
-3708.65
-3708.62
-3708.55
-3708.46
-3708.35
-3708.21
-3708.06
-3707.89
-3707.72
-3707.56
-3707.41
-3707.28
-3707.18
-3707.11
-3707.08
-3707.09
-3707.14
-3707.23
-3707.36
-3707.51
-3707.69
-3707.88
-3708.07
-3708.25
-3708.41
-3708.53
-3708.61
-3708.64
-3708.62
-3708.55
-3708.43
-3708.28
-3708.1
-3707.9
-3707.7
-3707.53
-3707.39
-3707.3
-3707.26
-3707.28
-3707.36
-3707.48
-3707.65
-3707.84
-3708.04
-3708.21
-3708.34
-3708.42
-3708.43
-3708.39
-3708.28
-3708.13
-3707.94
-3707.76
-3707.6
-3707.48
-3707.42
-3707.44
-3707.52
-3707.66
-3707.83
-3708.05
-3708.21
-3708.32
-3708.36
-3708.33
-3708.22
-3708.05
-3707.85
-3707.63
-3707.47
-3707.38
-3707.37
-3707.44
-3707.59
-3707.78
-3708.01
-3708.16
-3708.24
-3708.24
-3708.15
-3707.99
-3707.8
-3707.61
-3707.5
-4516.22
-4516.23
-4516.24
-4516.27
-4516.3
-4516.34
-4516.38
-4516.43
-4516.49
-4516.55
-4516.61
-4516.67
-4516.72
-4516.77
-4516.81
-4516.83
-4516.85
-4516.86
-4516.85
-4516.82
-4516.78
-4516.72
-4516.64
-4516.55
-4516.44
-4516.32
-4516.18
-4516.03
-4515.87
-4515.69
-4515.52
-4515.33
-4515.15
-4514.96
-4514.78
-4514.6
-4514.42
-4514.25
-4514.09
-4513.94
-4513.81
-4513.68
-4513.56
-4513.46
-4513.37
-4513.29
-4513.23
-4513.19
-4513.15
-4513.14
-4513.14
-4513.15
-4513.17
-4513.21
-4513.26
-4513.33
-4513.4
-4513.48
-4513.57
-4513.67
-4513.78
-4513.88
-4513.99
-4514.1
-4514.21
-4514.32
-4514.42
-4514.51
-4514.6
-4514.67
-4514.73
-4514.78
-4514.82
-4514.83
-4514.83
-4514.81
-4514.77
-4514.72
-4514.64
-4514.54
-4514.43
-4514.3
-4514.15
-4514
-4513.83
-4513.65
-4513.46
-4513.28
-4513.09
-4512.91
-4512.74
-4512.58
-4512.44
-4512.31
-4512.21
-4512.14
-4512.09
-4512.07
-4512.08
-4512.12
-4512.19
-4512.29
-4512.42
-4512.57
-4512.74
-4512.92
-4513.11
-4513.31
-4513.5
-4513.68
-4513.85
-4513.99
-4514.1
-4514.18
-4514.22
-4514.22
-4514.18
-4514.09
-4513.97
-4513.81
-4513.63
-4513.42
-4513.19
-4512.96
-4512.74
-4512.54
-4512.36
-4512.22
-4512.13
-4512.09
-4512.1
-4512.17
-4512.29
-4512.46
-4512.68
-4512.92
-4513.17
-4513.43
-4513.67
-4513.88
-4514.04
-4514.15
-4514.19
-4514.16
-4514.06
-4513.9
-4513.69
-4513.44
-4513.17
-4512.91
-4512.67
-4512.49
-4512.36
-4512.31
-4512.34
-4512.46
-4512.63
-4512.87
-4513.12
-4513.39
-4513.62
-4513.8
-4513.9
-4513.92
-4513.85
-4513.7
-4513.49
-4513.24
-4512.99
-4512.77
-4512.61
-4512.53
-4512.56
-4512.67
-4512.86
-4513.1
-4513.38
-4513.6
-4513.76
-4513.82
-4513.78
-4513.63
-4513.4
-4513.14
-4512.84
-4512.63
-4512.51
-4512.5
-4512.61
-4512.8
-4513.06
-4513.35
-4513.56
-4513.67
-4513.66
-4513.54
-4513.32
-4513.04
-4512.81
-4512.68
-5229.31
-5229.32
-5229.36
-5229.42
-5229.49
-5229.58
-5229.69
-5229.81
-5229.93
-5230.07
-5230.21
-5230.34
-5230.48
-5230.6
-5230.72
-5230.81
-5230.89
-5230.95
-5230.98
-5230.98
-5230.95
-5230.88
-5230.78
-5230.65
-5230.5
-5230.31
-5230.1
-5229.86
-5229.61
-5229.35
-5229.08
-5228.81
-5228.54
-5228.27
-5228
-5227.75
-5227.51
-5227.27
-5227.05
-5226.86
-5226.69
-5226.53
-5226.39
-5226.27
-5226.17
-5226.09
-5226.03
-5225.99
-5225.97
-5225.97
-5225.99
-5226.03
-5226.08
-5226.16
-5226.25
-5226.35
-5226.47
-5226.59
-5226.73
-5226.88
-5227.03
-5227.19
-5227.35
-5227.51
-5227.67
-5227.82
-5227.97
-5228.1
-5228.23
-5228.34
-5228.43
-5228.5
-5228.55
-5228.58
-5228.59
-5228.57
-5228.52
-5228.45
-5228.36
-5228.24
-5228.09
-5227.92
-5227.74
-5227.53
-5227.31
-5227.08
-5226.84
-5226.6
-5226.36
-5226.12
-5225.9
-5225.69
-5225.51
-5225.35
-5225.22
-5225.13
-5225.07
-5225.05
-5225.07
-5225.13
-5225.23
-5225.37
-5225.54
-5225.74
-5225.97
-5226.22
-5226.48
-5226.74
-5226.99
-5227.24
-5227.45
-5227.64
-5227.79
-5227.9
-5227.95
-5227.95
-5227.89
-5227.78
-5227.62
-5227.41
-5227.16
-5226.88
-5226.58
-5226.28
-5225.99
-5225.72
-5225.48
-5225.3
-5225.18
-5225.12
-5225.14
-5225.23
-5225.39
-5225.62
-5225.9
-5226.22
-5226.56
-5226.9
-5227.22
-5227.49
-5227.7
-5227.84
-5227.89
-5227.85
-5227.72
-5227.5
-5227.22
-5226.89
-5226.53
-5226.18
-5225.87
-5225.63
-5225.46
-5225.4
-5225.45
-5225.6
-5225.84
-5226.15
-5226.5
-5226.85
-5227.15
-5227.39
-5227.53
-5227.55
-5227.45
-5227.25
-5226.96
-5226.63
-5226.29
-5226
-5225.79
-5225.69
-5225.72
-5225.88
-5226.13
-5226.46
-5226.82
-5227.12
-5227.32
-5227.41
-5227.35
-5227.15
-5226.86
-5226.5
-5226.13
-5225.86
-5225.7
-5225.69
-5225.83
-5226.09
-5226.43
-5226.8
-5227.08
-5227.22
-5227.21
-5227.04
-5226.76
-5226.37
-5226.07
-5225.9
-5860.63
-5860.68
-5860.76
-5860.89
-5861.06
-5861.27
-5861.52
-5861.8
-5862.1
-5862.41
-5862.72
-5863.03
-5863.32
-5863.58
-5863.81
-5864
-5864.15
-5864.25
-5864.3
-5864.29
-5864.23
-5864.12
-5863.95
-5863.73
-5863.46
-5863.15
-5862.8
-5862.43
-5862.03
-5861.63
-5861.22
-5860.82
-5860.43
-5860.06
-5859.7
-5859.36
-5859.05
-5858.76
-5858.5
-5858.26
-5858.04
-5857.85
-5857.68
-5857.54
-5857.43
-5857.35
-5857.3
-5857.27
-5857.27
-5857.29
-5857.34
-5857.41
-5857.5
-5857.62
-5857.75
-5857.9
-5858.07
-5858.26
-5858.45
-5858.66
-5858.87
-5859.09
-5859.31
-5859.53
-5859.74
-5859.95
-5860.15
-5860.33
-5860.5
-5860.65
-5860.77
-5860.88
-5860.95
-5860.99
-5861.01
-5860.99
-5860.93
-5860.85
-5860.73
-5860.57
-5860.39
-5860.18
-5859.94
-5859.68
-5859.4
-5859.1
-5858.8
-5858.49
-5858.18
-5857.89
-5857.6
-5857.34
-5857.11
-5856.91
-5856.75
-5856.63
-5856.56
-5856.54
-5856.57
-5856.65
-5856.79
-5856.97
-5857.2
-5857.46
-5857.76
-5858.08
-5858.42
-5858.76
-5859.09
-5859.41
-5859.69
-5859.93
-5860.13
-5860.26
-5860.33
-5860.33
-5860.25
-5860.11
-5859.9
-5859.63
-5859.3
-5858.94
-5858.56
-5858.17
-5857.79
-5857.44
-5857.14
-5856.9
-5856.75
-5856.68
-5856.7
-5856.82
-5857.03
-5857.32
-5857.69
-5858.1
-5858.53
-5858.97
-5859.37
-5859.72
-5860
-5860.17
-5860.23
-5860.17
-5860
-5859.72
-5859.35
-5858.92
-5858.46
-5858.02
-5857.62
-5857.3
-5857.1
-5857.03
-5857.09
-5857.29
-5857.61
-5858.01
-5858.46
-5858.91
-5859.3
-5859.6
-5859.78
-5859.8
-5859.67
-5859.4
-5859.03
-5858.6
-5858.16
-5857.79
-5857.52
-5857.39
-5857.44
-5857.64
-5857.97
-5858.39
-5858.86
-5859.24
-5859.51
-5859.61
-5859.54
-5859.29
-5858.9
-5858.45
-5857.99
-5857.64
-5857.43
-5857.43
-5857.61
-5857.95
-5858.39
-5858.85
-5859.2
-5859.38
-5859.36
-5859.14
-5858.77
-5858.28
-5857.9
-5857.68
-6418.91
-6418.99
-6419.13
-6419.36
-6419.66
-6420.03
-6420.47
-6420.94
-6421.46
-6421.97
-6422.49
-6422.97
-6423.44
-6423.88
-6424.28
-6424.64
-6424.93
-6425.16
-6425.31
-6425.39
-6425.37
-6425.27
-6425.08
-6424.8
-6424.44
-6423.99
-6423.48
-6422.91
-6422.32
-6421.73
-6421.15
-6420.58
-6420.05
-6419.54
-6419.07
-6418.63
-6418.23
-6417.88
-6417.57
-6417.29
-6417.04
-6416.83
-6416.66
-6416.52
-6416.42
-6416.35
-6416.31
-6416.3
-6416.33
-6416.38
-6416.47
-6416.58
-6416.72
-6416.89
-6417.08
-6417.29
-6417.52
-6417.77
-6418.03
-6418.3
-6418.58
-6418.87
-6419.16
-6419.44
-6419.72
-6419.99
-6420.25
-6420.49
-6420.7
-6420.9
-6421.06
-6421.19
-6421.29
-6421.35
-6421.37
-6421.35
-6421.28
-6421.18
-6421.03
-6420.84
-6420.61
-6420.35
-6420.05
-6419.73
-6419.38
-6419.01
-6418.63
-6418.24
-6417.86
-6417.49
-6417.14
-6416.82
-6416.53
-6416.29
-6416.09
-6415.94
-6415.86
-6415.84
-6415.88
-6415.99
-6416.16
-6416.4
-6416.69
-6417.03
-6417.4
-6417.81
-6418.24
-6418.67
-6419.08
-6419.48
-6419.84
-6420.14
-6420.39
-6420.55
-6420.64
-6420.64
-6420.54
-6420.36
-6420.09
-6419.75
-6419.34
-6418.89
-6418.41
-6417.92
-6417.44
-6417
-6416.63
-6416.33
-6416.13
-6416.05
-6416.08
-6416.23
-6416.5
-6416.87
-6417.32
-6417.83
-6418.38
-6418.92
-6419.43
-6419.87
-6420.21
-6420.42
-6420.5
-6420.42
-6420.2
-6419.84
-6419.38
-6418.84
-6418.26
-6417.7
-6417.21
-6416.81
-6416.56
-6416.47
-6416.56
-6416.82
-6417.22
-6417.73
-6418.29
-6418.86
-6419.35
-6419.73
-6419.94
-6419.97
-6419.8
-6419.45
-6418.98
-6418.44
-6417.89
-6417.42
-6417.08
-6416.93
-6416.99
-6417.25
-6417.67
-6418.2
-6418.77
-6419.25
-6419.59
-6419.72
-6419.62
-6419.31
-6418.84
-6418.27
-6417.7
-6417.26
-6417.01
-6417.01
-6417.24
-6417.67
-6418.22
-6418.79
-6419.22
-6419.44
-6419.41
-6419.13
-6418.65
-6418.07
-6417.58
-6417.3
-6912.54
-6912.68
-6912.95
-6913.36
-6913.89
-6914.59
-6915.46
-6916.53
-6917.57
-6918.46
-6919.47
-6920.43
-6921.32
-6922.13
-6922.88
-6923.48
-6923.94
-6924.26
-6924.44
-6924.48
-6924.38
-6924.13
-6923.73
-6923.2
-6922.52
-6921.71
-6920.78
-6919.78
-6918.79
-6917.85
-6916.99
-6916.2
-6915.47
-6914.81
-6914.25
-6913.76
-6913.32
-6912.93
-6912.58
-6912.28
-6912.01
-6911.8
-6911.62
-6911.49
-6911.4
-6911.35
-6911.33
-6911.36
-6911.42
-6911.51
-6911.64
-6911.8
-6912
-6912.22
-6912.47
-6912.75
-6913.05
-6913.37
-6913.7
-6914.05
-6914.4
-6914.76
-6915.13
-6915.48
-6915.84
-6916.17
-6916.49
-6916.79
-6917.06
-6917.3
-6917.51
-6917.67
-6917.79
-6917.87
-6917.9
-6917.87
-6917.8
-6917.67
-6917.49
-6917.26
-6916.98
-6916.66
-6916.3
-6915.9
-6915.47
-6915.02
-6914.56
-6914.09
-6913.63
-6913.18
-6912.76
-6912.36
-6912.01
-6911.72
-6911.48
-6911.31
-6911.21
-6911.19
-6911.25
-6911.39
-6911.6
-6911.89
-6912.25
-6912.67
-6913.13
-6913.64
-6914.16
-6914.69
-6915.2
-6915.69
-6916.12
-6916.5
-6916.8
-6917
-6917.1
-6917.1
-6916.98
-6916.75
-6916.43
-6916
-6915.51
-6914.95
-6914.36
-6913.76
-6913.18
-6912.64
-6912.18
-6911.82
-6911.58
-6911.48
-6911.52
-6911.7
-6912.03
-6912.48
-6913.04
-6913.67
-6914.33
-6915
-6915.61
-6916.15
-6916.56
-6916.82
-6916.91
-6916.81
-6916.53
-6916.09
-6915.52
-6914.86
-6914.16
-6913.48
-6912.87
-6912.39
-6912.09
-6911.98
-6912.1
-6912.42
-6912.92
-6913.54
-6914.24
-6914.93
-6915.53
-6915.99
-6916.24
-6916.27
-6916.05
-6915.63
-6915.05
-6914.37
-6913.7
-6913.12
-6912.72
-6912.53
-6912.61
-6912.93
-6913.45
-6914.1
-6914.8
-6915.39
-6915.8
-6915.96
-6915.84
-6915.46
-6914.88
-6914.19
-6913.5
-6912.97
-6912.67
-6912.67
-6912.96
-6913.48
-6914.15
-6914.83
-6915.35
-6915.62
-6915.58
-6915.24
-6914.64
-6913.94
-6913.35
-6913.01
-7347.95
-7348.13
-7348.5
-7349.08
-7349.89
-7350.94
-7352.38
-7354.2
-7356.46
-7358.4
-7360.03
-7361.41
-7362.57
-7363.56
-7364.38
-7365.11
-7365.69
-7366.12
-7366.39
-7366.48
-7366.39
-7366.11
-7365.63
-7364.96
-7364.09
-7362.98
-7361.49
-7359.55
-7358.03
-7356.79
-7355.72
-7354.81
-7354.02
-7353.32
-7352.68
-7352.1
-7351.6
-7351.16
-7350.8
-7350.49
-7350.23
-7350.03
-7349.87
-7349.76
-7349.69
-7349.67
-7349.69
-7349.75
-7349.85
-7349.99
-7350.17
-7350.39
-7350.65
-7350.93
-7351.25
-7351.6
-7351.97
-7352.36
-7352.77
-7353.2
-7353.64
-7354.08
-7354.52
-7354.95
-7355.38
-7355.79
-7356.18
-7356.54
-7356.87
-7357.16
-7357.41
-7357.61
-7357.75
-7357.85
-7357.88
-7357.85
-7357.76
-7357.61
-7357.4
-7357.12
-7356.79
-7356.4
-7355.97
-7355.49
-7354.98
-7354.45
-7353.9
-7353.34
-7352.79
-7352.25
-7351.75
-7351.28
-7350.86
-7350.51
-7350.23
-7350.03
-7349.92
-7349.9
-7349.97
-7350.14
-7350.41
-7350.76
-7351.19
-7351.69
-7352.26
-7352.86
-7353.49
-7354.12
-7354.74
-7355.32
-7355.84
-7356.29
-7356.64
-7356.89
-7357.01
-7357
-7356.86
-7356.59
-7356.19
-7355.68
-7355.09
-7354.42
-7353.71
-7352.99
-7352.29
-7351.66
-7351.11
-7350.68
-7350.39
-7350.27
-7350.32
-7350.54
-7350.94
-7351.48
-7352.14
-7352.9
-7353.69
-7354.48
-7355.22
-7355.86
-7356.35
-7356.65
-7356.75
-7356.63
-7356.29
-7355.77
-7355.08
-7354.29
-7353.45
-7352.63
-7351.91
-7351.34
-7350.98
-7350.86
-7351
-7351.39
-7351.99
-7352.75
-7353.58
-7354.41
-7355.13
-7355.68
-7355.98
-7356
-7355.74
-7355.22
-7354.52
-7353.71
-7352.91
-7352.22
-7351.73
-7351.52
-7351.61
-7352
-7352.63
-7353.41
-7354.24
-7354.94
-7355.43
-7355.63
-7355.48
-7355.02
-7354.33
-7353.5
-7352.69
-7352.06
-7351.71
-7351.71
-7352.06
-7352.69
-7353.49
-7354.29
-7354.91
-7355.22
-7355.17
-7354.76
-7354.03
-7353.21
-7352.51
-7352.1
-7731.82
-7732.04
-7732.51
-7733.25
-7734.35
-7735.89
-7737.93
-7740.55
-7744.03
-7747.04
-7749.7
-7752.05
-7754.11
-7755.84
-7757.23
-7758.31
-7759.13
-7759.69
-7760.01
-7760.09
-7759.91
-7759.47
-7758.78
-7757.7
-7756.24
-7754.42
-7752.13
-7748.72
-7746.63
-7745.14
-7743.75
-7742.66
-7741.78
-7741.06
-7740.44
-7739.92
-7739.47
-7739.07
-7738.74
-7738.46
-7738.23
-7738.05
-7737.92
-7737.84
-7737.8
-7737.81
-7737.87
-7737.97
-7738.11
-7738.31
-7738.54
-7738.81
-7739.13
-7739.48
-7739.87
-7740.29
-7740.74
-7741.21
-7741.7
-7742.21
-7742.73
-7743.26
-7743.78
-7744.3
-7744.8
-7745.29
-7745.75
-7746.17
-7746.56
-7746.9
-7747.2
-7747.43
-7747.6
-7747.71
-7747.75
-7747.72
-7747.61
-7747.44
-7747.18
-7746.86
-7746.47
-7746.02
-7745.51
-7744.95
-7744.36
-7743.73
-7743.08
-7742.43
-7741.78
-7741.16
-7740.57
-7740.02
-7739.54
-7739.13
-7738.8
-7738.57
-7738.45
-7738.43
-7738.52
-7738.72
-7739.03
-7739.45
-7739.96
-7740.56
-7741.22
-7741.93
-7742.67
-7743.41
-7744.14
-7744.82
-7745.43
-7745.96
-7746.37
-7746.66
-7746.8
-7746.79
-7746.62
-7746.29
-7745.83
-7745.23
-7744.53
-7743.74
-7742.91
-7742.07
-7741.25
-7740.5
-7739.86
-7739.36
-7739.02
-7738.88
-7738.94
-7739.21
-7739.67
-7740.31
-7741.09
-7741.97
-7742.91
-7743.83
-7744.69
-7745.44
-7746.01
-7746.36
-7746.47
-7746.33
-7745.93
-7745.31
-7744.5
-7743.57
-7742.58
-7741.63
-7740.78
-7740.12
-7739.7
-7739.57
-7739.74
-7740.2
-7740.91
-7741.8
-7742.78
-7743.75
-7744.6
-7745.24
-7745.59
-7745.61
-7745.29
-7744.68
-7743.85
-7742.9
-7741.95
-7741.14
-7740.57
-7740.33
-7740.45
-7740.91
-7741.65
-7742.57
-7743.54
-7744.36
-7744.93
-7745.16
-7744.99
-7744.45
-7743.63
-7742.67
-7741.73
-7740.99
-7740.58
-7740.59
-7741
-7741.74
-7742.68
-7743.61
-7744.33
-7744.69
-7744.62
-7744.15
-7743.26
-7742.32
-7741.51
-7741.04
-8070.47
-8070.61
-8070.88
-8071.27
-8071.74
-8072.27
-8072.6
-8073.03
-8087.18
-8086.64
-8086.18
-8085.78
-8085.37
-8084.85
-8084.34
-8083.79
-8083.31
-8082.88
-8082.51
-8082.21
-8081.97
-8081.77
-8081.62
-8081.53
-8081.47
-8081.47
-8081.52
-8081.61
-8081.76
-8081.95
-8082.19
-8082.48
-8082.82
-8083.19
-8083.61
-8084.07
-8084.57
-8085.09
-8085.65
-8086.22
-8086.82
-8087.42
-8088.03
-8088.64
-8089.24
-8089.82
-8090.38
-8090.92
-8091.41
-8091.86
-8092.25
-8092.59
-8092.86
-8093.06
-8093.19
-8093.23
-8093.19
-8093.07
-8092.86
-8092.57
-8092.2
-8091.75
-8091.23
-8090.64
-8090
-8089.31
-8088.59
-8087.85
-8087.1
-8086.36
-8085.64
-8084.96
-8084.33
-8083.78
-8083.31
-8082.94
-8082.68
-8082.53
-8082.51
-8082.62
-8082.86
-8083.23
-8083.71
-8084.31
-8085
-8085.76
-8086.58
-8087.43
-8088.29
-8089.13
-8089.91
-8090.62
-8091.23
-8091.7
-8092.03
-8092.19
-8092.17
-8091.97
-8091.6
-8091.06
-8090.37
-8089.56
-8088.65
-8087.69
-8086.72
-8085.78
-8084.92
-8084.18
-8083.6
-8083.22
-8083.06
-8083.13
-8083.44
-8083.98
-8084.71
-8085.61
-8086.63
-8087.7
-8088.77
-8089.76
-8090.61
-8091.26
-8091.67
-8091.79
-8091.62
-8091.16
-8090.44
-8089.51
-8088.43
-8087.3
-8086.2
-8085.22
-8084.46
-8083.99
-8083.84
-8084.04
-8084.58
-8085.41
-8086.44
-8087.57
-8088.68
-8089.66
-8090.39
-8090.79
-8090.8
-8090.44
-8089.73
-8088.76
-8087.67
-8086.57
-8085.64
-8084.99
-8084.71
-8084.85
-8085.39
-8086.25
-8087.3
-8088.42
-8089.37
-8090.02
-8090.28
-8090.08
-8089.46
-8088.52
-8087.42
-8086.34
-8085.49
-8085.03
-8085.04
-8085.52
-8086.37
-8087.45
-8088.52
-8089.33
-8089.75
-8089.66
-8089.13
-8088.08
-8087.02
-8086.09
-8085.54
-8369.33
-8369.36
-8369.43
-8369.53
-8369.63
-8369.73
-8369.79
-8369.87
-8389.96
-8389.62
-8389.32
-8388.96
-8388.48
-8388.07
-8387.71
-8387.42
-8387.13
-8386.86
-8386.6
-8386.36
-8386.15
-8385.99
-8385.87
-8385.8
-8385.78
-8385.81
-8385.9
-8386.03
-8386.22
-8386.46
-8386.75
-8387.09
-8387.48
-8387.93
-8388.41
-8388.94
-8389.51
-8390.12
-8390.75
-8391.41
-8392.09
-8392.78
-8393.47
-8394.17
-8394.85
-8395.52
-8396.15
-8396.76
-8397.32
-8397.83
-8398.28
-8398.66
-8398.96
-8399.19
-8399.33
-8399.38
-8399.34
-8399.2
-8398.96
-8398.63
-8398.21
-8397.69
-8397.1
-8396.44
-8395.71
-8394.93
-8394.11
-8393.27
-8392.42
-8391.58
-8390.77
-8390
-8389.29
-8388.67
-8388.14
-8387.72
-8387.43
-8387.27
-8387.25
-8387.38
-8387.66
-8388.08
-8388.63
-8389.3
-8390.09
-8390.96
-8391.89
-8392.86
-8393.83
-8394.78
-8395.67
-8396.47
-8397.16
-8397.69
-8398.06
-8398.24
-8398.22
-8397.99
-8397.57
-8396.95
-8396.17
-8395.25
-8394.22
-8393.13
-8392.03
-8390.97
-8389.99
-8389.15
-8388.5
-8388.07
-8387.89
-8387.97
-8388.32
-8388.93
-8389.77
-8390.79
-8391.94
-8393.16
-8394.36
-8395.48
-8396.45
-8397.18
-8397.64
-8397.77
-8397.57
-8397.05
-8396.23
-8395.17
-8393.95
-8392.66
-8391.42
-8390.32
-8389.46
-8388.92
-8388.76
-8389
-8389.62
-8390.56
-8391.73
-8393.01
-8394.28
-8395.38
-8396.21
-8396.65
-8396.67
-8396.24
-8395.43
-8394.33
-8393.09
-8391.85
-8390.79
-8390.05
-8389.74
-8389.91
-8390.53
-8391.5
-8392.7
-8393.96
-8395.03
-8395.78
-8396.06
-8395.83
-8395.13
-8394.07
-8392.82
-8391.6
-8390.65
-8390.13
-8390.15
-8390.7
-8391.66
-8392.88
-8394.08
-8395
-8395.46
-8395.36
-8394.76
-8393.55
-8392.36
-8391.32
-8390.71
-8634.02
-8634.05
-8634.11
-8634.2
-8634.33
-8634.48
-8634.62
-8634.84
-8658.45
-8658.28
-8658.09
-8657.84
-8657.54
-8657.21
-8656.91
-8656.63
-8656.37
-8656.12
-8655.89
-8655.69
-8655.53
-8655.39
-8655.3
-8655.26
-8655.27
-8655.33
-8655.45
-8655.62
-8655.84
-8656.13
-8656.47
-8656.86
-8657.31
-8657.82
-8658.37
-8658.97
-8659.62
-8660.3
-8661.01
-8661.75
-8662.51
-8663.29
-8664.07
-8664.85
-8665.61
-8666.36
-8667.07
-8667.75
-8668.37
-8668.94
-8669.44
-8669.87
-8670.21
-8670.46
-8670.62
-8670.67
-8670.62
-8670.46
-8670.2
-8669.83
-8669.35
-8668.78
-8668.12
-8667.37
-8666.56
-8665.68
-8664.77
-8663.83
-8662.88
-8661.94
-8661.04
-8660.18
-8659.39
-8658.7
-8658.11
-8657.65
-8657.32
-8657.15
-8657.13
-8657.28
-8657.59
-8658.06
-8658.69
-8659.45
-8660.32
-8661.3
-8662.34
-8663.43
-8664.52
-8665.58
-8666.57
-8667.47
-8668.23
-8668.83
-8669.24
-8669.43
-8669.41
-8669.15
-8668.68
-8667.99
-8667.11
-8666.07
-8664.93
-8663.71
-8662.48
-8661.29
-8660.2
-8659.27
-8658.54
-8658.06
-8657.86
-8657.95
-8658.35
-8659.03
-8659.97
-8661.11
-8662.4
-8663.76
-8665.1
-8666.35
-8667.42
-8668.24
-8668.74
-8668.89
-8668.67
-8668.08
-8667.16
-8665.97
-8664.61
-8663.17
-8661.78
-8660.55
-8659.59
-8659
-8658.82
-8659.09
-8659.79
-8660.85
-8662.16
-8663.6
-8665.01
-8666.25
-8667.17
-8667.66
-8667.67
-8667.19
-8666.27
-8665.04
-8663.64
-8662.26
-8661.08
-8660.26
-8659.92
-8660.11
-8660.8
-8661.9
-8663.24
-8664.65
-8665.84
-8666.67
-8666.99
-8666.73
-8665.94
-8664.75
-8663.36
-8662.01
-8660.95
-8660.37
-8660.4
-8661.01
-8662.09
-8663.45
-8664.78
-8665.81
-8666.32
-8666.2
-8665.52
-8664.17
-8662.86
-8661.69
-8661.01
-8868.42
-8868.44
-8868.47
-8868.52
-8868.58
-8868.65
-8868.68
-8868.73
-8896.47
-8896.37
-8896.21
-8896.03
-8895.81
-8895.56
-8895.31
-8895.07
-8894.83
-8894.61
-8894.41
-8894.23
-8894.09
-8893.98
-8893.91
-8893.89
-8893.92
-8894.01
-8894.16
-8894.36
-8894.62
-8894.95
-8895.34
-8895.78
-8896.29
-8896.85
-8897.47
-8898.14
-8898.86
-8899.61
-8900.41
-8901.23
-8902.07
-8902.93
-8903.79
-8904.65
-8905.5
-8906.32
-8907.11
-8907.85
-8908.54
-8909.17
-8909.72
-8910.19
-8910.57
-8910.85
-8911.01
-8911.07
-8911.01
-8910.84
-8910.54
-8910.13
-8909.61
-8908.97
-8908.24
-8907.42
-8906.52
-8905.55
-8904.54
-8903.51
-8902.46
-8901.43
-8900.43
-8899.48
-8898.62
-8897.86
-8897.21
-8896.7
-8896.35
-8896.16
-8896.14
-8896.31
-8896.66
-8897.18
-8897.87
-8898.71
-8899.69
-8900.76
-8901.92
-8903.11
-8904.32
-8905.49
-8906.59
-8907.57
-8908.41
-8909.07
-8909.52
-8909.74
-8909.71
-8909.42
-8908.89
-8908.13
-8907.16
-8906.02
-8904.75
-8903.4
-8902.04
-8900.73
-8899.53
-8898.5
-8897.7
-8897.17
-8896.95
-8897.06
-8897.5
-8898.26
-8899.29
-8900.56
-8901.97
-8903.47
-8904.96
-8906.33
-8907.51
-8908.41
-8908.96
-8909.12
-8908.87
-8908.21
-8907.19
-8905.88
-8904.38
-8902.79
-8901.26
-8899.91
-8898.85
-8898.2
-8898.01
-8898.32
-8899.09
-8900.26
-8901.71
-8903.31
-8904.87
-8906.23
-8907.24
-8907.78
-8907.78
-8907.24
-8906.23
-8904.86
-8903.32
-8901.79
-8900.49
-8899.59
-8899.21
-8899.43
-8900.2
-8901.42
-8902.89
-8904.45
-8905.76
-8906.67
-8907.02
-8906.73
-8905.86
-8904.55
-8903.02
-8901.53
-8900.37
-8899.74
-8899.77
-8900.45
-8901.64
-8903.14
-8904.6
-8905.73
-8906.28
-8906.14
-8905.38
-8903.92
-8902.47
-8901.18
-8900.43
-9076.02
-9076.03
-9076.05
-9076.08
-9076.11
-9076.14
-9076.16
-9076.19
-9107.48
-9107.41
-9107.28
-9107.13
-9106.94
-9106.72
-9106.5
-9106.28
-9106.06
-9105.85
-9105.66
-9105.5
-9105.37
-9105.28
-9105.23
-9105.23
-9105.28
-9105.39
-9105.56
-9105.79
-9106.09
-9106.46
-9106.89
-9107.38
-9107.94
-9108.56
-9109.24
-9109.98
-9110.76
-9111.59
-9112.46
-9113.36
-9114.28
-9115.22
-9116.16
-9117.1
-9118.03
-9118.92
-9119.78
-9120.6
-9121.35
-9122.04
-9122.64
-9123.15
-9123.56
-9123.86
-9124.04
-9124.1
-9124.03
-9123.84
-9123.52
-9123.06
-9122.49
-9121.8
-9121
-9120.1
-9119.11
-9118.06
-9116.96
-9115.83
-9114.69
-9113.56
-9112.47
-9111.44
-9110.5
-9109.67
-9108.97
-9108.42
-9108.03
-9107.83
-9107.82
-9108
-9108.39
-9108.96
-9109.72
-9110.64
-9111.7
-9112.88
-9114.14
-9115.45
-9116.76
-9118.04
-9119.24
-9120.32
-9121.23
-9121.95
-9122.44
-9122.67
-9122.63
-9122.32
-9121.74
-9120.9
-9119.84
-9118.59
-9117.21
-9115.74
-9114.26
-9112.83
-9111.52
-9110.4
-9109.53
-9108.95
-9108.71
-9108.83
-9109.32
-9110.14
-9111.27
-9112.65
-9114.2
-9115.84
-9117.45
-9118.95
-9120.23
-9121.21
-9121.81
-9121.98
-9121.7
-9120.98
-9119.87
-9118.44
-9116.79
-9115.06
-9113.39
-9111.91
-9110.77
-9110.06
-9109.86
-9110.2
-9111.05
-9112.33
-9113.92
-9115.66
-9117.36
-9118.85
-9119.94
-9120.53
-9120.53
-9119.93
-9118.82
-9117.33
-9115.64
-9113.97
-9112.55
-9111.57
-9111.16
-9111.4
-9112.25
-9113.58
-9115.2
-9116.89
-9118.32
-9119.31
-9119.69
-9119.37
-9118.42
-9116.99
-9115.32
-9113.71
-9112.44
-9111.76
-9111.79
-9112.54
-9113.84
-9115.48
-9117.06
-9118.28
-9118.89
-9118.73
-9117.88
-9116.32
-9114.73
-9113.33
-9112.51
-9259.89
-9259.9
-9259.91
-9259.93
-9259.95
-9259.97
-9259.98
-9260.01
-9294.46
-9294.41
-9294.29
-9294.16
-9293.99
-9293.79
-9293.58
-9293.37
-9293.16
-9292.96
-9292.78
-9292.62
-9292.5
-9292.42
-9292.38
-9292.39
-9292.46
-9292.59
-9292.78
-9293.04
-9293.38
-9293.78
-9294.25
-9294.79
-9295.4
-9296.07
-9296.81
-9297.61
-9298.46
-9299.36
-9300.3
-9301.27
-9302.27
-9303.29
-9304.3
-9305.32
-9306.32
-9307.29
-9308.22
-9309.1
-9309.91
-9310.65
-9311.3
-9311.85
-9312.29
-9312.61
-9312.8
-9312.87
-9312.79
-9312.58
-9312.23
-9311.74
-9311.12
-9310.37
-9309.5
-9308.53
-9307.47
-9306.33
-9305.14
-9303.91
-9302.68
-9301.47
-9300.29
-9299.18
-9298.17
-9297.27
-9296.51
-9295.92
-9295.51
-9295.29
-9295.28
-9295.49
-9295.9
-9296.53
-9297.35
-9298.35
-9299.5
-9300.77
-9302.13
-9303.55
-9304.97
-9306.35
-9307.64
-9308.81
-9309.79
-9310.57
-9311.09
-9311.34
-9311.3
-9310.96
-9310.33
-9309.43
-9308.28
-9306.93
-9305.43
-9303.84
-9302.24
-9300.7
-9299.28
-9298.07
-9297.13
-9296.51
-9296.26
-9296.39
-9296.91
-9297.81
-9299.03
-9300.52
-9302.2
-9303.96
-9305.7
-9307.32
-9308.7
-9309.76
-9310.4
-9310.59
-9310.28
-9309.5
-9308.29
-9306.74
-9304.97
-9303.1
-9301.29
-9299.7
-9298.46
-9297.7
-9297.49
-9297.86
-9298.78
-9300.17
-9301.9
-9303.78
-9305.62
-9307.22
-9308.4
-9309.03
-9309.02
-9308.38
-9307.16
-9305.55
-9303.72
-9301.92
-9300.39
-9299.33
-9298.89
-9299.16
-9300.08
-9301.52
-9303.27
-9305.09
-9306.64
-9307.71
-9308.11
-9307.77
-9306.73
-9305.19
-9303.39
-9301.65
-9300.29
-9299.56
-9299.6
-9300.41
-9301.81
-9303.58
-9305.28
-9306.6
-9307.24
-9307.06
-9306.13
-9304.48
-9302.75
-9301.25
-9300.36
-9422.77
-9422.78
-9422.79
-9422.8
-9422.81
-9422.83
-9422.84
-9422.86
-9460.15
-9460.11
-9460
-9459.87
-9459.71
-9459.52
-9459.32
-9459.1
-9458.89