/*--------------------------------*- C++ -*----------------------------------*\
  =========                 |
  \\      /  F ield         | OpenFOAM: The Open Source CFD Toolbox
   \\    /   O peration     | Website:  https://openfoam.org
    \\  /    A nd           | Version:  12
     \\/     M anipulation  |
\*---------------------------------------------------------------------------*/
FoamFile
{
    format      ascii;
    class       volScalarField;
    location    "800";
    object      epsilon;
}
// * * * * * * * * * * * * * * * * * * * * * * * * * * * * * * * * * * * * * //

dimensions      [0 2 -3 0 0 0 0];

internalField   nonuniform List<scalar> 
80
(
57.0847
343.56
863.538
988.711
855.129
689.289
550.745
443.841
362.167
299.127
249.708
210.35
178.547
152.518
130.974
112.969
97.7923
84.9044
73.8877
64.4151
56.2274
49.1163
42.9135
37.481
32.7054
28.4924
24.7634
21.4521
18.5027
15.8679
13.5079
11.3895
9.4854
7.77527
6.24644
4.89653
3.73686
2.79514
2.11284
1.73836
1.74073
2.11971
2.80587
3.7506
4.91242
6.26385
7.79376
9.50466
11.4093
13.5281
15.8881
18.5227
21.4717
24.7822
28.5101
32.7214
37.4949
42.9246
49.124
56.2307
64.4133
73.8796
84.8888
97.7679
112.934
130.927
152.456
178.468
210.25
249.583
298.972
361.976
443.604
550.451
688.917
854.651
988.091
862.847
343.246
57.0356
)
;

boundaryField
{
    lowerWall
    {
        type            fixedValue;
        value           uniform 1e-08;
    }
    upperWall
    {
        type            fixedValue;
        value           uniform 1e-08;
    }
    front
    {
        type            cyclic;
    }
    back
    {
        type            cyclic;
    }
    defaultFaces
    {
        type            empty;
    }
}


// ************************************************************************* //
