/*--------------------------------*- C++ -*----------------------------------*\
  =========                 |
  \\      /  F ield         | OpenFOAM: The Open Source CFD Toolbox
   \\    /   O peration     | Website:  https://openfoam.org
    \\  /    A nd           | Version:  12
     \\/     M anipulation  |
\*---------------------------------------------------------------------------*/
FoamFile
{
    format      ascii;
    class       volSymmTensorField;
    location    "800";
    object      R;
}
// * * * * * * * * * * * * * * * * * * * * * * * * * * * * * * * * * * * * * //

dimensions      [0 2 -2 0 0 0 0];

internalField   nonuniform List<symmTensor> 
80
(
(0.00557309 -8.50009e-05 -0 0.00557309 -0 0.00557309)
(0.106575 -0.0101725 -0 0.106575 -0 0.106575)
(0.32536 -0.0860793 -0 0.32536 -0 0.32536)
(0.449161 -0.146646 -0 0.449161 -0 0.449161)
(0.496026 -0.17699 -0 0.496026 -0 0.496026)
(0.511833 -0.193651 -0 0.511833 -0 0.511833)
(0.515527 -0.202983 -0 0.515527 -0 0.515527)
(0.514524 -0.208532 -0 0.514524 -0 0.514524)
(0.511745 -0.212009 -0 0.511745 -0 0.511745)
(0.508363 -0.214263 -0 0.508363 -0 0.508363)
(0.504839 -0.215737 -0 0.504839 -0 0.504839)
(0.501334 -0.21667 -0 0.501334 -0 0.501334)
(0.497873 -0.217197 -0 0.497873 -0 0.497873)
(0.494423 -0.217396 -0 0.494423 -0 0.494423)
(0.49092 -0.217307 -0 0.49092 -0 0.49092)
(0.487287 -0.216948 -0 0.487287 -0 0.487287)
(0.483443 -0.216324 -0 0.483443 -0 0.483443)
(0.479302 -0.215426 -0 0.479302 -0 0.479302)
(0.474775 -0.214237 -0 0.474775 -0 0.474775)
(0.469773 -0.212732 -0 0.469773 -0 0.469773)
(0.464202 -0.21088 -0 0.464202 -0 0.464202)
(0.457965 -0.208643 -0 0.457965 -0 0.457965)
(0.450961 -0.20598 -0 0.450961 -0 0.450961)
(0.443082 -0.202839 -0 0.443082 -0 0.443082)
(0.434216 -0.199165 -0 0.434216 -0 0.434216)
(0.424242 -0.194897 -0 0.424242 -0 0.424242)
(0.413031 -0.189963 -0 0.413031 -0 0.413031)
(0.400447 -0.184287 -0 0.400447 -0 0.400447)
(0.386347 -0.177781 -0 0.386347 -0 0.386347)
(0.370583 -0.170347 -0 0.370583 -0 0.370583)
(0.35301 -0.161876 -0 0.35301 -0 0.35301)
(0.333495 -0.152244 -0 0.333495 -0 0.333495)
(0.311945 -0.14131 -0 0.311945 -0 0.311945)
(0.288347 -0.128918 -0 0.288347 -0 0.288347)
(0.262856 -0.114891 -0 0.262856 -0 0.262856)
(0.235946 -0.0990405 -0 0.235946 -0 0.235946)
(0.208657 -0.0811901 -0 0.208657 -0 0.208657)
(0.182914 -0.0611982 -0 0.182914 -0 0.182914)
(0.161726 -0.0388395 -0 0.161726 -0 0.161726)
(0.148967 -0.0134593 -0 0.148967 -0 0.148967)
(0.149081 0.0138143 -0 0.149081 -0 0.149081)
(0.162041 0.0391879 -0 0.162041 -0 0.162041)
(0.183375 0.0615433 -0 0.183375 -0 0.183375)
(0.209206 0.0815305 -0 0.209206 -0 0.209206)
(0.236539 0.0993723 -0 0.236539 -0 0.236539)
(0.263463 0.115212 -0 0.263463 -0 0.263463)
(0.288949 0.129227 -0 0.288949 -0 0.288949)
(0.312533 0.141605 -0 0.312533 -0 0.312533)
(0.334062 0.152524 -0 0.334062 -0 0.334062)
(0.35355 0.162142 -0 0.35355 -0 0.35355)
(0.371095 0.170598 -0 0.371095 -0 0.371095)
(0.386829 0.178016 -0 0.386829 -0 0.386829)
(0.400898 0.184506 -0 0.400898 -0 0.400898)
(0.41345 0.190166 -0 0.41345 -0 0.41345)
(0.424628 0.195082 -0 0.424628 -0 0.424628)
(0.434569 0.199334 -0 0.434569 -0 0.434569)
(0.443401 0.20299 -0 0.443401 -0 0.443401)
(0.451246 0.206114 -0 0.451246 -0 0.451246)
(0.458217 0.20876 -0 0.458217 -0 0.458217)
(0.46442 0.21098 -0 0.46442 -0 0.46442)
(0.469959 0.212815 -0 0.469959 -0 0.469959)
(0.474929 0.214304 -0 0.474929 -0 0.474929)
(0.479424 0.215477 -0 0.479424 -0 0.479424)
(0.483535 0.216361 -0 0.483535 -0 0.483535)
(0.487349 0.216971 -0 0.487349 -0 0.487349)
(0.490953 0.217316 -0 0.490953 -0 0.490953)
(0.494429 0.217392 -0 0.494429 -0 0.494429)
(0.497854 0.217183 -0 0.497854 -0 0.497854)
(0.50129 0.216645 -0 0.50129 -0 0.50129)
(0.504772 0.215703 -0 0.504772 -0 0.504772)
(0.508275 0.214221 -0 0.508275 -0 0.508275)
(0.511638 0.21196 -0 0.511638 -0 0.511638)
(0.5144 0.208479 -0 0.5144 -0 0.5144)
(0.515386 0.202924 -0 0.515386 -0 0.515386)
(0.511679 0.193589 -0 0.511679 -0 0.511679)
(0.495859 0.176925 -0 0.495859 -0 0.495859)
(0.448985 0.146581 -0 0.448985 -0 0.448985)
(0.325189 0.0860209 -0 0.325189 -0 0.325189)
(0.1065 0.0101615 -0 0.1065 -0 0.1065)
(0.0055691 8.49245e-05 -0 0.0055691 -0 0.0055691)
)
;

boundaryField
{
    lowerWall
    {
        type            calculated;
        value           uniform (6.66667e-11 -0 -0 6.66667e-11 -0 6.66667e-11);
    }
    upperWall
    {
        type            calculated;
        value           uniform (6.66667e-11 0 -0 6.66667e-11 -0 6.66667e-11);
    }
    front
    {
        type            cyclic;
    }
    back
    {
        type            cyclic;
    }
    defaultFaces
    {
        type            empty;
    }
}


// ************************************************************************* //
