/*--------------------------------*- C++ -*----------------------------------*\
  =========                 |
  \\      /  F ield         | OpenFOAM: The Open Source CFD Toolbox
   \\    /   O peration     | Website:  https://openfoam.org
    \\  /    A nd           | Version:  12
     \\/     M anipulation  |
\*---------------------------------------------------------------------------*/
FoamFile
{
    format      ascii;
    class       volVectorField;
    location    "800";
    object      U;
}
// * * * * * * * * * * * * * * * * * * * * * * * * * * * * * * * * * * * * * //

dimensions      [0 1 -1 0 0 0 0];

internalField   nonuniform List<vector> 
80
(
(0.646734 0 0)
(1.98733 0 0)
(3.16379 0 0)
(3.9925 0 0)
(4.58159 0 0)
(5.02822 0 0)
(5.38706 0 0)
(5.68963 0 0)
(5.95448 0 0)
(6.19303 0 0)
(6.41261 0 0)
(6.61811 0 0)
(6.81298 0 0)
(6.99968 0 0)
(7.18004 0 0)
(7.35549 0 0)
(7.52713 0 0)
(7.69585 0 0)
(7.86239 0 0)
(8.02736 0 0)
(8.19128 0 0)
(8.35458 0 0)
(8.51766 0 0)
(8.68084 0 0)
(8.8444 0 0)
(9.00857 0 0)
(9.17353 0 0)
(9.3394 0 0)
(9.50622 0 0)
(9.67393 0 0)
(9.84233 0 0)
(10.011 0 0)
(10.1793 0 0)
(10.3459 0 0)
(10.5089 0 0)
(10.6653 0 0)
(10.8101 0 0)
(10.9359 0 0)
(11.0327 0 0)
(11.0883 0 0)
(11.0879 0 0)
(11.0315 0 0)
(10.9342 0 0)
(10.808 0 0)
(10.6629 0 0)
(10.5064 0 0)
(10.3432 0 0)
(10.1765 0 0)
(10.0082 0 0)
(9.83949 0 0)
(9.67108 0 0)
(9.50338 0 0)
(9.33658 0 0)
(9.17075 0 0)
(9.00582 0 0)
(8.8417 0 0)
(8.67819 0 0)
(8.51507 0 0)
(8.35205 0 0)
(8.18882 0 0)
(8.02497 0 0)
(7.86008 0 0)
(7.69362 0 0)
(7.52497 0 0)
(7.35342 0 0)
(7.17806 0 0)
(6.99778 0 0)
(6.81118 0 0)
(6.6164 0 0)
(6.41099 0 0)
(6.19151 0 0)
(5.95305 0 0)
(5.68829 0 0)
(5.38582 0 0)
(5.02706 0 0)
(4.58052 0 0)
(3.99152 0 0)
(3.16292 0 0)
(1.9867 0 0)
(0.646521 0 0)
)
;

boundaryField
{
    lowerWall
    {
        type            noSlip;
    }
    upperWall
    {
        type            noSlip;
    }
    front
    {
        type            cyclic;
    }
    back
    {
        type            cyclic;
    }
    defaultFaces
    {
        type            empty;
    }
}


// ************************************************************************* //
