/*--------------------------------*- C++ -*----------------------------------*\
  =========                 |
  \\      /  F ield         | OpenFOAM: The Open Source CFD Toolbox
   \\    /   O peration     | Website:  https://openfoam.org
    \\  /    A nd           | Version:  12
     \\/     M anipulation  |
\*---------------------------------------------------------------------------*/
FoamFile
{
    format      ascii;
    class       volScalarField;
    location    "13";
    object      p;
}
// * * * * * * * * * * * * * * * * * * * * * * * * * * * * * * * * * * * * * //

dimensions      [1 -1 -2 0 0 0 0];

internalField   nonuniform List<scalar> 
3829
(
-618.312
-618.311
-618.308
-618.304
-618.298
-618.291
-618.282
-618.271
-618.258
-618.244
-618.227
-618.208
-618.187
-618.163
-618.136
-618.107
-618.075
-618.039
-618.001
-617.959
-617.914
-617.866
-617.814
-617.758
-617.7
-617.637
-617.572
-617.503
-617.431
-617.356
-617.278
-617.198
-617.115
-617.031
-616.944
-616.857
-616.768
-616.679
-616.589
-616.499
-616.41
-616.321
-616.234
-616.149
-616.065
-615.984
-615.906
-615.832
-615.761
-615.694
-615.631
-615.573
-615.519
-615.469
-615.425
-615.385
-615.349
-615.318
-615.292
-615.27
-615.252
-615.238
-615.227
-615.219
-615.214
-615.212
-615.211
-615.211
-615.211
-615.212
-615.212
-615.21
-615.206
-615.2
-615.191
-615.178
-615.161
-615.14
-615.113
-615.082
-615.045
-615.003
-614.956
-614.904
-614.848
-614.788
-614.724
-614.658
-614.591
-614.523
-614.455
-614.388
-614.325
-614.265
-614.21
-614.162
-614.12
-614.087
-614.063
-614.048
-614.045
-614.053
-614.072
-614.099
-614.136
-614.18
-614.231
-614.287
-614.346
-614.407
-614.467
-614.524
-614.575
-614.62
-614.656
-614.681
-614.695
-614.695
-614.682
-614.656
-614.617
-614.568
-614.509
-614.443
-614.372
-614.3
-614.229
-614.164
-614.106
-614.059
-614.025
-614.006
-614.002
-614.014
-614.042
-614.082
-614.134
-614.194
-614.257
-614.321
-614.381
-614.433
-614.473
-614.499
-614.509
-614.503
-614.481
-614.445
-614.4
-614.348
-614.294
-614.243
-614.202
-614.172
-614.157
-614.16
-614.181
-614.217
-614.265
-614.323
-614.383
-614.441
-614.49
-614.526
-614.546
-614.546
-614.528
-614.494
-614.448
-614.396
-614.344
-614.296
-614.257
-614.231
-614.223
-614.227
-614.242
-614.263
-614.288
-614.31
-614.327
-614.336
-614.336
-614.33
-614.32
-614.308
-614.3
-614.296
-614.298
-614.305
-614.316
-614.326
-614.334
-614.335
-614.329
-614.315
-614.298
-614.28
-614.264
-614.255
-1776.8
-1776.8
-1776.8
-1776.8
-1776.79
-1776.79
-1776.78
-1776.77
-1776.76
-1776.75
-1776.74
-1776.72
-1776.7
-1776.68
-1776.65
-1776.63
-1776.59
-1776.56
-1776.52
-1776.48
-1776.43
-1776.38
-1776.32
-1776.26
-1776.19
-1776.12
-1776.05
-1775.97
-1775.89
-1775.8
-1775.71
-1775.62
-1775.53
-1775.43
-1775.33
-1775.23
-1775.12
-1775.02
-1774.92
-1774.81
-1774.71
-1774.61
-1774.51
-1774.42
-1774.32
-1774.23
-1774.15
-1774.07
-1773.99
-1773.93
-1773.86
-1773.8
-1773.75
-1773.7
-1773.66
-1773.63
-1773.6
-1773.57
-1773.55
-1773.54
-1773.53
-1773.53
-1773.53
-1773.53
-1773.54
-1773.54
-1773.56
-1773.57
-1773.58
-1773.59
-1773.6
-1773.61
-1773.61
-1773.62
-1773.61
-1773.61
-1773.59
-1773.58
-1773.55
-1773.52
-1773.48
-1773.43
-1773.38
-1773.32
-1773.26
-1773.19
-1773.12
-1773.04
-1772.96
-1772.88
-1772.8
-1772.72
-1772.65
-1772.58
-1772.51
-1772.46
-1772.41
-1772.37
-1772.34
-1772.33
-1772.33
-1772.34
-1772.36
-1772.4
-1772.45
-1772.5
-1772.57
-1772.64
-1772.71
-1772.78
-1772.86
-1772.93
-1772.99
-1773.05
-1773.09
-1773.13
-1773.14
-1773.14
-1773.13
-1773.09
-1773.05
-1772.99
-1772.91
-1772.83
-1772.75
-1772.66
-1772.57
-1772.49
-1772.43
-1772.37
-1772.33
-1772.31
-1772.31
-1772.32
-1772.36
-1772.41
-1772.48
-1772.55
-1772.63
-1772.71
-1772.78
-1772.84
-1772.89
-1772.92
-1772.93
-1772.92
-1772.89
-1772.85
-1772.79
-1772.72
-1772.65
-1772.59
-1772.54
-1772.5
-1772.48
-1772.49
-1772.51
-1772.56
-1772.62
-1772.69
-1772.76
-1772.83
-1772.89
-1772.93
-1772.95
-1772.95
-1772.93
-1772.89
-1772.83
-1772.77
-1772.7
-1772.65
-1772.61
-1772.58
-1772.57
-1772.58
-1772.6
-1772.63
-1772.66
-1772.69
-1772.71
-1772.72
-1772.71
-1772.7
-1772.69
-1772.68
-1772.66
-1772.66
-1772.66
-1772.67
-1772.69
-1772.7
-1772.71
-1772.71
-1772.7
-1772.69
-1772.67
-1772.65
-1772.63
-1772.62
-2803.16
-2803.16
-2803.16
-2803.16
-2803.16
-2803.16
-2803.16
-2803.16
-2803.16
-2803.16
-2803.15
-2803.14
-2803.13
-2803.12
-2803.1
-2803.08
-2803.06
-2803.02
-2802.99
-2802.94
-2802.89
-2802.83
-2802.77
-2802.7
-2802.62
-2802.54
-2802.44
-2802.35
-2802.24
-2802.13
-2802.02
-2801.9
-2801.78
-2801.65
-2801.52
-2801.4
-2801.27
-2801.14
-2801.01
-2800.88
-2800.76
-2800.64
-2800.52
-2800.4
-2800.3
-2800.19
-2800.1
-2800
-2799.92
-2799.84
-2799.77
-2799.71
-2799.66
-2799.62
-2799.58
-2799.55
-2799.53
-2799.52
-2799.52
-2799.52
-2799.53
-2799.54
-2799.56
-2799.59
-2799.62
-2799.65
-2799.68
-2799.71
-2799.75
-2799.78
-2799.81
-2799.83
-2799.86
-2799.87
-2799.88
-2799.88
-2799.88
-2799.87
-2799.85
-2799.81
-2799.77
-2799.71
-2799.65
-2799.58
-2799.5
-2799.41
-2799.32
-2799.22
-2799.12
-2799.02
-2798.92
-2798.82
-2798.72
-2798.63
-2798.55
-2798.48
-2798.42
-2798.37
-2798.34
-2798.32
-2798.33
-2798.34
-2798.38
-2798.43
-2798.49
-2798.57
-2798.66
-2798.76
-2798.86
-2798.96
-2799.06
-2799.16
-2799.25
-2799.32
-2799.38
-2799.42
-2799.45
-2799.45
-2799.42
-2799.38
-2799.32
-2799.24
-2799.14
-2799.03
-2798.92
-2798.8
-2798.69
-2798.58
-2798.49
-2798.42
-2798.37
-2798.34
-2798.34
-2798.37
-2798.42
-2798.49
-2798.58
-2798.69
-2798.79
-2798.9
-2798.99
-2799.08
-2799.14
-2799.18
-2799.19
-2799.17
-2799.13
-2799.06
-2798.98
-2798.89
-2798.79
-2798.71
-2798.64
-2798.59
-2798.57
-2798.57
-2798.6
-2798.66
-2798.74
-2798.84
-2798.93
-2799.02
-2799.1
-2799.15
-2799.18
-2799.17
-2799.14
-2799.08
-2799.01
-2798.93
-2798.85
-2798.78
-2798.73
-2798.7
-2798.69
-2798.71
-2798.74
-2798.78
-2798.83
-2798.86
-2798.89
-2798.9
-2798.89
-2798.88
-2798.85
-2798.83
-2798.81
-2798.81
-2798.81
-2798.83
-2798.85
-2798.87
-2798.88
-2798.88
-2798.88
-2798.86
-2798.83
-2798.8
-2798.78
-2798.76
-3712.36
-3712.36
-3712.37
-3712.38
-3712.39
-3712.4
-3712.42
-3712.44
-3712.46
-3712.48
-3712.5
-3712.52
-3712.53
-3712.54
-3712.54
-3712.53
-3712.52
-3712.5
-3712.47
-3712.43
-3712.38
-3712.31
-3712.24
-3712.15
-3712.05
-3711.94
-3711.82
-3711.69
-3711.55
-3711.41
-3711.25
-3711.09
-3710.93
-3710.76
-3710.59
-3710.41
-3710.24
-3710.07
-3709.9
-3709.74
-3709.58
-3709.43
-3709.28
-3709.14
-3709
-3708.88
-3708.76
-3708.66
-3708.57
-3708.5
-3708.43
-3708.37
-3708.32
-3708.29
-3708.27
-3708.25
-3708.25
-3708.26
-3708.28
-3708.31
-3708.34
-3708.39
-3708.44
-3708.49
-3708.55
-3708.61
-3708.68
-3708.74
-3708.81
-3708.87
-3708.93
-3708.98
-3709.02
-3709.06
-3709.09
-3709.1
-3709.11
-3709.1
-3709.08
-3709.04
-3708.99
-3708.93
-3708.85
-3708.76
-3708.66
-3708.55
-3708.43
-3708.3
-3708.17
-3708.03
-3707.9
-3707.76
-3707.63
-3707.52
-3707.41
-3707.31
-3707.24
-3707.18
-3707.14
-3707.12
-3707.13
-3707.16
-3707.21
-3707.28
-3707.37
-3707.48
-3707.61
-3707.74
-3707.89
-3708.03
-3708.17
-3708.3
-3708.42
-3708.53
-3708.61
-3708.67
-3708.7
-3708.69
-3708.66
-3708.6
-3708.51
-3708.4
-3708.27
-3708.12
-3707.96
-3707.8
-3707.65
-3707.51
-3707.39
-3707.29
-3707.23
-3707.2
-3707.21
-3707.25
-3707.32
-3707.43
-3707.55
-3707.69
-3707.84
-3707.98
-3708.11
-3708.22
-3708.31
-3708.35
-3708.36
-3708.33
-3708.27
-3708.18
-3708.06
-3707.93
-3707.8
-3707.68
-3707.59
-3707.52
-3707.49
-3707.5
-3707.54
-3707.63
-3707.74
-3707.86
-3707.99
-3708.11
-3708.21
-3708.28
-3708.31
-3708.3
-3708.26
-3708.18
-3708.08
-3707.97
-3707.86
-3707.77
-3707.71
-3707.68
-3707.68
-3707.7
-3707.75
-3707.82
-3707.87
-3707.92
-3707.96
-3707.96
-3707.95
-3707.93
-3707.89
-3707.86
-3707.84
-3707.83
-3707.83
-3707.86
-3707.88
-3707.91
-3707.93
-3707.94
-3707.93
-3707.91
-3707.87
-3707.83
-3707.8
-3707.78
-4517.74
-4517.75
-4517.77
-4517.79
-4517.83
-4517.88
-4517.93
-4517.99
-4518.06
-4518.12
-4518.19
-4518.26
-4518.32
-4518.38
-4518.43
-4518.46
-4518.48
-4518.48
-4518.47
-4518.43
-4518.37
-4518.3
-4518.2
-4518.09
-4517.95
-4517.8
-4517.63
-4517.44
-4517.24
-4517.03
-4516.82
-4516.59
-4516.36
-4516.13
-4515.89
-4515.66
-4515.43
-4515.21
-4514.99
-4514.77
-4514.57
-4514.38
-4514.2
-4514.03
-4513.87
-4513.73
-4513.6
-4513.48
-4513.38
-4513.29
-4513.22
-4513.17
-4513.13
-4513.11
-4513.1
-4513.11
-4513.13
-4513.17
-4513.22
-4513.28
-4513.35
-4513.43
-4513.52
-4513.62
-4513.72
-4513.83
-4513.94
-4514.04
-4514.15
-4514.25
-4514.34
-4514.42
-4514.5
-4514.56
-4514.61
-4514.64
-4514.66
-4514.66
-4514.64
-4514.6
-4514.54
-4514.46
-4514.37
-4514.25
-4514.12
-4513.97
-4513.81
-4513.64
-4513.47
-4513.29
-4513.11
-4512.93
-4512.76
-4512.6
-4512.46
-4512.34
-4512.24
-4512.16
-4512.11
-4512.09
-4512.11
-4512.15
-4512.22
-4512.33
-4512.45
-4512.61
-4512.78
-4512.97
-4513.16
-4513.36
-4513.55
-4513.73
-4513.9
-4514.04
-4514.15
-4514.22
-4514.26
-4514.26
-4514.21
-4514.13
-4514.01
-4513.85
-4513.67
-4513.47
-4513.26
-4513.05
-4512.84
-4512.65
-4512.49
-4512.37
-4512.29
-4512.25
-4512.26
-4512.33
-4512.43
-4512.58
-4512.75
-4512.94
-4513.14
-4513.34
-4513.51
-4513.66
-4513.76
-4513.82
-4513.83
-4513.79
-4513.7
-4513.56
-4513.41
-4513.23
-4513.05
-4512.89
-4512.75
-4512.66
-4512.62
-4512.64
-4512.7
-4512.82
-4512.96
-4513.13
-4513.31
-4513.47
-4513.6
-4513.69
-4513.72
-4513.71
-4513.64
-4513.54
-4513.4
-4513.25
-4513.11
-4512.99
-4512.92
-4512.88
-4512.89
-4512.94
-4513.01
-4513.1
-4513.18
-4513.25
-4513.28
-4513.29
-4513.27
-4513.23
-4513.18
-4513.14
-4513.1
-4513.09
-4513.1
-4513.13
-4513.17
-4513.21
-4513.24
-4513.25
-4513.24
-4513.21
-4513.16
-4513.11
-4513.07
-4513.04
-5230.78
-5230.8
-5230.84
-5230.9
-5230.98
-5231.07
-5231.18
-5231.3
-5231.42
-5231.55
-5231.68
-5231.8
-5231.92
-5232.04
-5232.15
-5232.24
-5232.33
-5232.41
-5232.46
-5232.49
-5232.49
-5232.45
-5232.38
-5232.26
-5232.11
-5231.91
-5231.68
-5231.42
-5231.13
-5230.83
-5230.52
-5230.2
-5229.87
-5229.55
-5229.23
-5228.91
-5228.61
-5228.31
-5228.03
-5227.76
-5227.5
-5227.26
-5227.04
-5226.84
-5226.65
-5226.49
-5226.34
-5226.21
-5226.11
-5226.03
-5225.97
-5225.93
-5225.91
-5225.91
-5225.93
-5225.97
-5226.02
-5226.1
-5226.19
-5226.29
-5226.41
-5226.54
-5226.68
-5226.83
-5226.98
-5227.14
-5227.3
-5227.46
-5227.61
-5227.76
-5227.89
-5228.02
-5228.13
-5228.22
-5228.3
-5228.35
-5228.38
-5228.39
-5228.37
-5228.32
-5228.25
-5228.15
-5228.03
-5227.88
-5227.71
-5227.52
-5227.31
-5227.09
-5226.86
-5226.63
-5226.39
-5226.16
-5225.94
-5225.74
-5225.55
-5225.39
-5225.26
-5225.17
-5225.11
-5225.09
-5225.11
-5225.17
-5225.27
-5225.41
-5225.58
-5225.79
-5226.02
-5226.27
-5226.53
-5226.79
-5227.05
-5227.29
-5227.5
-5227.69
-5227.83
-5227.93
-5227.98
-5227.97
-5227.91
-5227.8
-5227.63
-5227.43
-5227.19
-5226.92
-5226.64
-5226.36
-5226.1
-5225.85
-5225.65
-5225.49
-5225.38
-5225.33
-5225.36
-5225.45
-5225.6
-5225.79
-5226.02
-5226.28
-5226.55
-5226.8
-5227.03
-5227.22
-5227.36
-5227.43
-5227.43
-5227.37
-5227.24
-5227.06
-5226.85
-5226.62
-5226.36
-5226.16
-5225.98
-5225.87
-5225.82
-5225.84
-5225.93
-5226.08
-5226.27
-5226.5
-5226.73
-5226.93
-5227.1
-5227.21
-5227.25
-5227.23
-5227.14
-5226.99
-5226.82
-5226.61
-5226.43
-5226.29
-5226.2
-5226.16
-5226.18
-5226.25
-5226.35
-5226.47
-5226.58
-5226.67
-5226.72
-5226.72
-5226.69
-5226.63
-5226.56
-5226.5
-5226.45
-5226.44
-5226.45
-5226.49
-5226.55
-5226.61
-5226.65
-5226.66
-5226.65
-5226.61
-5226.55
-5226.48
-5226.42
-5226.39
-5862.13
-5862.18
-5862.28
-5862.43
-5862.63
-5862.87
-5863.16
-5863.47
-5863.82
-5864.18
-5864.54
-5864.91
-5865.27
-5865.62
-5865.95
-5866.27
-5866.52
-5866.7
-5866.77
-5866.72
-5866.59
-5866.4
-5866.15
-5865.84
-5865.5
-5865.11
-5864.69
-5864.24
-5863.78
-5863.31
-5862.85
-5862.38
-5861.93
-5861.48
-5861.05
-5860.63
-5860.24
-5859.86
-5859.51
-5859.18
-5858.87
-5858.59
-5858.33
-5858.1
-5857.89
-5857.71
-5857.57
-5857.43
-5857.33
-5857.25
-5857.2
-5857.17
-5857.18
-5857.2
-5857.25
-5857.33
-5857.43
-5857.55
-5857.68
-5857.84
-5858.01
-5858.2
-5858.4
-5858.61
-5858.83
-5859.05
-5859.26
-5859.48
-5859.69
-5859.89
-5860.08
-5860.25
-5860.4
-5860.53
-5860.64
-5860.71
-5860.76
-5860.77
-5860.75
-5860.7
-5860.61
-5860.49
-5860.34
-5860.15
-5859.93
-5859.69
-5859.43
-5859.14
-5858.85
-5858.55
-5858.25
-5857.95
-5857.67
-5857.41
-5857.17
-5856.97
-5856.81
-5856.69
-5856.61
-5856.59
-5856.62
-5856.7
-5856.84
-5857.02
-5857.25
-5857.52
-5857.82
-5858.14
-5858.48
-5858.82
-5859.15
-5859.46
-5859.74
-5859.97
-5860.15
-5860.28
-5860.34
-5860.33
-5860.24
-5860.1
-5859.88
-5859.62
-5859.31
-5858.97
-5858.61
-5858.25
-5857.91
-5857.6
-5857.34
-5857.14
-5857.01
-5856.97
-5857
-5857.12
-5857.31
-5857.56
-5857.87
-5858.2
-5858.54
-5858.87
-5859.17
-5859.4
-5859.57
-5859.66
-5859.65
-5859.57
-5859.4
-5859.16
-5858.88
-5858.57
-5858.26
-5857.99
-5857.77
-5857.62
-5857.56
-5857.59
-5857.7
-5857.9
-5858.15
-5858.44
-5858.73
-5859
-5859.21
-5859.34
-5859.39
-5859.35
-5859.23
-5859.04
-5858.81
-5858.55
-5858.33
-5858.16
-5858.04
-5858.01
-5858.04
-5858.14
-5858.28
-5858.43
-5858.58
-5858.68
-5858.74
-5858.74
-5858.69
-5858.61
-5858.52
-5858.43
-5858.37
-5858.36
-5858.38
-5858.44
-5858.51
-5858.58
-5858.64
-5858.66
-5858.64
-5858.59
-5858.51
-5858.43
-5858.36
-5858.31
-6420.16
-6420.25
-6420.42
-6420.7
-6421.08
-6421.52
-6422.02
-6422.56
-6423.2
-6423.79
-6424.38
-6424.94
-6425.47
-6425.93
-6426.29
-6426.53
-6426.69
-6426.75
-6426.8
-6426.84
-6426.89
-6426.91
-6426.85
-6426.65
-6426.35
-6425.92
-6425.4
-6424.81
-6424.18
-6423.54
-6422.9
-6422.28
-6421.68
-6421.1
-6420.55
-6420.03
-6419.55
-6419.09
-6418.67
-6418.29
-6417.94
-6417.62
-6417.33
-6417.08
-6416.86
-6416.66
-6416.5
-6416.38
-6416.29
-6416.23
-6416.2
-6416.2
-6416.23
-6416.29
-6416.38
-6416.5
-6416.65
-6416.82
-6417.02
-6417.23
-6417.47
-6417.72
-6417.99
-6418.27
-6418.55
-6418.84
-6419.13
-6419.41
-6419.68
-6419.95
-6420.19
-6420.41
-6420.61
-6420.78
-6420.92
-6421.02
-6421.08
-6421.11
-6421.08
-6421.02
-6420.91
-6420.76
-6420.57
-6420.33
-6420.06
-6419.76
-6419.43
-6419.08
-6418.71
-6418.34
-6417.96
-6417.59
-6417.24
-6416.92
-6416.62
-6416.37
-6416.17
-6416.02
-6415.93
-6415.91
-6415.95
-6416.06
-6416.23
-6416.46
-6416.75
-6417.1
-6417.47
-6417.88
-6418.31
-6418.73
-6419.15
-6419.53
-6419.88
-6420.17
-6420.4
-6420.55
-6420.62
-6420.61
-6420.5
-6420.31
-6420.04
-6419.71
-6419.31
-6418.89
-6418.44
-6417.99
-6417.56
-6417.18
-6416.86
-6416.62
-6416.47
-6416.42
-6416.47
-6416.62
-6416.86
-6417.19
-6417.57
-6417.99
-6418.42
-6418.83
-6419.2
-6419.49
-6419.7
-6419.8
-6419.79
-6419.67
-6419.45
-6419.15
-6418.79
-6418.4
-6418.02
-6417.67
-6417.4
-6417.21
-6417.14
-6417.18
-6417.33
-6417.58
-6417.9
-6418.26
-6418.62
-6418.95
-6419.21
-6419.37
-6419.43
-6419.37
-6419.21
-6418.97
-6418.68
-6418.37
-6418.09
-6417.88
-6417.74
-6417.71
-6417.76
-6417.89
-6418.07
-6418.27
-6418.45
-6418.58
-6418.65
-6418.64
-6418.58
-6418.47
-6418.35
-6418.24
-6418.16
-6418.14
-6418.17
-6418.25
-6418.34
-6418.44
-6418.51
-6418.53
-6418.51
-6418.45
-6418.35
-6418.25
-6418.16
-6418.1
-6914.11
-6914.25
-6914.51
-6914.9
-6915.43
-6916.13
-6916.99
-6917.98
-6919.04
-6920.12
-6921.19
-6922.23
-6923.19
-6924.07
-6924.85
-6925.54
-6926.13
-6926.63
-6927.01
-6927.26
-6927.3
-6927.03
-6926.54
-6925.88
-6925.09
-6924.17
-6923.15
-6922.04
-6920.98
-6919.96
-6919.01
-6918.13
-6917.32
-6916.58
-6915.91
-6915.29
-6914.73
-6914.22
-6913.76
-6913.34
-6912.96
-6912.62
-6912.31
-6912.05
-6911.83
-6911.64
-6911.49
-6911.37
-6911.29
-6911.24
-6911.24
-6911.27
-6911.33
-6911.43
-6911.57
-6911.74
-6911.94
-6912.17
-6912.42
-6912.71
-6913.01
-6913.34
-6913.68
-6914.03
-6914.39
-6914.75
-6915.12
-6915.47
-6915.82
-6916.14
-6916.45
-6916.73
-6916.98
-6917.19
-6917.36
-6917.49
-6917.57
-6917.6
-6917.58
-6917.5
-6917.37
-6917.19
-6916.95
-6916.67
-6916.34
-6915.97
-6915.56
-6915.13
-6914.68
-6914.22
-6913.77
-6913.32
-6912.89
-6912.49
-6912.13
-6911.83
-6911.58
-6911.4
-6911.3
-6911.27
-6911.33
-6911.46
-6911.68
-6911.97
-6912.33
-6912.75
-6913.22
-6913.72
-6914.24
-6914.76
-6915.27
-6915.74
-6916.17
-6916.52
-6916.8
-6916.98
-6917.06
-6917.03
-6916.9
-6916.66
-6916.33
-6915.92
-6915.44
-6914.91
-6914.36
-6913.82
-6913.3
-6912.84
-6912.45
-6912.16
-6911.98
-6911.93
-6912
-6912.19
-6912.5
-6912.9
-6913.36
-6913.87
-6914.43
-6914.92
-6915.36
-6915.71
-6915.95
-6916.07
-6916.05
-6915.9
-6915.62
-6915.25
-6914.81
-6914.33
-6913.86
-6913.44
-6913.1
-6912.88
-6912.8
-6912.85
-6913.04
-6913.35
-6913.74
-6914.18
-6914.62
-6915.02
-6915.33
-6915.52
-6915.58
-6915.5
-6915.3
-6915
-6914.65
-6914.27
-6913.94
-6913.69
-6913.53
-6913.5
-6913.57
-6913.74
-6913.97
-6914.22
-6914.43
-6914.59
-6914.67
-6914.65
-6914.57
-6914.43
-6914.28
-6914.14
-6914.05
-6914.02
-6914.06
-6914.16
-6914.28
-6914.39
-6914.48
-6914.51
-6914.49
-6914.41
-6914.29
-6914.16
-6914.06
-6913.99
-7349.1
-7349.29
-7349.69
-7350.32
-7351.19
-7352.41
-7353.95
-7355.94
-7358.97
-7361.04
-7362.72
-7364.2
-7365.49
-7366.6
-7367.53
-7368.29
-7368.92
-7369.42
-7369.79
-7370.01
-7369.98
-7369.8
-7369.32
-7368.57
-7367.52
-7366.16
-7364.55
-7361.99
-7360.46
-7359.02
-7357.83
-7356.79
-7355.87
-7355.06
-7354.33
-7353.68
-7353.09
-7352.55
-7352.07
-7351.64
-7351.25
-7350.9
-7350.6
-7350.33
-7350.11
-7349.93
-7349.79
-7349.68
-7349.62
-7349.6
-7349.63
-7349.69
-7349.79
-7349.94
-7350.12
-7350.34
-7350.6
-7350.89
-7351.22
-7351.57
-7351.95
-7352.35
-7352.77
-7353.2
-7353.65
-7354.09
-7354.53
-7354.96
-7355.38
-7355.78
-7356.15
-7356.49
-7356.8
-7357.05
-7357.26
-7357.42
-7357.51
-7357.55
-7357.52
-7357.43
-7357.28
-7357.06
-7356.77
-7356.43
-7356.04
-7355.6
-7355.11
-7354.6
-7354.06
-7353.51
-7352.96
-7352.42
-7351.91
-7351.44
-7351.01
-7350.65
-7350.36
-7350.15
-7350.02
-7350
-7350.07
-7350.23
-7350.5
-7350.85
-7351.29
-7351.79
-7352.35
-7352.96
-7353.58
-7354.21
-7354.81
-7355.38
-7355.88
-7356.3
-7356.63
-7356.84
-7356.94
-7356.9
-7356.74
-7356.45
-7356.05
-7355.55
-7354.97
-7354.34
-7353.68
-7353.03
-7352.42
-7351.87
-7351.41
-7351.07
-7350.87
-7350.81
-7350.9
-7351.14
-7351.51
-7352
-7352.56
-7353.17
-7353.82
-7354.41
-7354.94
-7355.35
-7355.64
-7355.77
-7355.74
-7355.55
-7355.21
-7354.76
-7354.23
-7353.65
-7353.09
-7352.59
-7352.19
-7351.93
-7351.84
-7351.91
-7352.14
-7352.51
-7352.98
-7353.51
-7354.03
-7354.5
-7354.86
-7355.09
-7355.15
-7355.05
-7354.8
-7354.44
-7354.02
-7353.57
-7353.18
-7352.88
-7352.71
-7352.68
-7352.78
-7352.99
-7353.26
-7353.57
-7353.83
-7354.01
-7354.09
-7354.07
-7353.96
-7353.79
-7353.6
-7353.43
-7353.33
-7353.3
-7353.35
-7353.47
-7353.61
-7353.75
-7353.86
-7353.9
-7353.87
-7353.77
-7353.64
-7353.48
-7353.36
-7353.28
-7732.4
-7732.64
-7733.14
-7733.95
-7735.14
-7736.68
-7738.59
-7741.21
-7745.39
-7748.62
-7751.5
-7753.97
-7756.09
-7757.86
-7759.32
-7760.48
-7761.32
-7761.8
-7761.95
-7761.72
-7761.24
-7760.56
-7759.75
-7758.7
-7757.34
-7755.65
-7753.67
-7750.76
-7748.83
-7747.16
-7745.86
-7744.78
-7743.84
-7743.03
-7742.31
-7741.68
-7741.11
-7740.59
-7740.12
-7739.7
-7739.32
-7738.98
-7738.68
-7738.42
-7738.21
-7738.04
-7737.91
-7737.83
-7737.79
-7737.79
-7737.84
-7737.94
-7738.09
-7738.28
-7738.51
-7738.79
-7739.11
-7739.46
-7739.86
-7740.29
-7740.74
-7741.22
-7741.72
-7742.24
-7742.77
-7743.29
-7743.82
-7744.33
-7744.83
-7745.3
-7745.74
-7746.14
-7746.5
-7746.8
-7747.05
-7747.23
-7747.35
-7747.39
-7747.36
-7747.25
-7747.07
-7746.81
-7746.48
-7746.08
-7745.61
-7745.09
-7744.53
-7743.92
-7743.29
-7742.64
-7742
-7741.37
-7740.77
-7740.22
-7739.72
-7739.29
-7738.95
-7738.71
-7738.57
-7738.54
-7738.63
-7738.83
-7739.14
-7739.56
-7740.08
-7740.67
-7741.33
-7742.04
-7742.78
-7743.51
-7744.22
-7744.88
-7745.47
-7745.96
-7746.34
-7746.59
-7746.69
-7746.64
-7746.45
-7746.11
-7745.63
-7745.04
-7744.36
-7743.62
-7742.85
-7742.09
-7741.37
-7740.73
-7740.2
-7739.81
-7739.58
-7739.52
-7739.64
-7739.92
-7740.37
-7740.94
-7741.61
-7742.33
-7743.08
-7743.77
-7744.38
-7744.87
-7745.2
-7745.34
-7745.3
-7745.07
-7744.67
-7744.13
-7743.5
-7742.82
-7742.17
-7741.58
-7741.12
-7740.82
-7740.71
-7740.8
-7741.08
-7741.52
-7742.07
-7742.69
-7743.3
-7743.84
-7744.26
-7744.52
-7744.58
-7744.46
-7744.16
-7743.73
-7743.23
-7742.72
-7742.27
-7741.93
-7741.73
-7741.7
-7741.83
-7742.08
-7742.41
-7742.78
-7743.08
-7743.29
-7743.38
-7743.35
-7743.21
-7743
-7742.78
-7742.58
-7742.46
-7742.43
-7742.49
-7742.63
-7742.8
-7742.97
-7743.09
-7743.14
-7743.1
-7742.99
-7742.83
-7742.65
-7742.51
-7742.42
-8070.18
-8070.29
-8070.5
-8070.8
-8071.13
-8071.47
-8071.79
-8072.2
-8089.44
-8088.92
-8088.56
-8088.03
-8087.45
-8086.85
-8086.27
-8085.69
-8085.15
-8084.64
-8084.16
-8083.72
-8083.32
-8082.95
-8082.62
-8082.33
-8082.09
-8081.88
-8081.72
-8081.61
-8081.54
-8081.52
-8081.56
-8081.64
-8081.77
-8081.96
-8082.19
-8082.48
-8082.81
-8083.19
-8083.62
-8084.08
-8084.58
-8085.12
-8085.68
-8086.27
-8086.87
-8087.48
-8088.1
-8088.7
-8089.3
-8089.88
-8090.42
-8090.93
-8091.4
-8091.81
-8092.16
-8092.45
-8092.66
-8092.79
-8092.84
-8092.8
-8092.68
-8092.46
-8092.16
-8091.78
-8091.32
-8090.78
-8090.18
-8089.53
-8088.83
-8088.1
-8087.36
-8086.61
-8085.89
-8085.2
-8084.56
-8083.99
-8083.5
-8083.11
-8082.84
-8082.68
-8082.65
-8082.75
-8082.99
-8083.35
-8083.84
-8084.44
-8085.13
-8085.89
-8086.71
-8087.56
-8088.4
-8089.22
-8089.98
-8090.66
-8091.22
-8091.65
-8091.93
-8092.04
-8091.99
-8091.75
-8091.35
-8090.8
-8090.12
-8089.34
-8088.49
-8087.6
-8086.72
-8085.9
-8085.16
-8084.56
-8084.12
-8083.86
-8083.79
-8083.94
-8084.28
-8084.79
-8085.46
-8086.23
-8087.07
-8087.93
-8088.72
-8089.42
-8089.98
-8090.35
-8090.51
-8090.45
-8090.17
-8089.7
-8089.08
-8088.35
-8087.57
-8086.82
-8086.15
-8085.62
-8085.28
-8085.16
-8085.27
-8085.59
-8086.1
-8086.74
-8087.45
-8088.15
-8088.77
-8089.25
-8089.54
-8089.6
-8089.45
-8089.1
-8088.6
-8088.03
-8087.44
-8086.93
-8086.54
-8086.33
-8086.31
-8086.46
-8086.76
-8087.14
-8087.58
-8087.91
-8088.15
-8088.25
-8088.2
-8088.03
-8087.79
-8087.53
-8087.3
-8087.16
-8087.13
-8087.21
-8087.37
-8087.57
-8087.76
-8087.9
-8087.96
-8087.92
-8087.79
-8087.61
-8087.4
-8087.23
-8087.14
-8368.24
-8368.27
-8368.33
-8368.4
-8368.49
-8368.62
-8368.98
-8369.31
-8392.73
-8392.36
-8392.06
-8391.66
-8391.22
-8390.74
-8390.26
-8389.78
-8389.3
-8388.85
-8388.41
-8388
-8387.62
-8387.26
-8386.95
-8386.67
-8386.43
-8386.23
-8386.08
-8385.98
-8385.93
-8385.93
-8385.99
-8386.1
-8386.27
-8386.5
-8386.78
-8387.11
-8387.5
-8387.95
-8388.44
-8388.97
-8389.55
-8390.17
-8390.81
-8391.48
-8392.17
-8392.87
-8393.57
-8394.26
-8394.94
-8395.6
-8396.22
-8396.8
-8397.33
-8397.79
-8398.19
-8398.51
-8398.75
-8398.9
-8398.96
-8398.91
-8398.77
-8398.53
-8398.19
-8397.75
-8397.22
-8396.62
-8395.93
-8395.19
-8394.4
-8393.57
-8392.73
-8391.88
-8391.06
-8390.28
-8389.56
-8388.91
-8388.36
-8387.92
-8387.61
-8387.43
-8387.4
-8387.53
-8387.8
-8388.21
-8388.77
-8389.45
-8390.24
-8391.11
-8392.04
-8393
-8393.96
-8394.88
-8395.74
-8396.51
-8397.14
-8397.63
-8397.94
-8398.06
-8397.99
-8397.72
-8397.26
-8396.64
-8395.86
-8394.97
-8394
-8392.99
-8392.01
-8391.07
-8390.25
-8389.57
-8389.07
-8388.78
-8388.72
-8388.89
-8389.29
-8389.88
-8390.64
-8391.52
-8392.47
-8393.43
-8394.34
-8395.13
-8395.75
-8396.16
-8396.34
-8396.26
-8395.94
-8395.4
-8394.69
-8393.86
-8392.97
-8392.12
-8391.36
-8390.76
-8390.39
-8390.26
-8390.39
-8390.76
-8391.35
-8392.07
-8392.88
-8393.67
-8394.36
-8394.9
-8395.21
-8395.28
-8395.1
-8394.7
-8394.13
-8393.48
-8392.82
-8392.24
-8391.81
-8391.58
-8391.56
-8391.75
-8392.1
-8392.52
-8393.03
-8393.41
-8393.67
-8393.78
-8393.72
-8393.52
-8393.24
-8392.94
-8392.68
-8392.52
-8392.49
-8392.58
-8392.77
-8393
-8393.22
-8393.38
-8393.44
-8393.39
-8393.25
-8393.04
-8392.81
-8392.62
-8392.51
-8632.53
-8632.57
-8632.65
-8632.8
-8633.02
-8633.28
-8633.32
-8633.3
-8661.42
-8661.2
-8661
-8660.72
-8660.38
-8659.97
-8659.57
-8659.14
-8658.71
-8658.29
-8657.88
-8657.48
-8657.11
-8656.77
-8656.46
-8656.18
-8655.95
-8655.76
-8655.62
-8655.53
-8655.49
-8655.51
-8655.59
-8655.73
-8655.93
-8656.2
-8656.52
-8656.91
-8657.36
-8657.86
-8658.42
-8659.02
-8659.68
-8660.37
-8661.09
-8661.85
-8662.62
-8663.4
-8664.19
-8664.97
-8665.73
-8666.46
-8667.16
-8667.81
-8668.4
-8668.92
-8669.37
-8669.73
-8669.99
-8670.16
-8670.22
-8670.17
-8670.01
-8669.73
-8669.35
-8668.86
-8668.27
-8667.59
-8666.82
-8665.99
-8665.11
-8664.18
-8663.23
-8662.29
-8661.37
-8660.5
-8659.69
-8658.97
-8658.36
-8657.87
-8657.52
-8657.33
-8657.3
-8657.44
-8657.75
-8658.22
-8658.84
-8659.61
-8660.49
-8661.47
-8662.51
-8663.59
-8664.66
-8665.69
-8666.65
-8667.5
-8668.21
-8668.74
-8669.09
-8669.22
-8669.13
-8668.83
-8668.31
-8667.6
-8666.73
-8665.74
-8664.65
-8663.53
-8662.43
-8661.39
-8660.47
-8659.72
-8659.17
-8658.85
-8658.79
-8658.99
-8659.44
-8660.11
-8660.96
-8661.95
-8663.01
-8664.09
-8665.09
-8665.97
-8666.66
-8667.12
-8667.3
-8667.21
-8666.85
-8666.24
-8665.43
-8664.5
-8663.51
-8662.56
-8661.71
-8661.05
-8660.64
-8660.5
-8660.65
-8661.08
-8661.73
-8662.55
-8663.44
-8664.32
-8665.1
-8665.69
-8666.03
-8666.1
-8665.88
-8665.43
-8664.8
-8664.06
-8663.33
-8662.69
-8662.22
-8661.97
-8661.96
-8662.18
-8662.58
-8663.06
-8663.62
-8664.04
-8664.34
-8664.45
-8664.37
-8664.14
-8663.82
-8663.48
-8663.2
-8663.02
-8662.99
-8663.1
-8663.31
-8663.56
-8663.81
-8663.99
-8664.06
-8664.01
-8663.84
-8663.61
-8663.36
-8663.15
-8663.03
-8866.49
-8866.51
-8866.54
-8866.58
-8866.58
-8866.53
-8866.43
-8866.58
-8899.68
-8899.54
-8899.37
-8899.15
-8898.86
-8898.51
-8898.14
-8897.75
-8897.35
-8896.95
-8896.55
-8896.17
-8895.8
-8895.46
-8895.15
-8894.87
-8894.64
-8894.45
-8894.31
-8894.23
-8894.21
-8894.25
-8894.35
-8894.51
-8894.75
-8895.05
-8895.42
-8895.85
-8896.35
-8896.91
-8897.53
-8898.21
-8898.94
-8899.7
-8900.51
-8901.34
-8902.2
-8903.07
-8903.94
-8904.8
-8905.64
-8906.45
-8907.22
-8907.94
-8908.59
-8909.17
-8909.66
-8910.05
-8910.34
-8910.53
-8910.59
-8910.53
-8910.35
-8910.05
-8909.63
-8909.08
-8908.43
-8907.68
-8906.83
-8905.91
-8904.93
-8903.91
-8902.86
-8901.82
-8900.81
-8899.84
-8898.95
-8898.16
-8897.48
-8896.95
-8896.57
-8896.36
-8896.33
-8896.48
-8896.83
-8897.35
-8898.05
-8898.89
-8899.87
-8900.95
-8902.1
-8903.29
-8904.47
-8905.61
-8906.67
-8907.61
-8908.38
-8908.97
-8909.34
-8909.48
-8909.38
-8909.04
-8908.47
-8907.68
-8906.72
-8905.61
-8904.42
-8903.18
-8901.96
-8900.82
-8899.81
-8898.99
-8898.39
-8898.05
-8897.99
-8898.22
-8898.71
-8899.46
-8900.41
-8901.5
-8902.67
-8903.86
-8904.97
-8905.93
-8906.69
-8907.18
-8907.38
-8907.27
-8906.86
-8906.18
-8905.29
-8904.26
-8903.17
-8902.12
-8901.19
-8900.46
-8900.01
-8899.86
-8900.04
-8900.51
-8901.24
-8902.14
-8903.13
-8904.1
-8904.95
-8905.59
-8905.96
-8906.03
-8905.79
-8905.28
-8904.57
-8903.77
-8902.96
-8902.26
-8901.74
-8901.48
-8901.48
-8901.74
-8902.18
-8902.72
-8903.33
-8903.8
-8904.12
-8904.23
-8904.14
-8903.89
-8903.53
-8903.15
-8902.83
-8902.64
-8902.61
-8902.73
-8902.96
-8903.25
-8903.52
-8903.72
-8903.8
-8903.74
-8903.56
-8903.3
-8903.02
-8902.79
-8902.66
-9073.71
-9073.72
-9073.73
-9073.75
-9073.75
-9073.76
-9073.76
-9073.8
-9110.92
-9110.81
-9110.66
-9110.45
-9110.19
-9109.87
-9109.52
-9109.15
-9108.76
-9108.36
-9107.97
-9107.58
-9107.21
-9106.86
-9106.55
-9106.27
-9106.03
-9105.84
-9105.71
-9105.63
-9105.62
-9105.67
-9105.79
-9105.98
-9106.25
-9106.58
-9106.99
-9107.47
-9108.02
-9108.64
-9109.32
-9110.07
-9110.86
-9111.7
-9112.59
-9113.5
-9114.44
-9115.39
-9116.34
-9117.28
-9118.2
-9119.08
-9119.92
-9120.7
-9121.42
-9122.04
-9122.58
-9123.01
-9123.33
-9123.52
-9123.59
-9123.53
-9123.33
-9123
-9122.53
-9121.94
-9121.22
-9120.4
-9119.47
-9118.47
-9117.39
-9116.28
-9115.13
-9114
-9112.89
-9111.84
-9110.87
-9110
-9109.27
-9108.68
-9108.27
-9108.04
-9108.02
-9108.19
-9108.57
-9109.15
-9109.91
-9110.84
-9111.91
-9113.09
-9114.35
-9115.64
-9116.93
-9118.18
-9119.33
-9120.35
-9121.19
-9121.83
-9122.23
-9122.38
-9122.26
-9121.88
-9121.25
-9120.39
-9119.34
-9118.13
-9116.82
-9115.47
-9114.15
-9112.91
-9111.81
-9110.91
-9110.26
-9109.9
-9109.85
-9110.1
-9110.65
-9111.47
-9112.51
-9113.7
-9114.99
-9116.28
-9117.48
-9118.53
-9119.35
-9119.89
-9120.1
-9119.97
-9119.51
-9118.77
-9117.79
-9116.66
-9115.47
-9114.32
-9113.31
-9112.52
-9112.03
-9111.88
-9112.07
-9112.6
-9113.4
-9114.38
-9115.46
-9116.52
-9117.44
-9118.13
-9118.53
-9118.59
-9118.32
-9117.76
-9116.99
-9116.11
-9115.23
-9114.47
-9113.92
-9113.64
-9113.65
-9113.94
-9114.43
-9115.03
-9115.68
-9116.2
-9116.54
-9116.66
-9116.56
-9116.27
-9115.87
-9115.46
-9115.11
-9114.91
-9114.87
-9115.01
-9115.26
-9115.58
-9115.88
-9116.09
-9116.17
-9116.11
-9115.91
-9115.63
-9115.33
-9115.08
-9114.94
-9257.27
-9257.27
-9257.28
-9257.28
-9257.29
-9257.3
-9257.3
-9257.31
-9298.14
-9298.04
-9297.89
-9297.7
-9297.45
-9297.14
-9296.8
-9296.43
-9296.04
-9295.64
-9295.24
-9294.84
-9294.46
-9294.1
-9293.78
-9293.49
-9293.25
-9293.06
-9292.93
-9292.85
-9292.85
-9292.91
-9293.05
-9293.26
-9293.55
-9293.92
-9294.37
-9294.89
-9295.49
-9296.17
-9296.91
-9297.71
-9298.58
-9299.49
-9300.44
-9301.43
-9302.45
-9303.47
-9304.5
-9305.52
-9306.51
-9307.47
-9308.38
-9309.22
-9309.99
-9310.67
-9311.24
-9311.71
-9312.05
-9312.26
-9312.33
-9312.26
-9312.05
-9311.68
-9311.18
-9310.53
-9309.76
-9308.87
-9307.87
-9306.78
-9305.62
-9304.42
-9303.17
-9301.95
-9300.75
-9299.61
-9298.56
-9297.63
-9296.83
-9296.2
-9295.76
-9295.52
-9295.49
-9295.69
-9296.1
-9296.73
-9297.55
-9298.56
-9299.72
-9301
-9302.36
-9303.76
-9305.16
-9306.5
-9307.74
-9308.84
-9309.75
-9310.43
-9310.86
-9311.02
-9310.89
-9310.47
-9309.78
-9308.85
-9307.71
-9306.4
-9304.99
-9303.53
-9302.1
-9300.76
-9299.58
-9298.62
-9297.92
-9297.54
-9297.48
-9297.76
-9298.37
-9299.26
-9300.38
-9301.68
-9303.07
-9304.46
-9305.76
-9306.89
-9307.77
-9308.34
-9308.56
-9308.41
-9307.92
-9307.1
-9306.04
-9304.82
-9303.53
-9302.29
-9301.2
-9300.36
-9299.83
-9299.67
-9299.89
-9300.46
-9301.33
-9302.4
-9303.56
-9304.7
-9305.69
-9306.43
-9306.86
-9306.92
-9306.62
-9306.01
-9305.17
-9304.22
-9303.27
-9302.45
-9301.86
-9301.57
-9301.59
-9301.91
-9302.45
-9303.11
-9303.8
-9304.36
-9304.73
-9304.85
-9304.73
-9304.42
-9303.98
-9303.53
-9303.16
-9302.94
-9302.9
-9303.05
-9303.33
-9303.68
-9304
-9304.23
-9304.32
-9304.25
-9304.03
-9303.73
-9303.41
-9303.14
-9302.99
-9419.86
-9419.86
-9419.87
-9419.88
-9419.88
-9419.89
-9419.89
-9419.9
-9464.05
-9463.97
-9463.82
-9463.63
-9463.37