/*--------------------------------*- C++ -*----------------------------------*\
  =========                 |
  \\      /  F ield         | OpenFOAM: The Open Source CFD Toolbox
   \\    /   O peration     | Website:  https://openfoam.org
    \\  /    A nd           | Version:  12
     \\/     M anipulation  |
\*---------------------------------------------------------------------------*/
FoamFile
{
    format      ascii;
    class       volScalarField;
    location    "13";
    object      p_rgh;
}
// * * * * * * * * * * * * * * * * * * * * * * * * * * * * * * * * * * * * * //

dimensions      [1 -1 -2 0 0 0 0];

internalField   nonuniform List<scalar> 
3829
(
-4.07353
-4.07218
-4.06944
-4.06525
-4.05954
-4.05223
-4.04324
-4.03248
-4.01985
-4.00522
-3.98848
-3.9695
-3.94815
-3.92428
-3.89776
-3.86846
-3.83624
-3.80097
-3.76254
-3.72084
-3.6758
-3.62735
-3.57544
-3.52005
-3.4612
-3.39893
-3.33329
-3.26441
-3.19239
-3.11741
-3.03967
-2.95938
-2.87681
-2.79222
-2.70592
-2.61824
-2.52951
-2.4401
-2.35036
-2.26066
-2.1714
-2.08297
-1.99578
-1.91024
-1.82676
-1.74581
-1.66792
-1.5934
-1.52253
-1.45559
-1.39281
-1.33437
-1.28042
-1.23105
-1.18633
-1.14627
-1.11084
-1.07998
-1.05359
-1.03149
-1.01349
-0.999298
-0.988589
-0.980978
-0.976033
-0.973269
-0.97217
-0.97219
-0.972973
-0.973386
-0.973082
-0.971442
-0.967855
-0.961725
-0.952483
-0.939606
-0.922636
-0.901168
-0.874907
-0.843695
-0.806917
-0.764806
-0.717624
-0.665703
-0.609435
-0.549283
-0.485865
-0.419939
-0.352359
-0.284071
-0.216218
-0.149878
-0.0862357
-0.0264701
0.0282455
0.0767858
0.118125
0.151371
0.175819
0.190914
0.193146
0.18495
0.166743
0.139068
0.102624
0.0583421
0.0074567
-0.0484948
-0.107772
-0.168365
-0.228188
-0.285116
-0.336993
-0.381766
-0.417554
-0.442753
-0.456129
-0.456927
-0.443814
-0.417527
-0.378962
-0.329339
-0.270356
-0.204222
-0.133518
-0.0613654
0.00905455
0.0746526
0.132338
0.179346
0.213354
0.232745
0.236614
0.224186
0.196755
0.155976
0.104259
0.04476
-0.0189064
-0.0829499
-0.142497
-0.194113
-0.234314
-0.260396
-0.270624
-0.264476
-0.242456
-0.206984
-0.161163
-0.109075
-0.0554631
-0.00502578
0.0369135
0.0666157
0.0810212
0.0784853
0.0578671
0.0217185
-0.0269581
-0.0845159
-0.144804
-0.202179
-0.251397
-0.287731
-0.307895
-0.307306
-0.289068
-0.255353
-0.209975
-0.157856
-0.105168
-0.0573313
-0.018881
0.00734807
0.0159154
0.0117451
-0.00307705
-0.0249978
-0.049423
-0.0716505
-0.0885007
-0.0979512
-0.0979105
-0.0914883
-0.0810844
-0.0699104
-0.061438
-0.0576745
-0.0597251
-0.066961
-0.0774039
-0.0878728
-0.0950842
-0.0963469
-0.0906027
-0.0762967
-0.0595259
-0.041283
-0.025788
-0.0168198
-4.19481
-4.19387
-4.19193
-4.18892
-4.18475
-4.17931
-4.17247
-4.16407
-4.15393
-4.14185
-4.12764
-4.11107
-4.09192
-4.07
-4.04508
-4.01693
-3.98531
-3.95
-3.91078
-3.86746
-3.8199
-3.76796
-3.71157
-3.6507
-3.58535
-3.51559
-3.44153
-3.36333
-3.28118
-3.19528
-3.10588
-3.01329
-2.91786
-2.81997
-2.72007
-2.61859
-2.51601
-2.41283
-2.30955
-2.20667
-2.10467
-2.00402
-1.90513
-1.80834
-1.71376
-1.62501
-1.54082
-1.46135
-1.38682
-1.31746
-1.25345
-1.19495
-1.1421
-1.09496
-1.05359
-1.01797
-0.988055
-0.963736
-0.944842
-0.931148
-0.922366
-0.918129
-0.917996
-0.921454
-0.927937
-0.93683
-0.947457
-0.95912
-0.971054
-0.982497
-0.992685
-1.00084
-1.00621
-1.00806
-1.00569
-0.99846
-0.985794
-0.967194
-0.94223
-0.910337
-0.871415
-0.825724
-0.773518
-0.715132
-0.651029
-0.581822
-0.508311
-0.431452
-0.352333
-0.272163
-0.192319
-0.114185
-0.039241
0.0310248
0.0951472
0.151702
0.199401
0.237088
0.263804
0.278768
0.27993
0.268464
0.244739
0.2093
0.162991
0.107044
0.0430567
-0.0270634
-0.10117
-0.176745
-0.251186
-0.32189
-0.386201
-0.441598
-0.485794
-0.516863
-0.53325
-0.533774
-0.517752
-0.485707
-0.438549
-0.377799
-0.305644
-0.224888
-0.138716
-0.0510195
0.0343018
0.113461
0.182671
0.238568
0.27834
0.29991
0.302261
0.28508
0.249591
0.197857
0.132984
0.058933
-0.0197533
-0.0980645
-0.170729
-0.233184
-0.281321
-0.311977
-0.323007
-0.312487
-0.282936
-0.237051
-0.178756
-0.113091
-0.0458335
0.0171614
0.0691953
0.10588
0.123472
0.119878
0.0949162
0.0508526
-0.0084724
-0.0783278
-0.15121
-0.220057
-0.278516
-0.320813
-0.342852
-0.341487
-0.318644
-0.277136
-0.221951
-0.159153
-0.0968543
-0.0414598
0.00130017
0.0273992
0.0363667
0.0286145
0.00791297
-0.0208501
-0.05157
-0.0787604
-0.0982509
-0.107438
-0.1064
-0.0968383
-0.0824278
-0.0674341
-0.0562553
-0.0514263
-0.0542065
-0.0635862
-0.0773252
-0.0910546
-0.100759
-0.103042
-0.0963476
-0.081031
-0.0605952
-0.0385415
-0.019868
-0.0090574
-4.39018
-4.39042
-4.39087
-4.39144
-4.39203
-4.39245
-4.39247
-4.3918
-4.39013
-4.38712
-4.38239
-4.37543
-4.36571
-4.35263
-4.33565
-4.31423
-4.28784
-4.25601
-4.21829
-4.17432
-4.12379
-4.06646
-4.00217
-3.93086
-3.85255
-3.76735
-3.67549
-3.57727
-3.47311
-3.36351
-3.24907
-3.13042
-3.00823
-2.88318
-2.75599
-2.62736
-2.498
-2.36867
-2.24012
-2.11311
-1.98838
-1.86673
-1.74897
-1.63597
-1.52886
-1.42477
-1.32688
-1.23563
-1.15153
-1.07497
-1.00622
-0.945507
-0.892963
-0.848656
-0.812603
-0.784731
-0.764907
-0.752896
-0.748354
-0.750824
-0.759782
-0.774618
-0.79466
-0.819151
-0.847263
-0.878111
-0.910758
-0.944203
-0.977421
-1.00935
-1.03893
-1.06512
-1.08688
-1.10324
-1.11333
-1.11635
-1.11166
-1.09885
-1.07774
-1.04226
-0.997984
-0.944672
-0.882344
-0.811289
-0.73207
-0.645531
-0.552771
-0.455124
-0.354096
-0.251366
-0.148809
-0.0483462
0.0479616
0.138095
0.220024
0.291777
0.351599
0.397888
0.429311
0.444843
0.443294
0.425015
0.390292
0.339772
0.274622
0.196596
0.107893
0.0111215
-0.0908025
-0.194344
-0.29608
-0.392449
-0.479892
-0.554968
-0.614589
-0.656149
-0.677694
-0.677835
-0.656
-0.612628
-0.548916
-0.467016
-0.370014
-0.261796
-0.146675
-0.0299704
0.0830739
0.187356
0.277855
0.350069
0.400213
0.425684
0.424769
0.398047
0.346901
0.274302
0.184612
0.0833288
-0.0234417
-0.128556
-0.225303
-0.307453
-0.36972
-0.408491
-0.422918
-0.401706
-0.357433
-0.291964
-0.210302
-0.119126
-0.0260854
0.0596926
0.130578
0.180042
0.203236
0.197693
0.163909
0.104507
0.0249917
-0.0677735
-0.164205
-0.254351
-0.329871
-0.383083
-0.408831
-0.405052
-0.372865
-0.316443
-0.242732
-0.159822
-0.0796079
-0.0101316
0.0412143
0.0696925
0.075636
0.0596697
0.0273081
-0.0145418
-0.057143
-0.0935087
-0.117923
-0.127339
-0.122785
-0.106646
-0.0843956
-0.0621076
-0.0458683
-0.0391833
-0.043613
-0.0577916
-0.0772614
-0.0970968
-0.111524
-0.115922
-0.108076
-0.0890845
-0.0624091
-0.0334745
-0.00893853
0.0052567
-4.55147
-4.55461
-4.56092
-4.57031
-4.5826
-4.5975
-4.6146
-4.63337
-4.65314
-4.67297
-4.69177
-4.70829
-4.72129
-4.72953
-4.73189
-4.72735
-4.71502
-4.69402
-4.66349
-4.62266
-4.57087
-4.50763
-4.4326
-4.3457
-4.24704
-4.13703
-4.01629
-3.88566
-3.74614
-3.5987
-3.44423
-3.28383
-3.11866
-2.94997
-2.77902
-2.60705
-2.43533
-2.26503
-2.09729
-1.93315
-1.77362
-1.61957
-1.47175
-1.33074
-1.19674
-1.06977
-0.957661
-0.856923
-0.76709
-0.688103
-0.620038
-0.563002
-0.517101
-0.482358
-0.458744
-0.446114
-0.44421
-0.452645
-0.470921
-0.498405
-0.534351
-0.577873
-0.627992
-0.683623
-0.74359
-0.806641
-0.87144
-0.936592
-1.00064
-1.06211
-1.11952
-1.1714
-1.21631
-1.25287
-1.27977
-1.2958
-1.2999
-1.291
-1.26824
-1.23377
-1.18504
-1.12222
-1.04576
-0.956308
-0.854886
-0.742798
-0.621654
-0.493353
-0.360049
-0.224116
-0.088187
0.0450324
0.172704
0.291978
0.399983
0.494049
0.571679
0.630649
0.66914
0.685805
0.680013
0.651384
0.600173
0.527305
0.434476
0.32414
0.199383
0.0638666
-0.0783644
-0.222452
-0.363625
-0.497003
-0.61767
-0.721022
-0.802767
-0.8593
-0.887891
-0.88695
-0.855992
-0.795518
-0.707224
-0.594221
-0.460922
-0.312711
-0.155678
0.00285154
0.155814
0.296137
0.416968
0.512311
0.577246
0.607814
0.601569
0.560032
0.485452
0.382106
0.256141
0.115207
-0.0321735
-0.175989
-0.307141
-0.416888
-0.497802
-0.544031
-0.551518
-0.525307
-0.462622
-0.369583
-0.254303
-0.126269
0.00458018
0.123416
0.220906
0.288324
0.319291
0.31041
0.263131
0.180974
0.0719152
-0.0542691
-0.184595
-0.305239
-0.405022
-0.473718
-0.504461
-0.496076
-0.449516
-0.371144
-0.270498
-0.157785
-0.0520245
0.0371455
0.100364
0.131839
0.132087
0.103239
0.0533478
-0.00778358
-0.0676407
-0.116976
-0.148078
-0.157394
-0.146748
-0.120384
-0.0863212
-0.0532473
-0.0297112
-0.0205206
-0.0274994
-0.0482644
-0.0769515
-0.105915
-0.127252
-0.134707
-0.125449
-0.100656
-0.0650632
-0.0263038
0.00661582
0.0256291
-4.64307
-4.65231
-4.67097
-4.69904
-4.73636
-4.78241
-4.83628
-4.89652
-4.9616
-5.02958
-5.09837
-5.16557
-5.22878
-5.28528
-5.33217
-5.36654
-5.38591
-5.38796
-5.37134
-5.33479
-5.27862
-5.20229
-5.10599
-4.98995
-4.85478
-4.70144
-4.53142
-4.34644
-4.14851
-3.93953
-3.7214
-3.49616
-3.26597
-3.03292
-2.79902
-2.56615
-2.33609
-2.11052
-1.89093
-1.6788
-1.47549
-1.28226
-1.10037
-0.931134
-0.776052
-0.63669
-0.504959
-0.387352
-0.284985
-0.198387
-0.127805
-0.0733299
-0.0349087
-0.0123997
-0.00551034
-0.0137903
-0.0366477
-0.0733325
-0.122968
-0.18456
-0.257003
-0.339036
-0.429294
-0.526258
-0.628296
-0.733693
-0.840609
-0.94714
-1.0513
-1.15109
-1.24452
-1.32959
-1.4043
-1.46683
-1.51542
-1.54847
-1.56459
-1.56265
-1.54171
-1.50292
-1.44459
-1.36674
-1.26985
-1.15485
-1.02318
-0.876613
-0.717405
-0.548196
-0.371927
-0.191889
-0.0117034
0.164933
0.334082
0.491807
0.634267
0.757775
0.858915
0.934632
0.982437
1.00044
0.988787
0.946167
0.872873
0.770286
0.640822
0.487888
0.315722
0.129325
-0.0657237
-0.262759
-0.455391
-0.636934
-0.800689
-0.940384
-1.05049
-1.12616
-1.16355
-1.16033
-1.11669
-1.03304
-0.911866
-0.757685
-0.576547
-0.375826
-0.163973
0.0491135
0.253882
0.440704
0.600446
0.725233
0.808858
0.847225
0.83134
0.769028
0.662978
0.519016
0.345419
0.152523
-0.0484065
-0.242599
-0.418314
-0.563753
-0.668938
-0.726385
-0.731627
-0.690046
-0.59998
-0.46954
-0.310048
-0.134363
0.0486118
0.209571
0.340921
0.430949
0.471144
0.457421
0.391542
0.279041
0.131037
-0.0390496
-0.213429
-0.373481
-0.504276
-0.592349
-0.628861
-0.61317
-0.546914
-0.439674
-0.304569
-0.15022
-0.012657
0.101031
0.178674
0.213035
0.204619
0.157962
0.084461
-0.00222948
-0.0845794
-0.150337
-0.189392
-0.197717
-0.178052
-0.137524
-0.0875032
-0.0400959
-0.00710495
0.00504162
-0.00570467
-0.0356272
-0.0765282
-0.117609
-0.148037
-0.15956
-0.148256
-0.115772
-0.0686233
-0.0171777
0.026564
0.0518329
-4.30806
-4.3277
-4.36706
-4.42566
-4.50259
-4.59543
-4.70451
-4.822
-4.94654
-5.07465
-5.20335
-5.32943
-5.45063
-5.5652
-5.67246
-5.77105
-5.85913
-5.93385
-5.98892
-6.01836
-6.01712
-5.98076
-5.90549
-5.78904
-5.63156
-5.43539
-5.20475
-4.94461
-4.66076
-4.35898
-4.04514
-3.72395
-3.39945
-3.07514
-2.7541
-2.43904
-2.13239
-1.83623
-1.55237
-1.28234
-1.02744
-0.78892
-0.567613
-0.364258
-0.179468
-0.0129252
0.136299
0.25893
0.360445
0.441774
0.502962
0.543938
0.564707
0.565451
0.546547
0.508529
0.452142
0.37835
0.288271
0.183206
0.0646477
-0.0657248
-0.206076
-0.354379
-0.508488
-0.666111
-0.824824
-0.982122
-1.13539
-1.28194
-1.41915
-1.54443
-1.65522
-1.74907
-1.8238
-1.87721
-1.90752
-1.9133
-1.89317
-1.84809
-1.7767
-1.67897
-1.55562
-1.40797
-1.23791
-1.04786
-0.840849
-0.62039
-0.390425
-0.155357
0.0799351
0.310535
0.531143
0.736585
0.921765
1.08171
1.2119
1.30832
1.36765
1.38731
1.36794
1.30743
1.2063
1.06655
0.891515
0.685732
0.454862
0.205657
-0.0543594
-0.316573
-0.572401
-0.81283
-1.02923
-1.21315
-1.35722
-1.45548
-1.50322
-1.49648
-1.43617
-1.32306
-1.16076
-0.955347
-0.714884
-0.44943
-0.169806
0.110142
0.378072
0.621279
0.827699
0.987118
1.0921
1.14038
1.10997
1.02186
0.876993
0.682752
0.450322
0.193244
-0.0739062
-0.329871
-0.559813
-0.748441
-0.882851
-0.953812
-0.956225
-0.893381
-0.767656
-0.58998
-0.375915
-0.145758
0.110537
0.318425
0.490222
0.607367
0.658131
0.63752
0.547788
0.397278
0.200913
-0.0232471
-0.251376
-0.459298
-0.627417
-0.738222
-0.780986
-0.754682
-0.663023
-0.51996
-0.346916
-0.132161
0.0390217
0.18153
0.275791
0.312501
0.292139
0.222538
0.119258
0.00073579
-0.109144
-0.194387
-0.24219
-0.248139
-0.216305
-0.157508
-0.0873333
-0.0219707
0.0224433
0.0377801
0.0218639
-0.019855
-0.0760891
-0.132251
-0.173887
-0.190325
-0.176374
-0.13439
-0.0730947
-0.00620447
0.0506685
0.0835258
-3.70065
-3.75015
-3.84987
-3.99925
-4.19662
-4.43842
-4.72156
-5.03951
-5.38544
-5.74562
-6.10848
-6.47648
-6.83715
-7.1827
-7.52093
-7.83279
-8.08454
-8.26872
-8.3347
-8.28941
-8.16034
-7.96397
-7.71161
-7.40962
-7.06421
-6.6784
-6.25884
-5.80991
-5.34734
-4.88023
-4.41245
-3.94793
-3.4912
-3.04591
-2.61508
-2.20109
-1.80583
-1.4308
-1.07724
-0.746298
-0.438983
-0.155996
0.101884
0.33411
0.540247
0.719066
0.868883
0.999794
1.10495
1.18328
1.23478
1.25971
1.25855
1.23192
1.18062
1.10556
1.00784
0.888729
0.749716
0.592474
0.418902
0.231163
0.0316004
-0.177188
-0.392458
-0.611286
-0.830578
-1.04712
-1.25753
-1.45843
-1.64647
-1.81829
-1.97058
-2.10038
-2.20471
-2.28099
-2.32693
-2.34061
-2.32053
-2.26707
-2.1791
-2.05679
-1.90115
-1.71395
-1.49765
-1.25541
-0.991162
-0.709484
-0.415539
-0.114948
0.185872
0.480507
0.762175
1.02417
1.25984
1.46281
1.62727
1.74804
1.82086
1.84242
1.8133
1.73102
1.59651
1.41248
1.18325
0.91479
0.61451
0.291129
-0.0457637
-0.384664
-0.714605
-1.02411
-1.30186
-1.53726
-1.72068
-1.84425
-1.90226
-1.89129
-1.81066
-1.66207
-1.45058
-1.18409
-0.873313
-0.531197
-0.172021
0.186466
0.52844
0.837296
1.09746
1.2953
1.41925
1.45899
1.4295
1.31468
1.12441
0.870676
0.568718
0.236108
-0.110167
-0.438295
-0.731196
-0.969663
-1.13748
-1.22303
-1.22028
-1.13163
-0.962763
-0.727845
-0.44633
-0.140677
0.17222
0.446073
0.667308
0.815942
0.878299
0.848499
0.72968
0.533656
0.279919
-0.00792308
-0.298884
-0.562464
-0.773457
-0.909935
-0.958754
-0.918335
-0.795183
-0.60721
-0.378595
-0.120021
0.10073
0.277957
0.390803
0.428851
0.393182
0.295551
0.156508
-3.80021e-05
-0.142077
-0.249384
-0.306312
-0.308134
-0.26086
-0.179703
-0.0853899
0.00157496
0.0590785
0.0776304
0.0550243
-0.00112938
-0.0757477
-0.149816
-0.204662
-0.226671
-0.209521
-0.156296
-0.0784255
0.00647744
0.0786007
0.120242
-1.89234
-1.9798
-2.15786
-2.43596
-2.81602
-3.2513
-3.74911
-4.29045
-4.93443
-5.52582
-6.11631
-6.67153
-7.20004
-7.66024
-8.01921
-8.26712
-8.42033
-8.48348
-8.53114
-8.57133
-8.62811
-8.64874
-8.58037
-8.38242
-8.08498
-7.6526
-7.13827
-6.54042
-5.91711
-5.27435
-4.63841
-4.01478
-3.41221
-2.83452
-2.28502
-1.76625
-1.28004
-0.827458
-0.408717
-0.0236107
0.32812
0.646803
0.933032
1.18731
1.40992
1.60149
1.76334
1.88478
1.97574
2.0365
2.06667
2.06607
2.03488
1.97357
1.88287
1.7638
1.61766
1.44598
1.25055
1.03346
0.797031
0.543947
0.277107
-0.000268318
-0.284776
-0.572738
-0.860337
-1.14353
-1.41818
-1.68004
-1.92494
-2.14873
-2.34732
-2.5169
-2.65391
-2.75504
-2.81759
-2.83901
-2.81802
-2.75404
-2.64621
-2.49493
-2.3016
-2.06846
-1.79866
-1.4962
-1.16603
-0.813985
-0.446587
-0.0708556
0.304974
0.672875
1.02431
1.35082
1.64402
1.89593
2.09926
2.24757
2.33558
2.35922
2.31821
2.21052
2.03744
1.80251
1.51118
1.17102
0.791432
0.383416
-0.0409749
-0.46692
-0.880904
-1.2685
-1.61544
-1.90859
-2.13603
-2.28789
-2.35692
-2.33958
-2.23465
-2.04474
-1.77639
-1.43985
-1.0487
-0.619153
-0.169568
0.278143
0.703787
1.08667
1.40742
1.6491
1.79807
1.84474
1.79675
1.64594
1.40185
1.07948
0.698312
0.280556
-0.158791
-0.567477
-0.930675
-1.22469
-1.42928
-1.52991
-1.51984
-1.40087
-1.18201
-0.881234
-0.523055
-0.135802
0.250778
0.594745
0.870736
1.05415
1.1284
1.08701
0.934188
0.685619
0.366243
0.0060922
-0.35588
-0.682035
-0.940649
-1.10493
-1.1592
-1.10135
-0.941202
-0.70152
-0.412131
-0.0996037
0.174205
0.389685
0.522257
0.560219
0.5059
0.375448
0.195202
-0.0054981
-0.183591
-0.314977
-0.381048
-0.376798
-0.310832
-0.203429
-0.0814767
0.0307697
0.102541
0.124147
0.0933132
0.0202157
-0.0756475
-0.170151
-0.239974
-0.268136
-0.24718
-0.181131
-0.0845189
0.0206637
0.10989
0.16138
0.0885845
-0.0442461
-0.310628
-0.703716
-1.23022
-1.92455
-2.78707
-3.77835
-4.83805
-5.9157
-6.99336
-8.03155
-8.98797
-9.86438
-10.6496
-11.3346
-11.9275
-12.4253
-12.8073
-13.0556
-13.1041
-12.8272
-12.3347
-11.6794
-10.8876
-9.96548
-8.9478
-7.84191
-6.77837
-5.75927
-4.80924
-3.92749
-3.11805
-2.37898
-1.70526
-1.09118
-0.531211
-0.0208017
0.443763
0.865086
1.24517
1.58546
1.88684
2.14986
2.37484
2.56153
2.7089
2.8294
2.9123
2.95718
2.96462
2.93525
2.86973
2.76886
2.6336
2.46515
2.26501
2.03499
1.77721
1.49414
1.18858
0.863752
0.523149
0.170672
-0.189577
-0.553129
-0.915334
-1.27131
-1.61597
-1.94417
-2.25088
-2.53103
-2.77965
-2.99208
-3.1641
-3.29171
-3.37145
-3.40088
-3.37736
-3.30059
-3.16984
-2.98568
-2.74985
-2.46515
-2.13548
-1.76575
-1.3621
-0.931724
-0.482604
-0.0233956
0.43567
0.88482
1.31354
1.71141
2.06817
2.37402
2.62007
2.79843
2.9027
2.92826
2.87383
2.73756
2.52135
2.22966
1.86926
1.44952
0.982045
0.480475
-0.0404679
-0.562468
-1.06906
-1.54236
-1.96519
-2.32126
-2.59637
-2.77869
-2.85949
-2.83359
-2.70064
-2.46417
-2.13235
-1.71791
-1.2375
-0.711533
-0.161472
0.384176
0.901705
1.36569
1.75257
2.04202
2.21816
2.27105
2.20163
2.00894
1.70394
1.30466
0.836099
0.330105
-0.224431
-0.715418
-1.15491
-1.50929
-1.75325
-1.86934
-1.84968
-1.69624
-1.42137
-1.04724
-0.604386
-0.127914
0.342603
0.76236
1.09754
1.31812
1.40437
1.34887
1.15753
0.850175
0.457874
0.0181038
-0.421786
-0.816185
-1.12628
-1.31987
-1.3787
-1.3004
-1.0984
-0.801234
-0.445885
-0.0714124
0.258969
0.515205
0.668034
0.70427
0.628089
0.460549
0.234524
-0.0162166
-0.233356
-0.390245
-0.465185
-0.452935
-0.365174
-0.227945
-0.0755415
0.0654807
0.152136
0.176575
0.13604
0.0437307
-0.0758791
-0.192988
-0.27926
-0.314
-0.288667
-0.208428
-0.0912432
0.0361048
0.143979
0.206196
4.43765
4.24251
3.84264
3.22107
2.35125
1.13145
-0.411006
-2.40393
-5.43153
-7.49935
-9.18582
-10.6676
-11.9572
-13.0625
-13.9946
-14.758
-15.3852
-15.8882
-16.2505
-16.4779
-16.4427
-16.2616
-15.7861
-15.0306
-13.9875
-12.6225
-11.0129
-8.45676
-6.92748
-5.48771
-4.29336
-3.25224
-2.33805
-1.52516
-0.796029
-0.140276
0.451258
0.985288
1.4672
1.90116
2.29017
2.63628
2.94058
3.20388
3.42648
3.60848
3.75014
3.85202
3.91281
3.93259
3.91103
3.84815
3.74429
3.60006
3.41642
3.19463
2.9364
2.64377
2.31919
1.96553
1.58607
1.18461
0.765261
0.332651
-0.108395
-0.552507
-0.99417
-1.42759
-1.84671
-2.2454
-2.61768
-2.95751
-3.25897
-3.51659
-3.72521
-3.88023
-3.97763
-4.014
-3.98724
-3.89597
-3.73975
-3.51942
-3.2371
-2.89619
-2.50138
-2.05863
-1.57532
-1.06004
-0.522434
0.0269483
0.576036
1.11288
1.62493
2.09968
2.52479
2.88854
3.18031
3.39072
3.51225
3.53946
3.46993
3.30243
3.03932
2.68598
2.25078
1.74499
1.18265
0.580186
-0.0445669
-0.669875
-1.27579
-1.84094
-2.34478
-2.76792
-3.09342
-3.30738
-3.39962
-3.36383
-3.19992
-2.91253
-2.5117
-2.01269
-1.43589
-0.805795
-0.148153
0.502784
1.11867
1.66921
2.12641
2.46628
2.67034
2.72728
2.63499
2.39629
2.02442
1.54106
0.975796
0.363659
-0.286055
-0.876308
-1.3993
-1.81822
-2.10354
-2.23505
-2.20366
-2.01224
-1.6762
-1.22256
-0.688402
-0.116003
0.445453
0.945916
1.34369
1.60309
1.70099
1.62916
1.39544
1.02406
0.553038
0.0275342
-0.495706
-0.962687
-1.32701
-1.55086
-1.61315
-1.51174
-1.2638
-0.904377
-0.478399
-0.0363572
0.353635
0.65234
0.82548
0.858341
0.757332
0.549116
0.274045
-0.0326391
-0.290533
-0.473794
-0.557141
-0.535088
-0.422755
-0.252433
-0.0651104
0.102716
0.206827
0.233925
0.182355
0.0688929
-0.0765315
-0.217962
-0.321783
-0.363437
-0.333196
-0.237635
-0.0984712
0.0525273
0.180241
0.253848
10.3287
10.0858
9.58376
8.77283
7.58668
6.04131
4.13688
1.5151
-2.66191
-5.89655
-8.77379
-11.2506
-13.3635
-15.1353
-16.5921
-17.7547
-18.5922
-19.0797
-19.2214
-18.9912
-18.515
-17.8402
-17.0298
-15.9752
-14.6182
-12.9215
-10.9505
-8.03683
-6.10515
-4.43224
-3.13989
-2.05634
-1.11208
-0.304922
0.40906
1.04323
1.6147
2.13178
2.60073
3.02489
3.40625
3.74574
4.04375
4.29996
4.5141
4.68552
4.81357
4.89786
4.93785
4.9321
4.88023
4.78213
4.63801
4.4484
4.21422
3.9368
3.618
3.26011
2.86591
2.43869
1.98222
1.50088
0.999473
0.483348
-0.041949
-0.570001
-1.09443
-1.60848
-2.10508
-2.57706
-3.01742
-3.41915
-3.77532
-4.07956
-4.3259
-4.50884
-4.6238
-4.66704
-4.63571
-4.52835
-4.3446
-4.08549
-3.75359
-3.3529
-2.88897
-2.36884
-1.8012
-1.19622
-0.565201
0.0799309
0.723895
1.35317
1.95296
2.50858
3.00555
3.43012
3.76982
4.01368
4.15293
4.18136
4.09549
3.89466
3.58169
3.16303
2.64861
2.0519
1.38947
0.680642
-0.05326
-0.787246
-1.49738
-2.15876
-2.74722
-3.24027
-3.61795
-3.86424
-3.96726
-3.92039
-3.72313
-3.38142
-2.90716
-2.3187
-1.64023
-0.900089
-0.129801
0.631758
1.35062
1.9915
2.52179
2.91369
3.14582
3.20522
3.08836
2.80044
2.3573
1.7847
1.11695
0.393871
-0.355798
-1.04922
-1.65966
-2.14572
-2.47361
-2.62016
-2.57527
-2.34287
-1.94156
-1.40375
-0.773414
-0.100064
0.557155
1.14188
1.60454
1.90374
2.0128
1.92267
1.64342
1.20397
0.649895
0.0341149
-0.576286
-1.11886
-1.53917
-1.79361
-1.85827
-1.73147
-1.43435
-1.009
-0.508788
0.00458263
0.456347
0.798506
0.99163
1.01954
0.891126
0.639378
0.313809
-0.0551903
-0.353868
-0.563909
-0.655109
-0.621645
-0.482444
-0.276523
-0.0523239
0.143711
0.26571
0.295086
0.231321
0.0951557
-0.0776568
-0.244653
-0.366744
-0.415501
-0.379902
-0.268177
-0.105984
0.0696613
0.218007
0.303439
17.3072
17.1989
16.9881
16.6884
16.3631
16.0198
15.6998
15.2869
-1.94599
-1.43072
-1.07113
-0.536713
0.0391235
0.641992
1.22263
1.80269
2.34338
2.85467
3.33057
3.77115
4.17502
4.54161
4.86975
5.1581
5.40518
5.60944
5.76927
5.88317
5.94975
5.96767
5.93578
5.8532
5.71948
5.53458
5.2989
5.01334
4.6793
4.29879
3.87435
3.40911
2.90677
2.37161
1.80866
1.22338
0.621916
0.0103062
-0.603527
-1.21256
-1.80901
-2.38477
-2.93159
-3.44143
-3.90622
-4.31803
-4.66955
-4.95396
-5.16499
-5.29739
-5.34681
-5.31006
-5.18545
-4.97267
-4.67297
-4.28934
-3.82644
-3.29071
-2.6903
-2.03527
-1.3374
-0.609628
0.134671
0.876773
1.60154
2.29191
2.93097
3.50202
3.98919
4.37815
4.65624
4.81341
4.84251
4.73939
4.50367
4.13882
3.65233
3.05579
2.3649
1.59898
0.780416
-0.066711
-0.912398
-1.72973
-2.48993
-3.16517
-3.72963
-4.16051
-4.4394
-4.55298
-4.49349
-4.26098
-3.86238
-3.31178
-2.63065
-1.84694
-0.993742
-0.106211
0.768708
1.59321
2.32661
2.93146
3.37602
3.63595
3.69654
3.55366
3.21418
2.69687
2.0315
1.25803
0.422182
-0.433921
-1.23168
-1.9314
-2.48583
-2.85664
-3.01769
-2.95778
-2.68216
-2.2128
-1.58755
-0.85761
-0.0806019
0.675408
1.34648
1.87527
2.21453
2.33415
2.22412
1.89701
1.38678
0.746671
0.0378426
-0.661988
-1.28181
-1.75891
-2.04379
-2.10975
-1.95576
-1.60712
-1.11325
-0.536659
0.0503312
0.565034
0.950936
1.16343
1.18495
1.02706
0.729537
0.35447
-0.0844722
-0.421759
-0.658752
-0.757205
-0.710987
-0.543171
-0.299879
-0.0376157
0.187805
0.327695
0.358894
0.28199
0.122004
-0.0792554
-0.272583
-0.413319
-0.469234
-0.427925
-0.299473
-0.113635
0.0872038
0.256615
0.354095
24.6741
24.6432
24.5897
24.5181
24.4304
24.2986
23.9352
23.6087
0.189366
0.556604
0.859885
1.25627
1.69998
2.1804
2.65678
3.14105
3.61187
4.06827
4.50427
4.91643
5.30049
5.65299
5.97063
6.25043
6.48947
6.68499
6.83436
6.93516
6.98519
6.9827
6.92589
6.81356
6.64496
6.41985
6.13853
5.80188
5.41137
4.96917
4.47811
3.94164
3.36393
2.74978
2.10482
1.43523
0.748003
0.049533
-0.650536
-1.34466
-2.024
-2.67934
-3.30135
-3.88093
-4.40897
-4.87649
-5.27525
-5.59758
-5.83643
-5.98588
-6.04105
-5.99809
-5.85536
-5.61261
-5.27126
-4.83472
-4.30829
-3.69935
-3.01721
-2.27327
-1.48094
-0.654855
0.190518
1.03227
1.85392
2.63617
3.35982
4.00593
4.55647
4.99513
5.30762
5.48264
5.51192
5.39093
5.11941
4.70149
4.1458
3.46563
2.67895
1.80785
0.877876
-0.0840886
-1.04288
-1.96864
-2.82863
-3.5914
-4.22762
-4.71175
-5.02304
-5.14675
-5.07347
-4.80442
-4.3475
-3.71898
-2.94349
-2.05269
-1.08507
-0.0785257
0.910899
1.84203
2.66859
3.34828
3.84533
4.13248
4.19327
4.02321
3.63073
3.03762
2.27787
1.39716
0.447676
-0.518104
-1.42039
-2.20974
-2.83266
-3.24607
-3.42083
-3.34482
-3.02453
-2.48542
-1.7711
-0.940092
-0.0577984
0.797997
1.55604
2.15112
2.53012
2.65957
2.52849
2.15204
1.56955
0.841726
0.0390531
-0.751179
-1.44866
-1.98245
-2.2972
-2.36347
-2.18104
-1.77947
-1.21569
-0.561692
0.0997641
0.677592
1.10689
1.33792
1.35185
1.16295
0.817757
0.391328
-0.115468
-0.492335
-0.756504
-0.861586
-0.80156
-0.60394
-0.322209
-0.0213218
0.234098
0.391648
0.424192
0.33347
0.148958
-0.0812954
-0.301267
-0.460705
-0.523715
-0.47644
-0.330992
-0.121292
0.104888
0.295442
0.404987
30.9547
30.9148
30.8265
30.676
30.4655
30.2001
30.1573
30.1834
2.06226
2.27652
2.47891
2.76406
3.1056
3.51189
3.9156
4.34196
4.76854
5.19143
5.60278
5.99715
6.3689
6.713
7.02475
7.29978
7.534
7.7236
7.86501
7.95494
7.99032
7.96946
7.88945
7.7489
7.54682
7.28279
6.95701
6.57035
6.12438
5.62146
5.06469
4.45789
3.80565
3.11332
2.38714
1.63398
0.861534
0.0776045
-0.708185
-1.48674
-2.24826
-2.98247
-3.67898
-4.32761
-4.91819
-5.44071
-5.88602
-6.2456
-6.51166
-6.67765
-6.73827
-6.68837
-6.52702
-6.25389
-5.87056
-5.38082
-4.79064
-4.10828
-3.3442
-2.51126
-1.62447
-0.700249
0.246885
1.1881
2.10644
2.98043
3.78855
4.50955
5.12324
5.61134
5.95793
6.15042
6.1795
6.04033
5.73265
5.26127
4.63612
3.87208
2.98948
2.01316
0.97184
-0.104626
-1.17628
-2.21008
-3.16938
-4.01906
-4.72642
-5.26303
-5.606
-5.73966
-5.65145
-5.3453
-4.82963
-4.12288
-3.25261
-2.25471
-1.17264
-0.0479404
1.05567
2.09289
3.01192
3.76565
4.31433
4.6278
4.68793
4.49002
4.04407
3.37465
2.52033
1.53243
0.469991
-0.605984
-1.61198
-2.49011
-3.18061
-3.63576
-3.82338
-3.73041
-3.36484
-2.75554
-1.9518
-1.01943
-0.0326985
0.922699
1.76708
2.42766
2.84558
2.98407
2.8312
2.4048
1.7497
0.933845
0.0380037
-0.842255
-1.61669
-2.2063
-2.54997
-2.61569
-2.40409
-1.94904
-1.31501
-0.583908
0.151728
0.791995
1.26378
1.51238
1.51774
1.29691
0.902723
0.417942
-0.141242
-0.56403
-0.855462
-0.966533
-0.891936
-0.66388
-0.343294
-0.00379715
0.281676
0.456455
0.489884
0.385035
0.175593
-0.0837324
-0.330232
-0.508155
-0.578102
-0.524704
-0.362253
-0.128832
0.122464
0.333912
0.455386
36.6686
36.6519
36.6228
36.5886
36.5819
36.6378
36.7328
36.5804
3.48136
3.62367
3.79531
4.01298
4.30808
4.65407
5.01863
5.40924
5.80902
6.21258
6.611
6.99734
7.36479
7.70706
8.01831
8.2931
8.52639
8.71345
8.84994
8.93189
8.9559
8.91802
8.81665
8.64975
8.416
8.1148
7.74627
7.31129
6.81153
6.24958
5.62881
4.95342
4.22844
3.45973
2.65416
1.81927
0.963531
0.0957512
-0.773856
-1.63505
-2.47701
-3.28842
-4.0578
-4.77394
-5.42561
-6.00179
-6.49241
-6.88814
-7.18045
-7.36228
-7.42839
-7.37068
-7.19062
-6.88725
-6.46225
-5.91985
-5.26658
-4.51164
-3.66662
-2.7458
-1.76594
-0.745234
0.303208
1.34212
2.35561
3.31999
4.21132
5.00605
5.68181
6.21845
6.59843
6.80781
6.83637
6.67894
6.33527
5.81088
5.11697
4.27001
3.29265
2.21251
1.06145
-0.127637
-1.31038
-2.4504
-3.50722
-4.44209
-5.21906
-5.80677
-6.18014
-6.31998
-6.21954
-5.87651
-5.30252
-4.51828
-3.5543
-2.45081
-1.25545
-0.0154336
1.20066
2.34203
3.35168
4.17772
4.77657
5.11525
5.17404
4.94809
4.44881
3.70394
2.75612
1.66256
0.488861
-0.69576
-1.80338
-2.76833
-3.52476
-4.02028
-4.21987
-4.10947
-3.69863
-3.0197
-2.12753
-1.09536
-0.00556915
1.04752
1.97647
2.70096
3.15654
3.30332
3.12826
2.65211
1.92505
1.0224
0.0347329
-0.933742
-1.78343
-2.42733
-2.79872
-2.86314
-2.62215
-2.11392
-1.41032
-0.603254
0.205125
0.906388
1.41931
1.6844
1.68049
1.42739
0.98391
0.439957
-0.166687
-0.635914
-0.954117
-1.07051
-0.980872
-0.722255
-0.362994
0.014587
0.329687
0.521093
0.554985
0.43578
0.201547
-0.086501
-0.359067
-0.554979
-0.631651
-0.572073
-0.392845
-0.136155
0.139697
0.371553
0.504658
41.7766
41.7694
41.7586
41.7447
41.7396
41.7362
41.7302
41.694
4.57134
4.68263
4.83545
5.03804
5.30365
5.62245
5.96806
6.34282
6.73179
7.12901
7.52508
7.91221
8.28266
8.62918
8.945
9.22384
9.45986
9.64763
9.78203
9.85844
9.87264
9.82079
9.70035
9.50919
9.24581
8.90948
8.50025
8.01906
7.46769
6.84895
6.16651
5.42496
4.62976
3.78727
2.90495
1.99103
1.05472
0.105701
-0.845013
-1.78619
-2.70603
-3.59215
-4.43204
-5.21347
-5.92416
-6.5521
-7.08635
-7.51677
-7.83416
-8.03069
-8.0991
-8.03616
-7.83789
-7.50489
-7.03912
-6.4452
-5.73034
-4.90455
-3.98055
-2.97404
-1.90358
-0.789562
0.359192
1.49241
2.59842
3.65082
4.62317
5.4896
6.22568
6.80942
7.22169
7.44728
7.4751
7.29952
6.92051
6.34425
5.58306
4.65514
3.58533
2.404
1.14606
-0.15242
-1.44322
-2.68645
-3.83789
-4.85532
-5.69961
-6.33662
-6.73927
-6.88816
-6.7718
-6.39216
-5.76101
-4.9009
-3.84551
-2.6391
-1.33305
0.0181334
1.34381
2.58624
3.68362
4.57953
5.22662
5.58921
5.64617
5.39228
4.84065
4.022
2.98298
1.78642
0.504581
-0.785769
-1.99189
-3.04084
-3.86086
-4.39505
-4.60565
-4.4777
-4.02226
-3.27514
-2.29661
-1.16715
0.0228533
1.17067
2.18153
2.96768
3.45932
3.6137
3.41633
2.89134
2.09388
1.10665
0.0296536
-1.0243
-1.94676
-2.6429
-3.04057
-3.10311
-2.83294
-2.27253
-1.50091
-0.619902
0.258933
1.01915
1.57149
1.85193
1.8383
1.55317
1.061
0.459228
-0.192937
-0.707135
-1.05116
-1.17221
-1.06733
-0.778472
-0.381237
0.0334676
0.377379
0.584673
0.618658
0.485081
0.226541
-0.0895266
-0.387373
-0.60064
-0.683739
-0.618013
-0.422436
-0.143182
0.15641
0.407968
0.552284
46.3165
46.3126
46.3072
46.2984
46.2939
46.2864
46.2857
46.2713
5.44416
5.54487
5.68945
5.88262
6.13656
6.44452
6.78431
7.15575
7.54517
7.94582
8.34796
8.74305
9.1225
9.47828
9.80286
10.0893
10.3312
10.5224
10.6573
10.7305
10.7373
10.6733
10.5358
10.3224
10.0315
9.66227
9.21462
8.6896
8.08912
7.41625
6.67496
5.8702
5.00786
4.0948
3.13904
2.14943
1.13593
0.109032
-0.919405
-1.93724
-2.93171
-3.88946
-4.79689
-5.64083
-6.40802
-7.08543
-7.66127
-8.1247
-8.46588
-8.67664
-8.75115
-8.67868
-8.46223
-8.10048
-7.59528
-6.95159
-6.17723
-5.28307
-4.28282
-3.19357
-2.03568
-0.833052
0.414502
1.63722
2.83242
3.96969
5.02007
5.95549
6.74959
7.37854
7.8217
8.06274
8.08961
7.89624
7.48294
6.85646
6.03022
5.0241
3.86509
2.58619
1.22523
-0.178302
-1.57313
-2.91561
-4.15788
-5.25452
-6.16322
-6.8473
-7.27775
-7.43509
-7.30277
-6.8875
-6.20088
-5.26747
-4.12387
-2.8182
-1.40605
0.0529141
1.48344
2.82283
4.00432
4.96705
5.66008
6.04519
6.09991
5.81853
5.21623
4.32611
3.1991
1.90318
0.517481
-0.874559
-2.17527
-3.30467
-4.18543
-4.75634
-4.97701
-4.83161
-4.33281
-3.51968
-2.45771
-1.23421
0.0516663
1.29063
2.38002
3.22512
3.75091
3.91229
3.69278
3.12042
2.25489
1.18604
0.0231209
-1.11275
-2.10491
-2.85085