/*--------------------------------*- C++ -*----------------------------------*\
  =========                 |
  \\      /  F ield         | OpenFOAM: The Open Source CFD Toolbox
   \\    /   O peration     | Website:  https://openfoam.org
    \\  /    A nd           | Version:  12
     \\/     M anipulation  |
\*---------------------------------------------------------------------------*/
FoamFile
{
    format      ascii;
    class       volVectorField;
    location    "13";
    object      U;
}
// * * * * * * * * * * * * * * * * * * * * * * * * * * * * * * * * * * * * * //

dimensions      [0 1 -1 0 0 0 0];

internalField   nonuniform List<vector> 
3829
(
(4.72135e-06 -0.000361746 0)
(1.34123e-05 -0.000374644 0)
(2.30409e-05 -0.00037437 0)
(3.23915e-05 -0.000373598 0)
(4.20907e-05 -0.000372557 0)
(5.18997e-05 -0.00037123 0)
(6.19417e-05 -0.000369617 0)
(7.2161e-05 -0.000367711 0)
(8.25986e-05 -0.000365501 0)
(9.32307e-05 -0.000362989 0)
(0.000104128 -0.000360158 0)
(0.000115291 -0.000357006 0)
(0.000126643 -0.00035352 0)
(0.000138254 -0.000349683 0)
(0.000150134 -0.000345482 0)
(0.000162288 -0.000340913 0)
(0.000174709 -0.000335968 0)
(0.000187403 -0.000330645 0)
(0.00020037 -0.000324948 0)
(0.000213623 -0.00031887 0)
(0.000227141 -0.000312423 0)
(0.000240906 -0.000305601 0)
(0.000254866 -0.000298418 0)
(0.000269075 -0.000290869 0)
(0.000283496 -0.000282975 0)
(0.000298144 -0.000274747 0)
(0.000312808 -0.000266203 0)
(0.000327442 -0.000257337 0)
(0.000342221 -0.000248189 0)
(0.000356846 -0.000238802 0)
(0.000371276 -0.000229173 0)
(0.000385544 -0.000219344 0)
(0.000399389 -0.00020931 0)
(0.000412897 -0.00019912 0)
(0.000425795 -0.000188756 0)
(0.000438037 -0.000178197 0)
(0.000449651 -0.000167517 0)
(0.000460351 -0.000156655 0)
(0.000470149 -0.000145672 0)
(0.000478921 -0.000134549 0)
(0.000486618 -0.00012334 0)
(0.000493094 -0.000112079 0)
(0.000498191 -0.000100765 0)
(0.000501811 -8.94309e-05 0)
(0.000503831 -7.80954e-05 0)
(0.000504024 -6.6795e-05 0)
(0.000502234 -5.56273e-05 0)
(0.000498366 -4.46532e-05 0)
(0.000492329 -3.39304e-05 0)
(0.000484119 -2.3483e-05 0)
(0.000473664 -1.33985e-05 0)
(0.000460944 -3.67223e-06 0)
(0.000445805 5.60527e-06 0)
(0.0004285 1.44735e-05 0)
(0.000408932 2.27991e-05 0)
(0.000387066 3.06476e-05 0)
(0.000363457 3.78702e-05 0)
(0.000337673 4.44816e-05 0)
(0.000310066 5.04221e-05 0)
(0.000281003 5.57018e-05 0)
(0.000250102 6.01555e-05 0)
(0.00021806 6.38976e-05 0)
(0.000185136 6.67448e-05 0)
(0.000151223 6.87783e-05 0)
(0.000116835 6.99566e-05 0)
(8.24499e-05 7.02334e-05 0)
(4.79421e-05 6.9629e-05 0)
(1.4363e-05 6.82005e-05 0)
(-1.84001e-05 6.57897e-05 0)
(-5.01763e-05 6.25786e-05 0)
(-7.98325e-05 5.85216e-05 0)
(-0.000107638 5.36755e-05 0)
(-0.000132806 4.81166e-05 0)
(-0.000155345 4.18611e-05 0)
(-0.000174516 3.50927e-05 0)
(-0.000190454 2.77214e-05 0)
(-0.000202645 2.01114e-05 0)
(-0.000210792 1.21299e-05 0)
(-0.000214823 4.05777e-06 0)
(-0.000214472 -4.07524e-06 0)
(-0.000209834 -1.19942e-05 0)
(-0.000200229 -1.96515e-05 0)
(-0.000186602 -2.6957e-05 0)
(-0.000169198 -3.36854e-05 0)
(-0.000148015 -3.97251e-05 0)
(-0.000123506 -4.49715e-05 0)
(-9.60886e-05 -4.92577e-05 0)
(-6.63562e-05 -5.2501e-05 0)
(-3.47996e-05 -5.45761e-05 0)
(-2.10599e-06 -5.54729e-05 0)
(3.09155e-05 -5.5074e-05 0)
(6.36744e-05 -5.33988e-05 0)
(9.52585e-05 -5.0453e-05 0)
(0.000124964 -4.62622e-05 0)
(0.000151942 -4.09287e-05 0)
(0.000175408 -3.45231e-05 0)
(0.000194805 -2.71965e-05 0)
(0.000209394 -1.91259e-05 0)
(0.000218724 -1.04799e-05 0)
(0.000222337 -1.52561e-06 0)
(0.000219685 7.5146e-06 0)
(0.000210535 1.63694e-05 0)
(0.000195302 2.4867e-05 0)
(0.000174385 3.26889e-05 0)
(0.00014829 3.96146e-05 0)
(0.000117481 4.53357e-05 0)
(8.28135e-05 4.97586e-05 0)
(4.54793e-05 5.2595e-05 0)
(6.1359e-06 5.3761e-05 0)
(-3.3729e-05 5.31227e-05 0)
(-7.26841e-05 5.07259e-05 0)
(-0.000109349 4.66063e-05 0)
(-0.000142589 4.07959e-05 0)
(-0.000171041 3.35836e-05 0)
(-0.000193486 2.50236e-05 0)
(-0.000209107 1.55818e-05 0)
(-0.000217104 5.48778e-06 0)
(-0.00021667 -4.7745e-06 0)
(-0.000207376 -1.4893e-05 0)
(-0.000189674 -2.4427e-05 0)
(-0.000164314 -3.30155e-05 0)
(-0.000132179 -4.02959e-05 0)
(-9.43493e-05 -4.58193e-05 0)
(-5.23848e-05 -4.9421e-05 0)
(-7.72989e-06 -5.08012e-05 0)
(3.73812e-05 -4.99195e-05 0)
(8.07619e-05 -4.67475e-05 0)
(0.000120557 -4.14431e-05 0)
(0.000154921 -3.41882e-05 0)
(0.000182017 -2.53715e-05 0)
(0.000200465 -1.53533e-05 0)
(0.000209344 -4.72472e-06 0)
(0.000207715 6.01903e-06 0)
(0.00019538 1.62509e-05 0)
(0.000173364 2.55162e-05 0)
(0.000142934 3.32091e-05 0)
(0.00010574 3.89715e-05 0)
(6.36729e-05 4.22412e-05 0)
(1.903e-05 4.31592e-05 0)
(-2.52179e-05 4.13093e-05 0)
(-6.63665e-05 3.70729e-05 0)
(-0.000101953 3.06612e-05 0)
(-0.000129931 2.24903e-05 0)
(-0.000148588 1.32323e-05 0)
(-0.000156897 3.47615e-06 0)
(-0.000154188 -5.98401e-06 0)
(-0.000140925 -1.45469e-05 0)
(-0.000118854 -2.15704e-05 0)
(-8.98819e-05 -2.65094e-05 0)
(-5.65711e-05 -2.89769e-05 0)
(-2.19259e-05 -2.88432e-05 0)
(1.12721e-05 -2.59848e-05 0)
(3.9807e-05 -2.09826e-05 0)
(6.09457e-05 -1.41839e-05 0)
(7.30774e-05 -6.27845e-06 0)
(7.4891e-05 1.9004e-06 0)
(6.62428e-05 9.63226e-06 0)
(4.84829e-05 1.60987e-05 0)
(2.35041e-05 2.07085e-05 0)
(-6.76546e-06 2.29024e-05 0)
(-3.82403e-05 2.25013e-05 0)
(-6.66134e-05 1.95549e-05 0)
(-8.95616e-05 1.44476e-05 0)
(-0.000104456 7.77389e-06 0)
(-0.000109433 3.2009e-07 0)
(-0.000103685 -6.97427e-06 0)
(-8.79092e-05 -1.33814e-05 0)
(-6.42232e-05 -1.80672e-05 0)
(-3.53213e-05 -2.05452e-05 0)
(-4.31103e-06 -2.04359e-05 0)
(2.46635e-05 -1.78431e-05 0)
(4.77783e-05 -1.3217e-05 0)
(6.27458e-05 -7.17363e-06 0)
(6.80015e-05 -5.6665e-07 0)
(6.30798e-05 5.54084e-06 0)
(4.92361e-05 1.0511e-05 0)
(2.91227e-05 1.36314e-05 0)
(5.49741e-06 1.45599e-05 0)
(-1.77548e-05 1.31723e-05 0)
(-3.66712e-05 9.90679e-06 0)
(-4.90202e-05 5.32738e-06 0)
(-5.31447e-05 2.4889e-07 0)
(-4.87653e-05 -4.46679e-06 0)
(-3.70216e-05 -8.17102e-06 0)
(-2.02628e-05 -1.03368e-05 0)
(-1.2023e-06 -1.07679e-05 0)
(1.71135e-05 -9.53494e-06 0)
(3.1742e-05 -7.02479e-06 0)
(4.12099e-05 -3.77957e-06 0)
(4.4459e-05 -4.23606e-07 0)
(4.20227e-05 2.49686e-06 0)
(3.48297e-05 4.56061e-06 0)
(2.50308e-05 5.58148e-06 0)
(1.45745e-05 5.54086e-06 0)
(4.42913e-06 4.62546e-06 0)
(-3.26307e-06 3.07208e-06 0)
(-7.46835e-06 1.39317e-06 0)
(-8.31067e-06 -2.25538e-07 0)
(-6.29835e-06 -1.46779e-06 0)
(-2.32923e-06 -2.14955e-06 0)
(6.40285e-06 0.000153848 0)
(2.01798e-05 0.000162495 0)
(3.41456e-05 0.000162151 0)
(4.82842e-05 0.000161414 0)
(6.25824e-05 0.000160394 0)
(7.7061e-05 0.000159062 0)
(9.17252e-05 0.000157407 0)
(0.000106617 0.000155395 0)
(0.000121702 0.000153011 0)
(0.000137001 0.000150274 0)
(0.00015261 0.000147128 0)
(0.000168505 0.000143624 0)
(0.000184731 0.000139664 0)
(0.000201332 0.000135316 0)
(0.000218219 0.000130467 0)
(0.000235375 0.00012521 0)
(0.000252755 0.000119472 0)
(0.000270279 0.000113336 0)
(0.000287996 0.000106802 0)
(0.000305842 9.99527e-05 0)
(0.000323806 9.28233e-05 0)
(0.000341861 8.5489e-05 0)
(0.000359938 7.80238e-05 0)
(0.000378044 7.05108e-05 0)
(0.000396045 6.30549e-05 0)
(0.000413988 5.57549e-05 0)
(0.000431769 4.86819e-05 0)
(0.000449195 4.19651e-05 0)
(0.00046614 3.57465e-05 0)
(0.000482598 3.00717e-05 0)
(0.00049854 2.50882e-05 0)
(0.000514008 2.08802e-05 0)
(0.000528719 1.74816e-05 0)
(0.000542835 1.49969e-05 0)
(0.000556509 1.34833e-05 0)
(0.000569145 1.28685e-05 0)
(0.00058101 1.32732e-05 0)
(0.000591935 1.47008e-05 0)
(0.000601697 1.72046e-05 0)
(0.000610233 2.08248e-05 0)
(0.000617187 2.5584e-05 0)
(0.000622731 3.15089e-05 0)
(0.000626738 3.85016e-05 0)
(0.000628997 4.6562e-05 0)
(0.000629365 5.55644e-05 0)
(0.000627199 6.54668e-05 0)
(0.000622228 7.62537e-05 0)
(0.000614603 8.78557e-05 0)
(0.000604443 0.000100119 0)
(0.000591611 0.000112962 0)
(0.000576188 0.000126191 0)
(0.000558172 0.000139713 0)
(0.000537578 0.000153194 0)
(0.000514468 0.000166695 0)
(0.000488868 0.000179664 0)
(0.000460704 0.000192307 0)
(0.000430278 0.00020411 0)
(0.00039761 0.000215064 0)
(0.000363027 0.000224748 0)
(0.00032642 0.000233213 0)
(0.000287898 0.000239942 0)
(0.0002481 0.000245135 0)
(0.000207125 0.000248263 0)
(0.000165522 0.000249444 0)
(0.000123228 0.000248418 0)
(8.09981e-05 0.000245193 0)
(3.91599e-05 0.000239588 0)
(-1.99893e-06 0.00023168 0)
(-4.20827e-05 0.000221298 0)
(-8.04401e-05 0.000208671 0)
(-0.000116465 0.000193716 0)
(-0.000149964 0.000176588 0)
(-0.000180315 0.000157476 0)
(-0.000207113 0.000136508 0)
(-0.000230065 0.000113998 0)
(-0.000248644 9.00055e-05 0)
(-0.000262503 6.51984e-05 0)
(-0.000271715 3.94804e-05 0)
(-0.000275617 1.36876e-05 0)
(-0.000274007 -1.22297e-05 0)
(-0.000266937 -3.73817e-05 0)
(-0.000254452 -6.17964e-05 0)
(-0.000236883 -8.47127e-05 0)
(-0.000214423 -0.000105979 0)
(-0.000187533 -0.000124886 0)
(-0.000156506 -0.000141303 0)
(-0.000121863 -0.000154604 0)
(-8.43648e-05 -0.000164665 0)
(-4.47604e-05 -0.000171057 0)
(-3.78347e-06 -0.000173697 0)
(3.76537e-05 -0.000172317 0)
(7.85545e-05 -0.000166914 0)
(0.000117993 -0.000157569 0)
(0.000154966 -0.000144344 0)
(0.000188505 -0.000127515 0)
(0.000217694 -0.000107407 0)
(0.000241681 -8.44224e-05 0)
(0.000259707 -5.91253e-05 0)
(0.000271088 -3.21017e-05 0)
(0.00027526 -4.06841e-06 0)
(0.000271716 2.41756e-05 0)
(0.00026041 5.18813e-05 0)
(0.000241674 7.83951e-05 0)
(0.000215811 0.000102715 0)
(0.00018341 0.000124212 0)
(0.00014533 0.000142036 0)
(0.000102522 0.000155616 0)
(5.62265e-05 0.000164305 0)
(7.55008e-06 0.000167674 0)
(-4.16674e-05 0.000165599 0)
(-8.95496e-05 0.000157953 0)
(-0.000134761 0.000144855 0)
(-0.00017554 0.000126654 0)
(-0.000210496 0.000103902 0)
(-0.000238009 7.73283e-05 0)
(-0.000256866 4.77745e-05 0)
(-0.000266299 1.63294e-05 0)
(-0.000265364 -1.577e-05 0)
(-0.000253798 -4.72996e-05 0)
(-0.000231992 -7.69478e-05 0)
(-0.000200949 -0.000103586 0)
(-0.000161409 -0.00012599 0)
(-0.000114951 -0.000142967 0)
(-6.35188e-05 -0.000153896 0)
(-8.8592e-06 -0.000157902 0)
(4.61773e-05 -0.000154835 0)
(9.89792e-05 -0.000144671 0)
(0.000147255 -0.000127941 0)
(0.000188704 -0.000105159 0)
(0.000221159 -7.75653e-05 0)
(0.00024289 -4.6389e-05 0)
(0.000252761 -1.32926e-05 0)
(0.000249841 2.00725e-05 0)
(0.000234091 5.18259e-05 0)
(0.000206653 8.03354e-05 0)
(0.000169048 0.000104097 0)
(0.000123081 0.00012142 0)
(7.16305e-05 0.000131564 0)
(1.73088e-05 0.000133618 0)
(-3.6469e-05 0.000127694 0)
(-8.58422e-05 0.000114019 0)
(-0.000128328 9.38387e-05 0)
(-0.000161099 6.82124e-05 0)
(-0.000182208 3.92816e-05 0)
(-0.000190491 8.87563e-06 0)
(-0.000185337 -2.0577e-05 0)
(-0.000167561 -4.70793e-05 0)
(-0.00013907 -6.8579e-05 0)
(-0.000102266 -8.35365e-05 0)
(-6.04457e-05 -9.07936e-05 0)
(-1.70723e-05 -8.98427e-05 0)
(2.39224e-05 -8.07221e-05 0)
(5.85929e-05 -6.46904e-05 0)
(8.40939e-05 -4.33087e-05 0)
(9.81152e-05 -1.85845e-05 0)
(9.93801e-05 7.03393e-06 0)
(8.78511e-05 3.1043e-05 0)
(6.5152e-05 5.10877e-05 0)
(3.36354e-05 6.51814e-05 0)
(-4.11249e-06 7.18217e-05 0)
(-4.30841e-05 7.01981e-05 0)
(-7.8161e-05 6.0777e-05 0)
(-0.000106271 4.46733e-05 0)
(-0.000124271 2.38192e-05 0)
(-0.000129888 5.71246e-07 0)
(-0.000122474 -2.21866e-05 0)
(-0.000102952 -4.19489e-05 0)
(-7.38344e-05 -5.63815e-05 0)
(-3.84755e-05 -6.37371e-05 0)
(-7.90874e-07 -6.3221e-05 0)
(3.39903e-05 -5.49156e-05 0)
(6.14151e-05 -4.03068e-05 0)
(7.87358e-05 -2.14732e-05 0)
(8.38948e-05 -1.06747e-06 0)
(7.67723e-05 1.79307e-05 0)
(5.91286e-05 3.31521e-05 0)
(3.40253e-05 4.25961e-05 0)
(4.96567e-06 4.51546e-05 0)
(-2.32297e-05 4.06017e-05 0)
(-4.58081e-05 3.02517e-05 0)
(-6.01464e-05 1.59781e-05 0)
(-6.43034e-05 2.86704e-07 0)
(-5.82526e-05 -1.42676e-05 0)
(-4.35649e-05 -2.55091e-05 0)
(-2.31303e-05 -3.19768e-05 0)
(-3.39833e-07 -3.30348e-05 0)
(2.11305e-05 -2.89824e-05 0)
(3.78543e-05 -2.10625e-05 0)
(4.81439e-05 -1.1014e-05 0)
(5.09793e-05 -7.28433e-07 0)
(4.71441e-05 8.1232e-06 0)
(3.79657e-05 1.42528e-05 0)
(2.60203e-05 1.71851e-05 0)
(1.36321e-05 1.68337e-05 0)
(2.0138e-06 1.3813e-05 0)
(-6.39298e-06 9.13537e-06 0)
(-1.06258e-05 3.91856e-06 0)
(-1.10202e-05 -9.86026e-07 0)
(-8.1013e-06 -4.74463e-06 0)
(-2.96341e-06 -6.7776e-06 0)
(2.94004e-06 -0.000543898 0)
(9.07074e-06 -0.000562521 0)
(1.51637e-05 -0.000562584 0)
(2.12144e-05 -0.000562191 0)
(2.71805e-05 -0.000561524 0)
(3.30313e-05 -0.00056059 0)
(3.88573e-05 -0.000559209 0)
(4.45908e-05 -0.000557444 0)
(5.06744e-05 -0.000555102 0)
(5.67744e-05 -0.000552354 0)
(6.31923e-05 -0.000549104 0)
(6.96246e-05 -0.000545383 0)
(7.61212e-05 -0.000541238 0)
(8.26499e-05 -0.000536683 0)
(8.94215e-05 -0.00053181 0)
(9.67114e-05 -0.000526632 0)
(0.000104434 -0.00052121 0)
(0.000113089 -0.00051556 0)
(0.000122648 -0.000509693 0)
(0.000133336 -0.000503581 0)
(0.00014506 -0.000497244 0)
(0.000158029 -0.000490599 0)
(0.000172207 -0.000483497 0)
(0.000187808 -0.000475922 0)
(0.000204849 -0.00046761 0)
(0.000223095 -0.00045861 0)
(0.000242498 -0.000448584 0)
(0.000263392 -0.000437646 0)
(0.000285365 -0.00042554 0)
(0.000308154 -0.000412415 0)
(0.000331922 -0.000398123 0)
(0.000356014 -0.000382787 0)
(0.000380262 -0.000366166 0)
(0.000404887 -0.000348249 0)
(0.000428682 -0.000328985 0)
(0.000451883 -0.000308365 0)
(0.000474902 -0.000286125 0)
(0.000497031 -0.000262468 0)
(0.00051838 -0.000237354 0)
(0.000538653 -0.000210862 0)
(0.000557707 -0.000183117 0)
(0.000574841 -0.000154122 0)
(0.000589795 -0.000124003 0)
(0.000602352 -9.28497e-05 0)
(0.000612215 -6.07366e-05 0)
(0.000619687 -2.78288e-05 0)
(0.000624477 5.79735e-06 0)
(0.000625891 3.97756e-05 0)
(0.000623836 7.38733e-05 0)
(0.000618157 0.000107876 0)
(0.000608789 0.000141563 0)
(0.000595139 0.000174702 0)
(0.000577798 0.000206982 0)
(0.000556122 0.00023823 0)
(0.000530677 0.000268128 0)
(0.000501714 0.000296354 0)
(0.000468819 0.000322553 0)
(0.000432127 0.00034652 0)
(0.000392252 0.000367891 0)
(0.0003492 0.000386335 0)
(0.000303274 0.000401565 0)
(0.000255212 0.000413354 0)
(0.000204916 0.000421463 0)
(0.000153498 0.00042555 0)
(0.000100972 0.000425536 0)
(4.82005e-05 0.000421222 0)
(-4.63588e-06 0.000412522 0)
(-5.65185e-05 0.000399358 0)
(-0.000106935 0.000381795 0)
(-0.00015535 0.000359942 0)
(-0.000200968 0.000333889 0)
(-0.000243062 0.000303849 0)
(-0.000281014 0.000270128 0)
(-0.000314353 0.000233054 0)
(-0.000342709 0.000193062 0)
(-0.000365015 0.000150696 0)
(-0.000381322 0.000106393 0)
(-0.000390932 6.09202e-05 0)
(-0.000393627 1.48958e-05 0)
(-0.000389076 -3.0899e-05 0)
(-0.000377337 -7.56705e-05 0)
(-0.000358391 -0.000118834 0)
(-0.000332588 -0.000159535 0)
(-0.000300435 -0.000197024 0)
(-0.000262117 -0.000230498 0)
(-0.000218428 -0.000259298 0)
(-0.000169893 -0.000282642 0)
(-0.000117781 -0.000299999 0)
(-6.27769e-05 -0.000310843 0)
(-6.09275e-06 -0.000314903 0)
(5.11934e-05 -0.00031181 0)
(0.000107428 -0.000301542 0)
(0.000161531 -0.000284183 0)
(0.000212238 -0.000259859 0)
(0.000258016 -0.000229151 0)
(0.000297773 -0.000192589 0)
(0.000330354 -0.000150962 0)
(0.000354623 -0.000105235 0)
(0.000369794 -5.64276e-05 0)
(0.000374991 -5.89368e-06 0)
(0.000369725 4.4999e-05 0)
(0.000354275 9.49167e-05 0)
(0.000328547 0.000142395 0)
(0.000293115 0.000186013 0)
(0.000249022 0.00022432 0)
(0.000197033 0.000256045 0)
(0.000138612 0.000279934 0)
(7.53859e-05 0.000295154 0)
(9.36847e-06 0.000300905 0)
(-5.71663e-05 0.000296729 0)
(-0.000122173 0.000282603 0)
(-0.000183211 0.000258766 0)
(-0.000238148 0.000225772 0)
(-0.000284859 0.000184642 0)
(-0.00032154 0.00013669 0)
(-0.000346667 8.37005e-05 0)
(-0.000358764 2.73677e-05 0)
(-0.00035691 -3.0061e-05 0)
(-0.000340702 -8.63345e-05 0)
(-0.000310949 -0.000139225 0)
(-0.000268807 -0.000186635 0)
(-0.00021517 -0.000226094 0)
(-0.000152526 -0.000256036 0)
(-8.32393e-05 -0.00027484 0)
(-9.78775e-06 -0.000281485 0)
(6.3813e-05 -0.000275397 0)
(0.000134036 -0.000256652 0)
(0.000198001 -0.000226154 0)
(0.000252571 -0.000185024 0)
(0.000294671 -0.000135437 0)
(0.000322292 -7.93803e-05 0)
(0.000333898 -2.03801e-05 0)
(0.000328372 3.90901e-05 0)
(0.000305792 9.54365e-05 0)
(0.000268056 0.000145993 0)
(0.000216557 0.00018738 0)
(0.00015443 0.000217528 0)
(8.51256e-05 0.000234474 0)
(1.2471e-05 0.000237305 0)
(-5.85968e-05 0.000225531 0)
(-0.000123445 0.00020035 0)
(-0.000178355 0.000163365 0)
(-0.000219917 0.000117115 0)
(-0.000245367 6.49216e-05 0)
(-0.000253435 1.0483e-05 0)
(-0.000243418 -4.19219e-05 0)
(-0.00021664 -8.87231e-05 0)
(-0.000175748 -0.000126489 0)
(-0.000124208 -0.000152276 0)
(-6.63031e-05 -0.000164194 0)
(-6.89598e-06 -0.000161419 0)
(4.85684e-05 -0.00014414 0)
(9.47105e-05 -0.000114686 0)
(0.000127884 -7.55451e-05 0)
(0.000145354 -3.0788e-05 0)
(0.000145354 1.52787e-05 0)
(0.000128103 5.82277e-05 0)
(9.59016e-05 9.38022e-05 0)
(5.20143e-05 0.00011843 0)
(1.238e-07 0.000129734 0)
(-5.29515e-05 0.000126095 0)
(-0.000100351 0.00010861 0)
(-0.000137902 7.92566e-05 0)
(-0.000161514 4.15407e-05 0)
(-0.000168294 -1.54331e-07 0)
(-0.000157487 -4.08087e-05 0)
(-0.00013071 -7.58588e-05 0)
(-9.12224e-05 -0.000101031 0)
(-4.37569e-05 -0.000113498 0)
(6.26731e-06 -0.000111865 0)
(5.19492e-05 -9.64096e-05 0)
(8.71952e-05 -6.98681e-05 0)
(0.000108504 -3.60266e-05 0)
(0.000113445 2.35562e-07 0)
(0.000102111 3.39753e-05 0)
(7.70814e-05 6.05945e-05 0)
(4.25583e-05 7.67194e-05 0)
(3.37182e-06 8.04672e-05 0)
(-3.39149e-05 7.16287e-05 0)
(-6.3121e-05 5.266e-05 0)
(-8.08719e-05 2.6973e-05 0)
(-8.49461e-05 -8.49015e-07 0)
(-7.55993e-05 -2.64658e-05 0)
(-5.5258e-05 -4.58471e-05 0)
(-2.79555e-05 -5.65787e-05 0)
(1.75309e-06 -5.76871e-05 0)
(2.89535e-05 -4.9896e-05 0)
(4.93443e-05 -3.55022e-05 0)
(6.09228e-05 -1.76445e-05 0)
(6.28153e-05 2.77276e-07 0)
(5.62445e-05 1.54348e-05 0)
(4.33495e-05 2.56149e-05 0)
(2.74537e-05 3.02099e-05 0)
(1.15191e-05 2.89751e-05 0)
(-2.52148e-06 2.32836e-05 0)
(-1.21086e-05 1.5051e-05 0)
(-1.64159e-05 5.8841e-06 0)
(-1.58896e-05 -2.55749e-06 0)
(-1.13126e-05 -8.93771e-06 0)
(-4.07678e-06 -1.24133e-05 0)
(6.40635e-06 -1.65152e-05 0)
(2.09047e-05 -1.13623e-05 0)
(3.58097e-05 -9.61445e-06 0)
(5.15134e-05 -7.2905e-06 0)
(6.78578e-05 -4.13309e-06 0)
(8.52911e-05 -7.4126e-07 0)
(0.000103416 3.39445e-06 0)
(0.000122473 7.0352e-06 0)
(0.000141865 1.08981e-05 0)
(0.000160895 1.34098e-05 0)
(0.000180762 1.47435e-05 0)
(0.000200458 1.40485e-05 0)
(0.000220099 1.13547e-05 0)
(0.000239485 6.24393e-06 0)
(0.000258549 -1.10747e-06 0)
(0.000277474 -1.07864e-05 0)
(0.000296174 -2.25511e-05 0)
(0.000314964 -3.63202e-05 0)
(0.000334097 -5.16647e-05 0)
(0.000353444 -6.83679e-05 0)
(0.000373424 -8.60729e-05 0)
(0.000394929 -0.000104485 0)
(0.000417469 -0.000123176 0)
(0.000441641 -0.00014199 0)
(0.000466931 -0.000160167 0)
(0.000493662 -0.00017777 0)
(0.000521388 -0.000193806 0)
(0.000549465 -0.000208486 0)
(0.000577489 -0.00022083 0)
(0.000604882 -0.000231219 0)
(0.00063173 -0.000239042 0)
(0.000658395 -0.000244279 0)
(0.000685296 -0.000246873 0)
(0.000711604 -0.000246665 0)
(0.000737221 -0.000243494 0)
(0.000762751 -0.000237144 0)
(0.000787562 -0.000227517 0)
(0.000810464 -0.000214489 0)
(0.000831905 -0.000197964 0)
(0.000851057 -0.000177891 0)
(0.000867914 -0.000154328 0)
(0.000882532 -0.00012736 0)
(0.000894404 -9.70398e-05 0)
(0.000903553 -6.37198e-05 0)
(0.000909525 -2.75473e-05 0)
(0.000911804 1.09979e-05 0)
(0.000909297 5.16816e-05 0)
(0.000901465 9.4281e-05 0)
(0.000889115 0.000138472 0)
(0.000872222 0.00018379 0)
(0.000850852 0.000229709 0)
(0.000824631 0.000275835 0)
(0.000793935 0.000321594 0)
(0.000758783 0.000366443 0)
(0.000718765 0.000409766 0)
(0.00067377 0.000451106 0)
(0.000624558 0.000489795 0)
(0.000571181 0.000525194 0)
(0.000513602 0.000556889 0)
(0.000452077 0.000584288 0)
(0.000387207 0.00060705 0)
(0.000319864 0.000624518 0)
(0.000249772 0.000636447 0)
(0.000178142 0.000642311 0)
(0.000105468 0.000641939 0)
(3.25125e-05 0.000635002 0)
(-3.99679e-05 0.000621358 0)
(-0.000111103 0.000601045 0)
(-0.000179897 0.000573888 0)
(-0.000245624 0.000540178 0)
(-0.000307353 0.000500033 0)
(-0.000364231 0.000453822 0)
(-0.000415321 0.000401982 0)
(-0.000459828 0.000345041 0)
(-0.000496936 0.000283646 0)
(-0.000526175 0.000218663 0)
(-0.000546632 0.000150764 0)
(-0.000557892 8.10708e-05 0)
(-0.000559497 1.04348e-05 0)
(-0.000550817 -5.95861e-05 0)
(-0.000532604 -0.000128333 0)
(-0.00050491 -0.000194252 0)
(-0.000467734 -0.000256529 0)
(-0.000421579 -0.000313575 0)
(-0.000367251 -0.000364563 0)
(-0.00030531 -0.000407985 0)
(-0.000236763 -0.000443186 0)
(-0.000163196 -0.000469071 0)
(-8.61068e-05 -0.000484867 0)
(-6.76633e-06 -0.000490242 0)
(7.32179e-05 -0.000484448 0)
(0.000151611 -0.000467745 0)
(0.000227108 -0.000439983 0)
(0.000297487 -0.000401743 0)
(0.000360811 -0.000353597 0)
(0.000415732 -0.000296476 0)
(0.000460453 -0.000231592 0)
(0.000493778 -0.00016051 0)
(0.000514249 -8.49227e-05 0)
(0.0005207 -6.63792e-06 0)
(0.00051289 7.2038e-05 0)
(0.000490784 0.00014914 0)
(0.000454696 0.000222273 0)
(0.000405202 0.000289493 0)
(0.000343491 0.000348217 0)
(0.000271036 0.000396714 0)
(0.000189942 0.00043306 0)
(0.000102589 0.000455863 0)
(1.10802e-05 0.000464043 0)
(-8.10227e-05 0.000456934 0)
(-0.000170398 0.000434471 0)
(-0.000254447 0.00039704 0)
(-0.000329885 0.000345642 0)
(-0.000393882 0.000281921 0)
(-0.000443474 0.000207598 0)
(-0.000476872 0.00012556 0)
(-0.000492625 3.88694e-05 0)
(-0.000489033 -4.93276e-05 0)
(-0.000466109 -0.000135694 0)
(-0.000424841 -0.000216842 0)
(-0.000366116 -0.000288867 0)
(-0.000291916 -0.000348763 0)
(-0.000205652 -0.000393907 0)
(-0.000110447 -0.000421573 0)
(-1.01017e-05 -0.000430837 0)
(9.04567e-05 -0.000420391 0)
(0.000186006 -0.000390587 0)
(0.00027251 -0.000342766 0)
(0.000345607 -0.000278954 0)
(0.000401813 -0.000202327 0)
(0.000437462 -0.000116238 0)
(0.000450867 -2.55165e-05 0)
(0.000441326 6.53101e-05 0)
(0.000408834 0.000151138 0)
(0.000355293 0.000227558 0)
(0.000283428 0.000289846 0)
(0.000197609 0.000334631 0)
(0.000102683 0.000359021 0)
(3.70822e-06 0.000361433 0)
(-9.26121e-05 0.000341861 0)
(-0.00017937 0.00030162 0)
(-0.000252184 0.000243551 0)
(-0.000305967 0.000171742 0)
(-0.000337381 9.11303e-05 0)
(-0.000344267 7.61859e-06 0)
(-0.000326536 -7.24512e-05 0)
(-0.00028659 -0.000143723 0)
(-0.000227564 -0.000200425 0)
(-0.00015427 -0.000238447 0)
(-7.30752e-05 -0.00025518 0)
(9.62951e-06 -0.000248856 0)
(8.57453e-05 -0.000220809 0)
(0.000148402 -0.000173818 0)
(0.000192736 -0.000112677 0)
(0.000214452 -4.30861e-05 0)
(0.000212148 2.80308e-05 0)
(0.000186231 9.39164e-05 0)
(0.000139771 0.000148086 0)
(7.77301e-05 0.000184977 0)
(5.30157e-06 0.000201102 0)
(-6.82032e-05 0.000194327 0)
(-0.000133395 0.00016633 0)
(-0.00018453 0.000120398 0)
(-0.00021593 6.17569e-05 0)
(-0.000223906 -2.32993e-06 0)
(-0.00020795 -6.46603e-05 0)
(-0.000170223 -0.000117802 0)
(-0.000115465 -0.000155549 0)
(-5.04245e-05 -0.000173446 0)
(1.74805e-05 -0.000169722 0)
(7.86102e-05 -0.000144904 0)
(0.000124913 -0.000103467 0)
(0.000151664 -5.12826e-05 0)
(0.000155926 4.16887e-06 0)
(0.000138212 5.53258e-05 0)
(0.000102192 9.51597e-05 0)
(5.38893e-05 0.000118561 0)
(8.43731e-08 0.000122953 0)
(-5.01317e-05 0.000108193 0)
(-8.86038e-05 7.82417e-05 0)
(-0.000110892 3.85519e-05 0)
(-0.000114443 -3.86424e-06 0)
(-0.000100029 -4.23081e-05 0)
(-7.12484e-05 -7.08458e-05 0)
(-3.3953e-05 -8.58873e-05 0)
(5.55844e-06 -8.6283e-05 0)
(4.0708e-05 -7.33277e-05 0)
(6.60456e-05 -5.08087e-05 0)
(7.90974e-05 -2.36129e-05 0)
(7.92997e-05 3.12917e-06 0)
(6.86164e-05 2.52317e-05 0)
(5.03705e-05 3.95165e-05 0)
(2.88547e-05 4.53449e-05 0)
(8.02178e-06 4.25181e-05 0)
(-9.20187e-06 3.34904e-05 0)
(-2.02694e-05 2.0882e-05 0)
(-2.45228e-05 7.18171e-06 0)
(-2.25954e-05 -5.15486e-06 0)
(-1.57172e-05 -1.43782e-05 0)
(-5.62758e-06 -1.93388e-05 0)
(8.04944e-06 -0.000712504 0)
(2.54989e-05 -0.000741084 0)
(4.25788e-05 -0.000746875 0)
(5.95005e-05 -0.000754807 0)
(7.43326e-05 -0.000763597 0)
(8.87313e-05 -0.000774544 0)
(9.99955e-05 -0.000782809 0)
(0.000108232 -0.00079266 0)
(0.000110432 -0.00079468 0)
(0.000104684 -0.000793561 0)
(9.51676e-05 -0.000785356 0)
(8.10009e-05 -0.000775006 0)
(6.45996e-05 -0.000761122 0)
(4.69077e-05 -0.000746383 0)
(3.01557e-05 -0.000730366 0)
(1.49211e-05 -0.000715197 0)
(2.36246e-06 -0.000700992 0)
(-5.97343e-06 -0.000689086 0)
(-1.0213e-05 -0.000679535 0)
(-9.89087e-06 -0.000673779 0)
(-4.86648e-06 -0.000670846 0)
(5.18476e-06 -0.000671222 0)
(1.945e-05 -0.000673146 0)
(3.97218e-05 -0.000678041 0)
(6.472e-05 -0.000681801 0)
(9.53614e-05 -0.000687547 0)
(0.000130553 -0.000688084 0)
(0.000170548 -0.000690613 0)
(0.000213723 -0.000684359 0)
(0.000258512 -0.000678761 0)
(0.000306502 -0.000666254 0)
(0.000354973 -0.000651608 0)
(0.00040429 -0.000632037 0)
(0.000455162 -0.000608626 0)
(0.000506563 -0.00058092 0)
(0.000558218 -0.000549116 0)
(0.000609743 -0.000513389 0)
(0.000660213 -0.000473798 0)
(0.00070949 -0.000430482 0)
(0.000756661 -0.000383588 0)
(0.000801146 -0.000333163 0)
(0.000842444 -0.00027957 0)
(0.000879272 -0.000222822 0)
(0.000911136 -0.000163416 0)
(0.000937352 -0.000101391 0)
(0.000957878 -3.71143e-05 0)
(0.000973402 2.92574e-05 0)
(0.000982994 9.70971e-05 0)
(0.000985849 0.0001659 0)
(0.000981197 0.000235202 0)
(0.000969338 0.000304515 0)
(0.000949722 0.000373216 0)
(0.000922433 0.000440815 0)
(0.000886935 0.000506371 0)
(0.000844083 0.000569531 0)
(0.000794065 0.000629276 0)
(0.000736122 0.000685058 0)
(0.000671332 0.000736022 0)
(0.000600509 0.000781603 0)
(0.000524018 0.000820682 0)
(0.000442123 0.000853106 0)
(0.000355932 0.000877851 0)
(0.000265877 0.00089448 0)
(0.00017332 0.000902581 0)
(7.90286e-05 0.000901577 0)
(-1.60368e-05 0.000891318 0)
(-0.00011048 0.000871479 0)
(-0.000203415 0.000842061 0)
(-0.000293555 0.000802976 0)
(-0.000379502 0.000754524 0)
(-0.000460253 0.000697022 0)
(-0.000534283 0.000630861 0)
(-0.000600577 0.000556679 0)
(-0.000658071 0.000475353 0)
(-0.000705619 0.000387634 0)
(-0.00074234 0.000294838 0)
(-0.000767568 0.000198204 0)
(-0.00078035 9.90433e-05 0)
(-0.000779562 -1.14926e-06 0)
(-0.000765477 -0.000100714 0)
(-0.000738427 -0.000198298 0)
(-0.000698248 -0.000291997 0)
(-0.000645376 -0.000380024 0)
(-0.000580444 -0.000460785 0)
(-0.000504107 -0.000532491 0)
(-0.000417715 -0.00059357 0)
(-0.000323059 -0.000642664 0)
(-0.000221245 -0.000678539 0)
(-0.000114946 -0.000699867 0)
(-5.54576e-06 -0.00070623 0)
(0.000104432 -0.000696823 0)
(0.000211903 -0.00067157 0)
(0.000315072 -0.000630733 0)
(0.000411031 -0.000575021 0)
(0.000497572 -0.000504964 0)
(0.000572309 -0.000422384 0)
(0.000632864 -0.000328774 0)
(0.000677293 -0.000226397 0)
(0.000704435 -0.000117758 0)
(0.000712458 -5.58994e-06 0)
(0.000700861 0.000107104 0)
(0.000669981 0.000217361 0)
(0.000620123 0.000321805 0)
(0.000551787 0.000417252 0)
(0.000466731 0.000500733 0)
(0.000367358 0.000569381 0)
(0.000256046 0.000620403 0)
(0.000136285 0.00065217 0)
(1.1572e-05 0.000662904 0)
(-0.000113724 0.000651994 0)
(-0.000235496 0.000618526 0)
(-0.000349435 0.000564529 0)
(-0.000451165 0.000490093 0)
(-0.000537423 0.000398412 0)
(-0.000604344 0.000292162 0)
(-0.000648347 0.00017472 0)
(-0.000667922 5.05825e-05 0)
(-0.000662002 -7.49869e-05 0)
(-0.000630166 -0.000197686 0)
(-0.000572684 -0.000312467 0)
(-0.000491719 -0.000414082 0)
(-0.00039071 -0.000498723 0)
(-0.000272962 -0.000561261 0)
(-0.000143813 -0.000599781 0)
(-8.27092e-06 -0.000610985 0)
(0.000127534 -0.000594486 0)
(0.000255893 -0.000550935 0)
(0.000371427 -0.000481539 0)
(0.000468359 -0.000389763 0)
(0.000541933 -0.000279756 0)
(0.00058796 -0.000157088 0)
(0.0006036 -2.81202e-05 0)
(0.000587875 0.000100506 0)
(0.00054148 0.0002218 0)
(0.000467283 0.000328794 0)
(0.000368653 0.000415597 0)
(0.000251675 0.000477184 0)
(0.000122569 0.000509456 0)
(-1.0758e-05 0.000510383 0)
(-0.000139374 0.000480104 0)
(-0.000254853 0.00042088 0)
(-0.000350106 0.000336334 0)
(-0.000419242 0.000233209 0)
(-0.000457631 0.000117648 0)
(-0.000462635 -6.89371e-07 0)
(-0.000434773 -0.000114678 0)
(-0.000376695 -0.00021457 0)
(-0.000292994 -0.000293782 0)
(-0.000191334 -0.000345739 0)
(-7.91935e-05 -0.000366758 0)
(3.37849e-05 -0.00035547 0)
(0.000136747 -0.000312958 0)
(0.000220498 -0.000244072 0)
(0.000278352 -0.000155237 0)
(0.000305503 -5.52609e-05 0)
(0.000299572 4.65519e-05 0)
(0.000261761 0.000140015 0)
(0.000196191 0.000216353 0)
(0.000109845 0.00026756 0)
(1.03881e-05 0.000288862 0)
(-8.96893e-05 0.000277393 0)
(-0.000177817 0.000235863 0)
(-0.000246336 0.000169073 0)
(-0.000287401 8.50327e-05 0)
(-0.00029654 -6.56388e-06 0)
(-0.000273349 -9.49697e-05 0)
(-0.000220927 -0.000169728 0)
(-0.000145919 -0.000222049 0)
(-5.76862e-05 -0.000245867 0)
(3.33991e-05 -0.000238586 0)
(0.000114489 -0.000201816 0)
(0.000174674 -0.000141849 0)
(0.000208003 -6.72174e-05 0)
(0.000210923 1.1401e-05 0)
(0.00018442 8.32314e-05 0)
(0.000133703 0.000138323 0)
(6.72629e-05 0.000169678 0)
(-5.51372e-06 0.000173909 0)
(-7.23533e-05 0.000151235 0)
(-0.000122426 0.000107428 0)
(-0.000150064 5.0587e-05 0)
(-0.000152366 -9.3064e-06 0)
(-0.000130869 -6.27139e-05 0)
(-9.08676e-05 -0.000101495 0)
(-4.0514e-05 -0.000120814 0)
(1.16245e-05 -0.000119436 0)
(5.67664e-05 -9.963e-05 0)
(8.79588e-05 -6.70394e-05 0)
(0.000102389 -2.86739e-05 0)
(9.99767e-05 8.26807e-06 0)
(8.36547e-05 3.79593e-05 0)
(5.83725e-05 5.64106e-05 0)
(2.97404e-05 6.29338e-05 0)
(2.97371e-06 5.76399e-05 0)
(-1.80113e-05 4.44742e-05 0)
(-3.07545e-05 2.6554e-05 0)
(-3.46803e-05 7.72219e-06 0)
(-3.08549e-05 -8.94444e-06 0)
(-2.10578e-05 -2.12068e-05 0)
(-7.46147e-06 -2.76616e-05 0)
(-6.31611e-06 -0.000182163 0)
(-1.54439e-05 -0.000183347 0)
(-2.37552e-05 -0.00017084 0)
(-2.28731e-05 -0.000151787 0)
(-1.90998e-05 -0.000121291 0)
(4.1763e-06 -8.44582e-05 0)
(2.87372e-05 -2.5021e-05 0)
(7.67106e-05 3.32908e-05 0)
(0.00013277 0.000123977 0)
(0.000177469 0.000189889 0)
(0.000229185 0.000244166 0)
(0.000268122 0.000274261 0)
(0.00030201 0.000290405 0)
(0.000326107 0.000289252 0)
(0.000342764 0.000273711 0)
(0.000349885 0.000243598 0)
(0.000350831 0.000200109 0)
(0.000346428 0.000144226 0)
(0.000340263 7.86404e-05 0)
(0.000332681 7.17426e-06 0)
(0.000323702 -6.70706e-05 0)
(0.000322381 -0.00014721 0)
(0.00032613 -0.00022586 0)