/*--------------------------------*- C++ -*----------------------------------*\
  =========                 |
  \\      /  F ield         | OpenFOAM: The Open Source CFD Toolbox
   \\    /   O peration     | Website:  https://openfoam.org
    \\  /    A nd           | Version:  12
     \\/     M anipulation  |
\*---------------------------------------------------------------------------*/
FoamFile
{
    format      ascii;
    class       volVectorField;
    location    "13";
    object      zeta;
}
// * * * * * * * * * * * * * * * * * * * * * * * * * * * * * * * * * * * * * //

dimensions      [0 1 0 0 0 0 0];

internalField   uniform (0 0 0);

boundaryField
{
    freeSurface
    {
        type            calculated;
        value           nonuniform List<vector> 
181
(
(0 0.00597058 0)
(0 0.00597033 0)
(0 0.00596973 0)
(0 0.00596864 0)
(0 0.0059679 0)
(0 0.00596643 0)
(0 0.00596643 0)
(0 0.0059645 0)
(0 0.000752142 0)
(0 0.000759704 0)
(0 0.000776818 0)
(0 0.00079908 0)
(0 0.000827507 0)
(0 0.000862125 0)
(0 0.000900713 0)
(0 0.000943232 0)
(0 0.000988118 0)
(0 0.00103499 0)
(0 0.00108234 0)
(0 0.00112926 0)
(0 0.00117422 0)
(0 0.00121631 0)
(0 0.00125455 0)
(0 0.00128815 0)
(0 0.0013165 0)
(0 0.0013388 0)
(0 0.0013542 0)
(0 0.00136188 0)
(0 0.00136117 0)
(0 0.00135163 0)
(0 0.00133287 0)
(0 0.00130473 0)
(0 0.00126685 0)
(0 0.00121919 0)
(0 0.00116167 0)
(0 0.00109447 0)
(0 0.00101784 0)
(0 0.000932202 0)
(0 0.000838078 0)
(0 0.000736092 0)
(0 0.000626956 0)
(0 0.000511572 0)
(0 0.000390894 0)
(0 0.000265985 0)
(0 0.000138132 0)
(0 8.7585e-06 0)
(0 -0.000120748 0)
(0 -0.000248863 0)
(0 -0.000373926 0)
(0 -0.000494325 0)
(0 -0.000608254 0)
(0 -0.000714088 0)
(0 -0.000810216 0)
(0 -0.000894908 0)
(0 -0.000966641 0)
(0 -0.0010242 0)
(0 -0.0010664 0)
(0 -0.00109213 0)
(0 -0.00110046 0)
(0 -0.00109089 0)
(0 -0.00106309 0)
(0 -0.00101695 0)
(0 -0.000952796 0)
(0 -0.00087114 0)
(0 -0.000773078 0)
(0 -0.000659929 0)
(0 -0.00053346 0)
(0 -0.000395713 0)
(0 -0.00024924 0)
(0 -9.68503e-05 0)
(0 5.84077e-05 0)
(0 0.000213054 0)
(0 0.000363793 0)
(0 0.000507015 0)
(0 0.000639104 0)
(0 0.000756496 0)
(0 0.000856003 0)
(0 0.000934518 0)
(0 0.000989455 0)
(0 0.0010188 0)
(0 0.00102105 0)
(0 0.000995514 0)
(0 0.000942264 0)
(0 0.00086216 0)
(0 0.00075702 0)
(0 0.000629194 0)
(0 0.000482363 0)
(0 0.000320707 0)
(0 0.000148893 0)
(0 -2.76761e-05 0)
(0 -0.000203138 0)
(0 -0.000371673 0)
(0 -0.000527226 0)
(0 -0.00066421 0)
(0 -0.000777233 0)
(0 -0.000861792 0)
(0 -0.000914241 0)
(0 -0.000932067 0)
(0 -0.000913926 0)
(0 -0.000860053 0)
(0 -0.000772104 0)
(0 -0.000653364 0)
(0 -0.000508386 0)
(0 -0.000343349 0)
(0 -0.000165269 0)
(0 1.75736e-05 0)
(0 0.00019694 0)
(0 0.000364365 0)
(0 0.000511537 0)
(0 0.00063079 0)
(0 0.000715839 0)
(0 0.000762001 0)
(0 0.000766529 0)
(0 0.000728769 0)
(0 0.00065096 0)
(0 0.000537212 0)
(0 0.000393999 0)
(0 0.000229956 0)
(0 5.5371e-05 0)
(0 -0.000118688 0)
(0 -0.000281511 0)
(0 -0.00042216 0)
(0 -0.000531118 0)
(0 -0.000600758 0)
(0 -0.000626153 0)
(0 -0.000605459 0)
(0 -0.000540508 0)
(0 -0.000436291 0)
(0 -0.000301175 0)
(0 -0.000146212 0)
(0 1.54848e-05 0)
(0 0.000170753 0)
(0 0.000306788 0)
(0 0.000411536 0)
(0 0.000475707 0)
(0 0.000493806 0)
(0 0.000464371 0)
(0 0.00039069 0)
(0 0.000280565 0)
(0 0.000145237 0)
(0 -6.66807e-07 0)
(0 -0.000142426 0)
(0 -0.000265724 0)
(0 -0.000357411 0)
(0 -0.000408047 0)
(0 -0.000413109 0)
(0 -0.000373256 0)
(0 -0.000294597 0)
(0 -0.000187968 0)
(0 -6.7982e-05 0)
(0 4.96999e-05 0)
(0 0.000150926 0)
(0 0.000222722 0)
(0 0.000256956 0)
(0 0.000251036 0)
(0 0.000208469 0)
(0 0.000138076 0)
(0 5.28455e-05 0)
(0 -3.16235e-05 0)
(0 -0.000102288 0)
(0 -0.000147517 0)
(0 -0.00016124 0)
(0 -0.000143842 0)
(0 -0.000101673 0)
(0 -4.54816e-05 0)
(0 1.19645e-05 0)
(0 5.86533e-05 0)
(0 8.5999e-05 0)
(0 8.91913e-05 0)
(0 6.94238e-05 0)
(0 3.30007e-05 0)
(0 -1.06532e-05 0)
(0 -5.1207e-05 0)
(0 -7.98529e-05 0)
(0 -9.08335e-05 0)
(0 -8.15177e-05 0)
(0 -5.49062e-05 0)
(0 -1.73599e-05 0)
(0 2.26868e-05 0)
(0 5.61923e-05 0)
(0 7.53712e-05 0)
)
;
    }
    walls
    {
        type            calculated;
        value           uniform (0 0 0);
    }
    floatingObject
    {
        type            calculated;
        value           uniform (0 0 0);
    }
    frontAndBack
    {
        type            empty;
    }
}


// ************************************************************************* //
