# Probe 0 (0 0 0)
# Time            0                
0                 0                
0.0025            51250.90659      
0.005             -78369.14788     
0.0075            -76836.98493     
0.01              -90681.91184     
0.0125            -101166.3428     
0.015             -106649.5458     
0.0175            -109492.7184     
0.02              -111007.0525     
0.0225            -111790.9407     
0.025             -112144.9699     
0.0275            -112235.8589     
0.03              -112162.6799     
0.0325            -111987.1386     
0.035             -111748.9117     
0.0375            -111474.0548     
0.04              -111179.899      
0.0425            -110878.039      
0.045             -110576.2235     
0.0475            -110279.5837     
0.05              -109991.4534     
0.0525            -109713.9195     
0.055             -109448.2045     
0.0575            -109194.9299     
0.06              -108954.3012     
0.0625            -108726.2388     
0.065             -108510.4707     
0.0675            -108306.5984     
0.07              -108114.1438     
0.0725            -107932.5827     
0.075             -107761.3687     
0.0775            -107599.9496     
0.08              -107447.7788     
0.0825            -107304.3236     
0.085             -107169.0701     
0.0875            -107041.5265     
0.09              -106921.2251     
0.0925            -106807.7228     
0.095             -106700.6018     
0.0975            -106599.4687     
0.1               -106503.9542     
0.1025            -106413.7118     
0.105             -106328.4174     
0.1075            -106247.7674     
0.11              -106171.4781     
0.1125            -106099.2842     
0.115             -106030.9381     
0.1175            -105966.2081     
0.12              -105904.878      
0.1225            -105846.7457     
0.125             -105791.6224     
0.1275            -105739.3315     
0.13              -105689.7082     
0.1325            -105642.598      
0.135             -105597.8567     
0.1375            -105555.3492     
0.14              -105514.949      
0.1425            -105476.5377     
0.145             -105440.0045     
0.1475            -105405.2452     
0.15              -105372.1623     
0.1525            -105340.6644     
0.155             -105310.6655     
0.1575            -105282.0851     
0.16              -105254.8474     
0.1625            -105228.8812     
0.165             -105204.1195     
0.1675            -105180.4994     
0.17              -105157.9615     
0.1725            -105136.4501     
0.175             -105115.9126     
0.1775            -105096.2995     
0.18              -105077.564      
0.1825            -105059.6622     
0.185             -105042.5523     
0.1875            -105026.1953     
0.19              -105010.5539     
0.1925            -104995.5933     
0.195             -104981.2802     
0.1975            -104967.5835     
0.2               -104954.4735     
0.2025            -104941.9223     
0.205             -104929.9032     
0.2075            -104918.3912     
0.21              -104907.3626     
0.2125            -104896.7947     
0.215             -104886.6662     
0.2175            -104876.9569     
0.22              -104867.6475     
0.2225            -104858.7198     
0.225             -104850.1564     
0.2275            -104841.941      
0.23              -104834.0579     
0.2325            -104826.4923     
0.235             -104819.23       
0.2375            -104812.2577     
0.24              -104805.5625     
0.2425            -104799.1325     
0.245             -104792.9559     
0.2475            -104787.0219     
0.25              -104781.32       
0.2525            -104775.8401     
0.255             -104770.5729     
0.2575            -104765.5092     
0.26              -104760.6404     
0.2625            -104755.9584     
0.265             -104751.4552     
0.2675            -104747.1234     
0.27              -104742.9558     
0.2725            -104738.9457     
0.275             -104735.0865     
0.2775            -104731.3721     
0.28              -104727.7965     
0.2825            -104724.354      
0.285             -104721.0392     
0.2875            -104717.8471     
0.29              -104714.7725     
0.2925            -104711.8109     
0.295             -104708.9576     
0.2975            -104706.2084     
0.3               -104703.5592     
0.3025            -104701.0059     
0.305             -104698.5448     
0.3075            -104696.1723     
0.31              -104693.885      
0.3125            -104691.6794     
0.315             -104689.5524     
0.3175            -104687.501      
0.32              -104685.5223     
0.3225            -104683.6134     
0.325             -104681.7716     
0.3275            -104679.9945     
0.33              -104678.2796     
0.3325            -104676.6244     
0.335             -104675.0268     
0.3375            -104673.4845     
0.34              -104671.9955     
0.3425            -104670.5578     
0.345             -104669.1694     
0.3475            -104667.8286     
0.35              -104666.5335     
0.3525            -104665.2825     
0.355             -104664.0739     
0.3575            -104662.9063     
0.36              -104661.7779     
0.3625            -104660.6875     
0.365             -104659.6337     
0.3675            -104658.615      
0.37              -104657.6303     
0.3725            -104656.6783     
0.375             -104655.7578     
0.3775            -104654.8677     
0.38              -104654.0069     
0.3825            -104653.1744     
0.385             -104652.3692     
0.3875            -104651.5902     
0.39              -104650.8366     
0.3925            -104650.1075     
0.395             -104649.4019     
0.3975            -104648.7191     
0.4               -104648.0583     
0.4025            -104647.4187     
0.405             -104646.7995     
0.4075            -104646.2        
0.41              -104645.6197     
0.4125            -104645.0577     
0.415             -104644.5135     
0.4175            -104643.9864     
0.42              -104643.4759     
0.4225            -104642.9814     
0.425             -104642.5023     
0.4275            -104642.0382     
0.43              -104641.5885     
0.4325            -104641.1527     
0.435             -104640.7303     
0.4375            -104640.321      
0.44              -104639.9242     
0.4425            -104639.5395     
0.445             -104639.1666     
0.4475            -104638.805      
0.45              -104638.4544     
0.4525            -104638.1144     
0.455             -104637.7846     
0.4575            -104637.4648     
0.46              -104637.1545     
0.4625            -104636.8535     
0.465             -104636.5615     
0.4675            -104636.2781     
0.47              -104636.0031     
0.4725            -104635.7363     
0.475             -104635.4772     
0.4775            -104635.2258     
0.48              -104634.9818     
0.4825            -104634.7448     
0.485             -104634.5147     
0.4875            -104634.2913     
0.49              -104634.0744     
0.4925            -104633.8637     
0.495             -104633.659      
0.4975            -104633.4602     
0.5               -104633.2671     
