# Probe 0 (0 0 0)
# Time            0                
0                 0                
0.0025            -0.01111006241   
0.005             0.01519556645    
0.0075            0.01798855804    
0.01              0.02076360422    
0.0125            0.02284877713    
0.015             0.02399700602    
0.0175            0.02464520594    
0.02              0.02503817168    
0.0225            0.02528801921    
0.025             0.02545095453    
0.0275            0.02555818899    
0.03              0.02562841578    
0.0325            0.02567345507    
0.035             0.02570107973    
0.0375            0.02571655001    
0.04              0.02572350279    
0.0425            0.02572449342    
0.045             0.02572133944    
0.0475            0.02571534529    
0.05              0.02570745324    
0.0525            0.02569834657    
0.055             0.02568852151    
0.0575            0.02567833806    
0.06              0.02566805626    
0.0625            0.02565786246    
0.065             0.02564788847    
0.0675            0.02563822555    
0.07              0.0256289349     
0.0725            0.0256200553     
0.075             0.02561160898    
0.0775            0.02560360589    
0.08              0.02559604703    
0.0825            0.02558892686    
0.085             0.02558223522    
0.0875            0.02557595868    
0.09              0.02557008167    
0.0925            0.02556458724    
0.095             0.02555945767    
0.0975            0.02555467493    
0.1               0.02555022098    
0.1025            0.02554607806    
0.105             0.02554222884    
0.1075            0.02553865652    
0.11              0.02553534497    
0.1125            0.02553227873    
0.115             0.02552944304    
0.1175            0.02552682391    
0.12              0.02552440804    
0.1225            0.02552218285    
0.125             0.02552013647    
0.1275            0.02551825769    
0.13              0.02551653596    
0.1325            0.02551496134    
0.135             0.02551352449    
0.1375            0.02551221661    
0.14              0.02551102947    
0.1425            0.0255099553     
0.145             0.02550898684    
0.1475            0.02550811724    
0.15              0.02550734012    
0.1525            0.02550664944    
0.155             0.02550603958    
0.1575            0.02550550524    
0.16              0.02550504145    
0.1625            0.02550464356    
0.165             0.02550430719    
0.1675            0.02550402826    
0.17              0.0255038029     
0.1725            0.02550362753    
0.175             0.02550349874    
0.1775            0.02550341336    
0.18              0.02550336841    
0.1825            0.0255033611     
0.185             0.02550338878    
0.1875            0.02550344901    
0.19              0.02550353946    
0.1925            0.02550365795    
0.195             0.02550380246    
0.1975            0.02550397106    
0.2               0.02550416195    
0.2025            0.02550437345    
0.205             0.02550460397    
0.2075            0.02550485202    
0.21              0.0255051162     
0.2125            0.02550539519    
0.215             0.02550568777    
0.2175            0.02550599277    
0.22              0.02550630911    
0.2225            0.02550663577    
0.225             0.02550697178    
0.2275            0.02550731625    
0.23              0.02550766834    
0.2325            0.02550802725    
0.235             0.02550839223    
0.2375            0.02550876259    
0.24              0.02550913768    
0.2425            0.02550951688    
0.245             0.02550989961    
0.2475            0.02551028534    
0.25              0.02551067357    
0.2525            0.02551106381    
0.255             0.02551145562    
0.2575            0.0255118486     
0.26              0.02551224235    
0.2625            0.02551263651    
0.265             0.02551303075    
0.2675            0.02551342474    
0.27              0.02551381819    
0.2725            0.02551421082    
0.275             0.02551460239    
0.2775            0.02551499264    
0.28              0.02551538136    
0.2825            0.02551576835    
0.285             0.02551615341    
0.2875            0.02551653635    
0.29              0.02551691703    
0.2925            0.02551729529    
0.295             0.02551767098    
0.2975            0.02551804398    
0.3               0.02551841416    
0.3025            0.02551878143    
0.305             0.02551914568    
0.3075            0.02551950682    
0.31              0.02551986476    
0.3125            0.02552021944    
0.315             0.02552057078    
0.3175            0.02552091872    
0.32              0.02552126321    
0.3225            0.0255216042     
0.325             0.02552194165    
0.3275            0.02552227552    
0.33              0.02552260578    
0.3325            0.0255229324     
0.335             0.02552325536    
0.3375            0.02552357464    
0.34              0.02552389022    
0.3425            0.0255242021     
0.345             0.02552451026    
0.3475            0.0255248147     
0.35              0.02552511543    
0.3525            0.02552541244    
0.355             0.02552570573    
0.3575            0.02552599532    
0.36              0.02552628121    
0.3625            0.02552656342    
0.365             0.02552684195    
0.3675            0.02552711682    
0.37              0.02552738805    
0.3725            0.02552765566    
0.375             0.02552791967    
0.3775            0.0255281801     
0.38              0.02552843697    
0.3825            0.02552869031    
0.385             0.02552894015    
0.3875            0.02552918651    
0.39              0.02552942942    
0.3925            0.0255296689     
0.395             0.02552990499    
0.3975            0.02553013772    
0.4               0.02553036711    
0.4025            0.0255305932     
0.405             0.02553081601    
0.4075            0.02553103559    
0.41              0.02553125196    
0.4125            0.02553146516    
0.415             0.02553167522    
0.4175            0.02553188217    
0.42              0.02553208605    
0.4225            0.02553228689    
0.425             0.02553248473    
0.4275            0.0255326796     
0.43              0.02553287153    
0.4325            0.02553306056    
0.435             0.02553324672    
0.4375            0.02553343005    
0.44              0.02553361058    
0.4425            0.02553378836    
0.445             0.0255339634     
0.4475            0.02553413575    
0.45              0.02553430544    
0.4525            0.0255344725     
0.455             0.02553463697    
0.4575            0.02553479889    
0.46              0.02553495828    
0.4625            0.02553511518    
0.465             0.02553526962    
0.4675            0.02553542164    
0.47              0.02553557127    
0.4725            0.02553571855    
0.475             0.02553586349    
0.4775            0.02553600615    
0.48              0.02553614654    
0.4825            0.0255362847     
0.485             0.02553642067    
0.4875            0.02553655446    
0.49              0.02553668612    
0.4925            0.02553681568    
0.495             0.02553694316    
0.4975            0.0255370686     
0.5               0.02553719202    
