# Probe 0 (0 0 0)
# Time            0                
0                 100000           
0.0025            102813.2158      
0.005             103446.9038      
0.0075            105260.7595      
0.01              106965.8672      
0.0125            108539.0596      
0.015             110021.8315      
0.0175            111399.9588      
0.02              112672.4057      
0.0225            113845.8189      
0.025             114928.4926      
0.0275            115928.5202      
0.03              116853.3326      
0.0325            117709.6273      
0.035             118503.4084      
0.0375            119240.0556      
0.04              119924.395       
0.0425            120560.7647      
0.045             121153.0725      
0.0475            121704.8466      
0.05              122219.2793      
0.0525            122699.2654      
0.055             123147.4353      
0.0575            123566.1832      
0.06              123957.6929      
0.0625            124323.9592      
0.065             124666.8075      
0.0675            124987.9108      
0.07              125288.8044      
0.0725            125570.8995      
0.075             125835.4944      
0.0775            126083.7857      
0.08              126316.8769      
0.0825            126535.7873      
0.085             126741.459       
0.0875            126934.7638      
0.09              127116.5094      
0.0925            127287.4444      
0.095             127448.2634      
0.0975            127599.6117      
0.1               127742.0887      
0.1025            127876.2521      
0.105             128002.6209      
0.1075            128121.6786      
0.11              128233.8757      
0.1125            128339.6323      
0.115             128439.3405      
0.1175            128533.3664      
0.12              128622.0519      
0.1225            128705.7168      
0.125             128784.66        
0.1275            128859.1611      
0.13              128929.482       
0.1325            128995.8679      
0.135             129058.5485      
0.1375            129117.7392      
0.14              129173.6419      
0.1425            129226.4461      
0.145             129276.3295      
0.1475            129323.4589      
0.15              129367.9913      
0.1525            129410.0737      
0.155             129449.8447      
0.1575            129487.4342      
0.16              129522.9646      
0.1625            129556.5511      
0.165             129588.3018      
0.1675            129618.3188      
0.17              129646.6979      
0.1725            129673.5296      
0.175             129698.8991      
0.1775            129722.8864      
0.18              129745.5672      
0.1825            129767.0129      
0.185             129787.2905      
0.1875            129806.4636      
0.19              129824.5919      
0.1925            129841.7318      
0.195             129857.9366      
0.1975            129873.2565      
0.2               129887.7391      
0.2025            129901.4292      
0.205             129914.3691      
0.2075            129926.5988      
0.21              129938.1562      
0.2125            129949.0769      
0.215             129959.3948      
0.2175            129969.1417      
0.22              129978.3479      
0.2225            129987.0419      
0.225             129995.2507      
0.2275            130003           
0.23              130010.3138      
0.2325            130017.2151      
0.235             130023.7254      
0.2375            130029.8654      
0.24              130035.6545      
0.2425            130041.1109      
0.245             130046.2522      
0.2475            130051.0948      
0.25              130055.6544      
0.2525            130059.9457      
0.255             130063.9827      
0.2575            130067.7788      
0.26              130071.3465      
0.2625            130074.6978      
0.265             130077.844       
0.2675            130080.7958      
0.27              130083.5634      
0.2725            130086.1564      
0.275             130088.584       
0.2775            130090.8549      
0.28              130092.9772      
0.2825            130094.9589      
0.285             130096.8072      
0.2875            130098.5292      
0.29              130100.1317      
0.2925            130101.6209      
0.295             130103.0027      
0.2975            130104.283       
0.3               130105.4671      
0.3025            130106.5602      
0.305             130107.5671      
0.3075            130108.4925      
0.31              130109.3407      
0.3125            130110.1158      
0.315             130110.822       
0.3175            130111.4629      
0.32              130112.0421      
0.3225            130112.5629      
0.325             130113.0287      
0.3275            130113.4424      
0.33              130113.8069      
0.3325            130114.1251      
0.335             130114.3994      
0.3375            130114.6325      
0.34              130114.8266      
0.3425            130114.984       
0.345             130115.1068      
0.3475            130115.1971      
0.35              130115.2567      
0.3525            130115.2875      
0.355             130115.2912      
0.3575            130115.2695      
0.36              130115.2238      
0.3625            130115.1558      
0.365             130115.0667      
0.3675            130114.958       
0.37              130114.8308      
0.3725            130114.6864      
0.375             130114.526       
0.3775            130114.3506      
0.38              130114.1612      
0.3825            130113.9588      
0.385             130113.7443      
0.3875            130113.5186      
0.39              130113.2826      
0.3925            130113.037       
0.395             130112.7825      
0.3975            130112.52        
0.4               130112.25        
0.4025            130111.9731      
0.405             130111.6901      
0.4075            130111.4014      
0.41              130111.1076      
0.4125            130110.8091      
0.415             130110.5066      
0.4175            130110.2005      
0.42              130109.8911      
0.4225            130109.5789      
0.425             130109.2642      
0.4275            130108.9475      
0.43              130108.6291      
0.4325            130108.3093      
0.435             130107.9884      
0.4375            130107.6667      
0.44              130107.3445      
0.4425            130107.022       
0.445             130106.6995      
0.4475            130106.3771      
0.45              130106.0552      
0.4525            130105.734       
0.455             130105.4135      
0.4575            130105.094       
0.46              130104.7757      
0.4625            130104.4586      
0.465             130104.1431      
0.4675            130103.8291      
0.47              130103.5168      
0.4725            130103.2064      
0.475             130102.8978      
0.4775            130102.5914      
0.48              130102.2871      
0.4825            130101.985       
0.485             130101.6852      
0.4875            130101.3878      
0.49              130101.0928      
0.4925            130100.8004      
0.495             130100.5105      
0.4975            130100.2233      
0.5               130099.9387      
