/*--------------------------------*- C++ -*----------------------------------*\
  =========                 |
  \\      /  F ield         | OpenFOAM: The Open Source CFD Toolbox
   \\    /   O peration     | Website:  https://openfoam.org
    \\  /    A nd           | Version:  12
     \\/     M anipulation  |
\*---------------------------------------------------------------------------*/
FoamFile
{
    format      ascii;
    class       volScalarField;
    location    "3.6";
    object      p_rgh;
}
// * * * * * * * * * * * * * * * * * * * * * * * * * * * * * * * * * * * * * //

dimensions      [1 -1 -2 0 0 0 0];

internalField   nonuniform List<scalar> 
3829
(
1.68078
1.68022
1.67908
1.67734
1.67497
1.67194
1.66822
1.66377
1.65856
1.65255
1.6457
1.63796
1.62927
1.6196
1.60889
1.59709
1.58415
1.57003
1.55467
1.53803
1.52006
1.50072
1.47999
1.45783
1.43425
1.40925
1.38284
1.35504
1.3259
1.29547
1.26383
1.23103
1.19718
1.16235
1.12663
1.09015
1.053
1.0153
0.977164
0.938717
0.900083
0.861393
0.822774
0.784362
0.746286
0.708679
0.671668
0.635376
0.599917
0.56541
0.531945
0.499629
0.469142
0.440244
0.41296
0.387326
0.363374
0.341119
0.320566
0.301703
0.284513
0.268971
0.255039
0.24267
0.231796
0.222326
0.214158
0.207172
0.201233
0.196198
0.191909
0.188209
0.184896
0.181813
0.17878
0.175621
0.172164
0.168245
0.163712
0.158425
0.152261
0.14512
0.136927
0.12744
0.116735
0.104857
0.0918545
0.0777877
0.0627317
0.0467905
0.0300992
0.0128194
-0.00486109
-0.02274
-0.0405991
-0.0582022
-0.0753182
-0.0917089
-0.107147
-0.121413
-0.134301
-0.145632
-0.155252
-0.163037
-0.168905
-0.172804
-0.174559
-0.174337
-0.17219
-0.168205
-0.162506
-0.155253
-0.146632
-0.136857
-0.12616
-0.114785
-0.102985
-0.0910156
-0.0791345
-0.0675817
-0.0565882
-0.0463688
-0.0371145
-0.0289909
-0.0221365
-0.0166611
-0.0126417
-0.010126
-0.00912959
-0.00963616
-0.0116047
-0.0149656
-0.0196251
-0.0254687
-0.0323645
-0.0401656
-0.0487122
-0.0578381
-0.0673738
-0.0771475
-0.0869901
-0.0967374
-0.106225
-0.115322
-0.123891
-0.131813
-0.138986
-0.145321
-0.15075
-0.155223
-0.158705
-0.161182
-0.162654
-0.163144
-0.162682
-0.161315
-0.159103
-0.156115
-0.152433
-0.148144
-0.14334
-0.13812
-0.132584
-0.126831
-0.12096
-0.115078
-0.10926
-0.103602
-0.0981844
-0.0930818
-0.0883596
-0.0840753
-0.0802773
-0.0770049
-0.0742869
-0.0721431
-0.0705838
-0.069609
-0.0692098
-0.069368
-0.0700539
-0.071235
-0.072871
-0.0749144
-0.0773125
-0.0800075
-0.082939
-0.0860443
-0.0892595
-0.0925195
-0.0957599
-0.0989175
-0.10193
-0.104738
-0.107283
-0.109511
-0.111374
-0.112824
-0.113823
-0.114335
1.73654
1.73608
1.73514
1.73369
1.73172
1.72917
1.72601
1.72219
1.71766
1.71238
1.70627
1.69924
1.69122
1.68213
1.67187
1.66037
1.64756
1.63337
1.61776
1.60071
1.5822
1.5621
1.54008
1.51606
1.49018
1.46263
1.43327
1.402
1.36882
1.33414
1.29807
1.26073
1.22222
1.18265
1.14217
1.10092
1.05902
1.01661
0.97383
0.930829
0.887765
0.844801
0.802099
0.759825
0.718139
0.677205
0.637179
0.598217
0.560486
0.524116
0.489259
0.456075
0.424005
0.394179
0.366433
0.340748
0.317127
0.295565
0.276052
0.258573
0.243101
0.229597
0.218002
0.208234
0.200184
0.193727
0.188718
0.185002
0.182407
0.180747
0.179841
0.179442
0.179331
0.179305
0.179149
0.17865
0.1776
0.175803
0.173077
0.169263
0.164222
0.15785
0.150085
0.140569
0.129547
0.117036
0.103071
0.0877247
0.071105
0.0533609
0.0346739
0.0152551
-0.00465559
-0.0248035
-0.0449152
-0.0647066
-0.083894
-0.102192
-0.119329
-0.135053
-0.149126
-0.161345
-0.171532
-0.17956
-0.185319
-0.188765
-0.189974
-0.188911
-0.185657
-0.180348
-0.173153
-0.164274
-0.153942
-0.142412
-0.12996
-0.116866
-0.103418
-0.0899105
-0.0766182
-0.0638062
-0.0517231
-0.0405946
-0.0306201
-0.0219655
-0.014767
-0.00912688
-0.00511207
-0.00275585
-0.00205733
-0.00298466
-0.00547527
-0.00944053
-0.0147685
-0.0213241
-0.0289571
-0.0375035
-0.0467883
-0.0566305
-0.0668479
-0.0772578
-0.0876818
-0.0979481
-0.107895
-0.117382
-0.126272
-0.134445
-0.141801
-0.148254
-0.153739
-0.15821
-0.161638
-0.164014
-0.165346
-0.165659
-0.164992
-0.163399
-0.160943
-0.157702
-0.153761
-0.149212
-0.144153
-0.138687
-0.132916
-0.126944
-0.120873
-0.114805
-0.108825
-0.103027
-0.0974905
-0.0922904
-0.0874921
-0.0831525
-0.0793191
-0.0760299
-0.0733126
-0.0711857
-0.0696579
-0.0687278
-0.0683853
-0.068612
-0.0693685
-0.0706289
-0.0723496
-0.0744807
-0.0769672
-0.0797502
-0.0827676
-0.0859558
-0.0892497
-0.0925839
-0.0958933
-0.0991142
-0.102184
-0.105043
-0.107633
-0.109899
-0.111793
-0.113267
-0.114282
-0.114802
1.81703
1.81686
1.81652
1.81596
1.81515
1.81404
1.81254
1.81059
1.80807
1.80487
1.80087
1.79596
1.79003
1.78298
1.77466
1.76474
1.75287
1.7386
1.72053
1.70067
1.67879
1.65478
1.62894
1.60121
1.57139
1.53929
1.50507
1.46902
1.43119
1.39137
1.34922
1.30521
1.25955
1.21244
1.16408
1.11465
1.06441
1.01358
0.962423
0.911177
0.860083
0.809374
0.759281
0.710026
0.661828
0.6149
0.569444
0.525635
0.483624
0.44356
0.405599
0.369788
0.336167
0.306053
0.278547
0.253635
0.231341
0.21168
0.194652
0.180236
0.168393
0.159057
0.152117
0.147431
0.14483
0.144131
0.145127
0.147589
0.151265
0.155887
0.161224
0.166904
0.172681
0.17826
0.18335
0.187665
0.190932
0.192895
0.193321
0.192
0.188755
0.183452
0.175981
0.166458
0.154733
0.140837
0.124849
0.106899
0.0871766
0.0659126
0.0433769
0.0198737
-0.00425982
-0.0286706
-0.0529865
-0.0768261
-0.0998147
-0.121583
-0.141789
-0.160111
-0.176258
-0.189995
-0.201123
-0.209502
-0.215042
-0.217708
-0.217627
-0.214798
-0.20937
-0.201542
-0.191552
-0.179679
-0.166229
-0.151533
-0.135939
-0.119794
-0.103447
-0.0872609
-0.0715282
-0.0565632
-0.0426404
-0.0300012
-0.0188536
-0.00936211
-0.00165492
0.00418108
0.00810151
0.0100985
0.0102024
0.00848202
0.00503072
-2.77913e-05
-0.00654764
-0.0143622
-0.0232888
-0.0331341
-0.0436956
-0.0547695
-0.0661524
-0.0776447
-0.0890556
-0.100182
-0.110897
-0.121032
-0.130448
-0.139031
-0.146678
-0.153311
-0.158871
-0.163321
-0.166639
-0.168828
-0.169907
-0.169911
-0.168888
-0.166902
-0.164028
-0.160351
-0.155968
-0.150978
-0.145487
-0.139604
-0.133438
-0.127096
-0.120686
-0.114312
-0.108062
-0.102029
-0.0962956
-0.0909348
-0.0860118
-0.0815825
-0.0776922
-0.0743775
-0.0716642
-0.0695681
-0.0680953
-0.0672418
-0.0669953
-0.0673375
-0.0682161
-0.0696129
-0.0714775
-0.0737568
-0.0763928
-0.0793239
-0.0824858
-0.0858129
-0.089239
-0.0926973
-0.096122
-0.0994488
-0.102615
-0.105559
-0.108223
-0.110554
-0.112499
-0.114013
-0.115054
-0.115589
1.90854
1.90915
1.91035
1.91211
1.91436
1.91698
1.91982
1.9227
1.92539
1.92763
1.92908
1.92934
1.92807
1.92492
1.91975
1.91274
1.90357
1.89209
1.87945
1.86306
1.84291
1.81901
1.79126
1.75973
1.72442
1.68538
1.64272
1.59664
1.54736
1.49507
1.44042
1.38325
1.32392
1.26282
1.20026
1.13671
1.0725
1.00796
0.943517
0.879494
0.816214
0.753985
0.693107
0.633873
0.576543
0.521373
0.468601
0.418485
0.371259
0.327139
0.286282
0.248896
0.215247
0.183281
0.15548
0.131459
0.111127
0.0944335
0.0813335
0.0717479
0.0655612
0.0626113
0.062706
0.065623
0.0711122
0.0788971
0.0886727
0.100109
0.112852
0.126529
0.140753
0.155129
0.16925
0.182719
0.195145
0.206143
0.215352
0.222444
0.227112
0.229093
0.228181
0.224199
0.217034
0.206823
0.193474
0.177038
0.157655
0.135555
0.111025
0.0844105
0.0561053
0.0265501
-0.00377852
-0.0343852
-0.0647554
-0.09437
-0.122732
-0.149351
-0.173777
-0.195619
-0.214516
-0.230187
-0.242414
-0.251059
-0.25607
-0.257433
-0.255283
-0.249768
-0.24112
-0.229629
-0.215639
-0.199532
-0.181726
-0.162654
-0.142764
-0.122491
-0.102266
-0.0825141
-0.0635932
-0.0458523
-0.0295944
-0.0150789
-0.00251819
0.00793041
0.0161575
0.0221005
0.025749
0.0271333
0.0263376
0.0234682
0.0186625
0.0120909
0.0039442
-0.00556665
-0.0162185
-0.0277816
-0.0400186
-0.0526963
-0.0655864
-0.0784651
-0.0911189
-0.10335
-0.115025
-0.125964
-0.136028
-0.145101
-0.15309
-0.159921
-0.165547
-0.169938
-0.173089
-0.175013
-0.175747
-0.175336
-0.173841
-0.171338
-0.167917
-0.163676
-0.158721
-0.153164
-0.14712
-0.140705
-0.134035
-0.127226
-0.120388
-0.113629
-0.10704
-0.100715
-0.0947366
-0.0891775
-0.084102
-0.0795639
-0.0756069
-0.0722649
-0.0695609
-0.0675078
-0.0661084
-0.0653547
-0.0652293
-0.0657016
-0.0667567
-0.0683318
-0.0703813
-0.0728497
-0.0756758
-0.0787949
-0.0821397
-0.0856423
-0.0892347
-0.0928492
-0.0964189
-0.0998788
-0.103165
-0.106216
-0.108974
-0.111384
-0.113395
-0.114959
-0.116034
-0.116586
1.97348
1.97597
1.98097
1.98843
1.99823
2.01016
2.02393
2.03918
2.05555
2.07253
2.08928
2.10497
2.11867
2.12916
2.13606
2.13971
2.13959
2.13523
2.12602
2.1114
2.09095
2.06438
2.03149
1.99222
1.94661
1.89507
1.83563
1.77327
1.70617
1.63484
1.55993
1.48205
1.402
1.32031
1.23759
1.15438
1.07123
0.986768
0.905101
0.824749
0.746113
0.669576
0.595491
0.524193
0.455999
0.391198
0.330048
0.272762
0.219543
0.170576
0.126029
0.0860167
0.0506075
0.0198485
-0.00561969
-0.0264553
-0.0426267
-0.0541423
-0.0610557
-0.0634957
-0.0616488
-0.0557407
-0.0460444
-0.0328772
-0.0165887
0.00243241
0.0237602
0.0469381
0.0714751
0.0968581
0.122564
0.148056
0.172784
0.196218
0.21784
0.23714
0.253657
0.266962
0.276673
0.282483
0.284109
0.281365
0.27399
0.262302
0.246244
0.225935
0.20163
0.173677
0.142496
0.108585
0.0725097
0.0348837
-0.00362461
-0.0423376
-0.0805496
-0.117576
-0.152747
-0.185436
-0.215072
-0.241156
-0.263263
-0.281064
-0.294335
-0.302947
-0.306894
-0.306263
-0.301229
-0.29207
-0.27914
-0.262863
-0.24372
-0.222237
-0.198962
-0.17446
-0.149297
-0.124019
-0.0991708
-0.0752065
-0.0525721
-0.0316527
-0.0127754
0.00378747
0.0178272
0.0292039
0.0378381
0.0437059
0.0468396
0.0473174
0.0453185
0.0409577
0.0344394
0.0259902
0.0158558
0.0042998
-0.00841048
-0.022003
-0.0362032
-0.0507454
-0.0653769
-0.079847
-0.0938697
-0.107361
-0.120109
-0.131935
-0.1427
-0.152294
-0.160631
-0.167648
-0.173306
-0.177594
-0.180516
-0.1821
-0.182417
-0.181508
-0.179452
-0.176342
-0.172283
-0.167387
-0.161774
-0.155566
-0.148888
-0.141868
-0.134628
-0.127291
-0.119972
-0.112783
-0.105816
-0.0991669
-0.0929181
-0.0871421
-0.0819012
-0.0772471
-0.0732213
-0.0698546
-0.0671669
-0.0651678
-0.0638562
-0.0632207
-0.0632399
-0.0638824
-0.0651201
-0.0668954
-0.0691548
-0.0718383
-0.0748803
-0.0782121
-0.0817632
-0.0854629
-0.0892418
-0.0930313
-0.0967633
-0.100372
-0.103792
-0.106963
-0.109825
-0.112324
-0.114408
-0.116028
-0.117142
-0.117713
1.94286
1.94875
1.96059
1.97833
2.0017
2.03027
2.06343
2.10033
2.13983
2.18075
2.22216
2.26313
2.30283
2.34187
2.37648
2.40415
2.42411
2.43563
2.438
2.43061
2.413
2.38489
2.34618
2.29692
2.23202
2.16278
2.08431
1.99776
1.90423
1.80494
1.70107
1.59353
1.485
1.37592
1.26682
1.15831
1.05101
0.945467
0.842349
0.742131
0.645254
0.552098
0.463018
0.378332
0.298323
0.223261
0.153393
0.0889358
0.0300769
-0.023026
-0.0702459
-0.111499
-0.146722
-0.176002
-0.198029
-0.214346
-0.224761
-0.229272
-0.228001
-0.221154
-0.208984
-0.191809
-0.170002
-0.143994
-0.114262
-0.0813324
-0.0457807
-0.00821875
0.0306991
0.0702887
0.10986
0.148706
0.186104
0.221363
0.253811
0.282791
0.307707
0.32803
0.3433
0.353136
0.357292
0.355622
0.347161
0.332947
0.312922
0.287289
0.256418
0.220805
0.181044
0.137829
0.091941
0.0442255
-0.00441837
-0.0530746
-0.100822
-0.146765
-0.190042
-0.22985
-0.265485
-0.296336
-0.321909
-0.341841
-0.355913
-0.364042
-0.366272
-0.362822
-0.353977
-0.340153
-0.321865
-0.299705
-0.274325
-0.246418
-0.216696
-0.185872
-0.154646
-0.123675
-0.0936721
-0.0650482
-0.0383699
-0.0140568
0.00754617
0.026167
0.0416172
0.0537838
0.0626252
0.0681714
0.07052
0.0698384
0.0662854
0.0601054
0.0515555
0.0409245
0.0285153
0.0146436
-0.000369787
-0.0162092
-0.0325646
-0.049141
-0.0656661
-0.0819083
-0.0972289
-0.112111
-0.125989
-0.138727
-0.150199
-0.160305
-0.168966
-0.176134
-0.181784
-0.185918
-0.188555
-0.189721
-0.189576
-0.188103
-0.18542
-0.181639
-0.176881
-0.171272
-0.164945
-0.158035
-0.150679
-0.143011
-0.135163
-0.127266
-0.119443
-0.111801
-0.104439
-0.0974523
-0.0909244
-0.0849261
-0.0795174
-0.0747482
-0.0706566
-0.0672706
-0.0646067
-0.0626709
-0.0614581
-0.0609531
-0.0611308
-0.0619564
-0.0633926
-0.0653825
-0.0678669
-0.0707802
-0.0740526
-0.0776105
-0.0813799
-0.0852877
-0.089263
-0.0932362
-0.0971387
-0.100903
-0.104465
-0.10776
-0.110732
-0.113324
-0.115484
-0.117163
-0.118317
-0.118909
1.79682
1.80961
1.83538
1.87398
1.92492
1.9873
2.05973
2.14036
2.22676
2.31659
2.40778
2.49856
2.59068
2.67333
2.74659
2.80863
2.85757
2.8918
2.90993
2.91091
2.89397
2.85863
2.80458
2.73279
2.64385
2.53933
2.42109
2.2917
2.15401
2.01066
1.86422
1.71675
1.56849
1.42144
1.27697
1.13605
0.99936
0.867394
0.740518
0.619051
0.503258
0.393287
0.289391
0.191788
0.100667
0.0162307
-0.0613291
-0.13183
-0.195096
-0.250962
-0.299263
-0.339851
-0.372675
-0.397599
-0.416324
-0.427262
-0.430546
-0.426402
-0.41509
-0.396917
-0.372248
-0.34152
-0.305228
-0.263943
-0.218296
-0.168978
-0.116732
-0.062353
-0.00668962
0.0493747
0.104954
0.159143
0.211021
0.259709
0.304358
0.344144
0.378316
0.406204
0.42722
0.440874
0.44679
0.444664
0.435247
0.417814
0.392671
0.360257
0.321141
0.276029
0.225746
0.171235
0.11354
0.0537841
-0.00686067
-0.067144
-0.125985
-0.18218
-0.23466
-0.282431
-0.324643
-0.36058
-0.389677
-0.411556
-0.426017
-0.433053
-0.432826
-0.425665
-0.412031
-0.392514
-0.367823
-0.338757
-0.306158
-0.270914
-0.233921
-0.196057
-0.158168
-0.121057
-0.0854627
-0.051944
-0.0210785
0.00667985
0.0309752
0.0515463
0.0682368
0.0809761
0.0897708
0.0947074
0.0959524
0.0938169
0.0884585
0.080188
0.0693475
0.0562934
0.0413926
0.0250168
0.00753574
-0.0106905
-0.0293131
-0.0480022
-0.066451
-0.0843611
-0.101399
-0.117541
-0.132511
-0.146136
-0.158285
-0.168866
-0.177812
-0.185084
-0.190679
-0.194613
-0.196932
-0.197719
-0.196973
-0.194874
-0.191517
-0.187024
-0.181531
-0.175176
-0.168107
-0.160471
-0.152414
-0.144081
-0.135611
-0.127143
-0.118811
-0.110712
-0.102953
-0.0956293
-0.0888249
-0.082608
-0.0770366
-0.0721578
-0.0680067
-0.0646083
-0.0619752
-0.0601098
-0.0590034
-0.0586366
-0.0589803
-0.0599956
-0.0616387
-0.0638506
-0.0665667
-0.0697167
-0.0732253
-0.0770144
-0.081006
-0.0851246
-0.0892985
-0.0934573
-0.0975318
-0.101454
-0.105157
-0.108578
-0.11166
-0.114346
-0.116583
-0.118322
-0.119516
-0.120129
1.38457
1.40935
1.45957
1.5356
1.63728
1.76399
1.9138
2.0848
2.27187
2.46186
2.64384
2.82211
2.98198
3.12738
3.25519
3.36244
3.44689
3.50684
3.54092
3.54815
3.52779
3.4792
3.4008
3.29505
3.1613
3.0018
2.81922
2.61986
2.41182
2.201
1.99478
1.79456
1.60082
1.41405
1.23445
1.06219
0.897457
0.740458
0.591381
0.450441
0.317745
0.192759
0.0758011
-0.0330159
-0.133602
-0.225843
-0.309609
-0.384751
-0.451094
-0.508475
-0.556779
-0.595862
-0.625556
-0.645797
-0.658534
-0.661871
-0.656042
-0.641319
-0.618024
-0.58654
-0.547332
-0.500954
-0.448034
-0.389296
-0.325538
-0.257632
-0.186516
-0.113191
-0.0387232
0.0357759
0.109204
0.18043
0.248306
0.311746
0.369701
0.421159
0.465215
0.501063
0.528001
0.545471
0.55308
0.550614
0.53838
0.516189
0.484409
0.443595
0.394507
0.338079
0.275398
0.207702
0.136344
0.0627614
-0.0115449
-0.085011
-0.156262
-0.223821
-0.286374
-0.342732
-0.391886
-0.433016
-0.465509
-0.488984
-0.503284
-0.508496
-0.505018
-0.493254
-0.473873
-0.44769
-0.415645
-0.378761
-0.338101
-0.29477
-0.24986
-0.204417
-0.159442
-0.115928
-0.0745491
-0.0360294
-0.000971761
0.0301533
0.0569994
0.0793301
0.097027
0.110078
0.118556
0.122604
0.122364
0.118616
0.111203
0.100612
0.087278
0.0716277
0.0540888
0.0350892
0.0150461
-0.00563641
-0.0265724
-0.0474034
-0.0677975
-0.0874095
-0.106023
-0.123456
-0.139491
-0.153959
-0.166739
-0.177745
-0.186924
-0.194253
-0.199743
-0.20343
-0.205375
-0.205668
-0.204366
-0.201625
-0.197573
-0.192349
-0.186104
-0.178991
-0.171173
-0.162805
-0.154046
-0.145048
-0.135958
-0.126922
-0.118096
-0.109546
-0.101397
-0.0937474
-0.0866768
-0.0802514
-0.0745268
-0.0695468
-0.065344
-0.0619399
-0.0593439
-0.0575543
-0.0565586
-0.0563336
-0.0568461
-0.0580531
-0.0599054
-0.0623405
-0.0652893
-0.0686763
-0.072421
-0.0764402
-0.0806518
-0.0849782
-0.0893471
-0.0936883
-0.097932
-0.102009
-0.105851
-0.109395
-0.112584
-0.115362
-0.117676
-0.119473
-0.120707
-0.12134
0.631317
0.671054
0.751678
0.873774
1.03745
1.2419
1.48571
1.76543
2.07293
2.39533
2.72709
3.03581
3.32378
3.58571
3.81667
4.01271
4.1706
4.28757
4.36126
4.38963
4.37104
4.30449
4.19043
4.02943
3.82353
3.5764
3.29437
2.98522
2.67888
2.38369
2.10023
1.83245
1.58151
1.34712
1.12851
0.92456
0.734066
0.555886
0.389142
0.234324
0.0886342
-0.0474753
-0.174012
-0.291068
-0.398597
-0.496498
-0.58464
-0.662855
-0.73096
-0.788758
-0.83606
-0.872717
-0.898636
-0.913813
-0.918459
-0.912451
-0.895879
-0.868974
-0.832077
-0.785627
-0.730174
-0.666392
-0.595052
-0.517043
-0.433342
-0.345014
-0.253218
-0.159185
-0.0642213
0.030316
0.123085
0.212702
0.297771
0.376982
0.44907
0.512821
0.567154
0.611122
0.643916
0.664913
0.673701
0.670066
0.654092
0.625977
0.586204
0.535498
0.474836
0.405422
0.328643
0.246062
0.159387
0.0704288
-0.0189543
-0.106878
-0.191611
-0.271392
-0.344652
-0.409984
-0.466227
-0.512476
-0.548084
-0.572689
-0.586199
-0.588732
-0.581293
-0.564066
-0.538041
-0.504315
-0.464089
-0.418627
-0.36924
-0.317256
-0.26397
-0.2106
-0.158273
-0.108308
-0.0610814
-0.0175964
0.0215381
0.0558558
0.0850331
0.108872
0.127307
0.140398
0.148308
0.1513
0.149792
0.143743
0.133989
0.120894
0.104925
0.0865679
0.0663112
0.044634
0.0219975
-0.00115181
-0.0243958
-0.0473501
-0.0696707
-0.0909125
-0.111035
-0.129715
-0.146759
-0.162013
-0.175365
-0.18674
-0.1961
-0.203437
-0.208779
-0.212178
-0.213716
-0.213495
-0.211612
-0.208218
-0.203463
-0.197505
-0.190509
-0.182644
-0.174083
-0.164995
-0.155547
-0.145899
-0.136203
-0.126607
-0.117323
-0.108332
-0.0998088
-0.0918484
-0.084527
-0.077907
-0.0720409
-0.0669697
-0.0627235
-0.0593202
-0.056766
-0.0550556
-0.0541724
-0.0540896
-0.0547702
-0.056167
-0.058226
-0.0608811
-0.0640588
-0.0676786
-0.0716546
-0.0758982
-0.0803232
-0.0848502
-0.0894068
-0.0939238
-0.0983307
-0.102556
-0.106532
-0.110194
-0.113486
-0.116352
-0.11874
-0.120594
-0.121867
-0.122519
-0.56922
-0.508755
-0.383882
-0.18871
0.0832834
0.447394
0.913959
1.50164
2.33117
2.96964
3.52174
4.00513
4.41777
4.76693
5.05641
5.28925
5.46746
5.5921
5.66321
5.68002
5.64088
5.54361
5.3828
5.15407
4.848
4.45668
3.97659
3.29107
2.80379
2.38359
2.02213
1.70639
1.42275
1.16521
0.928331
0.709465
0.506613
0.317952
0.142197
-0.0209765
-0.174142
-0.316964
-0.449641
-0.572165
-0.684448
-0.786293
-0.87745
-0.957623
-1.02651
-1.08382
-1.12926
-1.1626
-1.18366
-1.19236
-1.18866
-1.17264
-1.14444
-1.10432
-1.05267
-0.990029
-0.917038
-0.834506
-0.743348
-0.644642
-0.539564
-0.429393
-0.315514
-0.199408
-0.0826637
0.0331377
0.146362
0.255365
0.35849
0.45418
0.540944
0.617349
0.682137
0.734215
0.772656
0.796756
0.806078
0.800425
0.779877
0.744797
0.695833
0.633919
0.560283
0.47644
0.3841
0.285197
0.181833
0.0762268
-0.0293459
-0.132693
-0.231716
-0.324319
-0.40867
-0.483149
-0.546449
-0.597587
-0.635907
-0.661124
-0.673296
-0.672894
-0.660241
-0.636639
-0.603168
-0.561162
-0.512079
-0.457461
-0.398872
-0.337865
-0.275937
-0.214494
-0.154846
-0.0982226
-0.0453242
0.00295191
0.0459521
0.0832196
0.11446
0.139529
0.158424
0.171285
0.178359
0.179986
0.176602
0.168494
0.156333
0.140642
0.121966
0.100857
0.0778614
0.0535065
0.0282993
0.00271983
-0.0227828
-0.0477948
-0.071938
-0.0948124
-0.116335
-0.136183
-0.154165
-0.170138
-0.183996
-0.195682
-0.205172
-0.212473
-0.217631
-0.220716
-0.221824
-0.22108
-0.218603
-0.214556
-0.209103
-0.20242
-0.194688
-0.186087
-0.176804
-0.167019
-0.156906
-0.146633
-0.136355
-0.126202
-0.116524
-0.107092
-0.0982169
-0.0899669
-0.0824131
-0.0756143
-0.0696195
-0.0644674
-0.0601856
-0.0567888
-0.0542801
-0.0526504
-0.0518793
-0.0519366
-0.0527816
-0.0543632
-0.056623
-0.0594915
-0.0628908
-0.0667358
-0.070935
-0.0753943
-0.0800232
-0.0847407
-0.0894753
-0.0941588
-0.0987209
-0.103088
-0.10719
-0.110963
-0.114352
-0.117303
-0.11976
-0.121668
-0.122978
-0.123649
-2.27032
-2.19881
-2.04945
-1.81277
-1.47328
-1.01081
-0.397598
0.380049
1.60777
2.53923
3.3672
4.08649
4.70463
5.23033
5.66862
6.02395
6.29925
6.49616
6.61507
6.6551
6.61411
6.4886
6.27302
5.96064
5.54044
5.00049
4.35047
3.38637
2.77705
2.25645
1.82912
1.47047
1.16188
0.891305
0.650027
0.430855
0.22878
0.0404864
-0.135394
-0.301135
-0.456991
-0.603088
-0.739312
-0.865432
-0.981093
-1.08586
-1.17927
-1.26081
-1.33
-1.38638
-1.42952
-1.45907
-1.47476
-1.4764
-1.46394
-1.4374
-1.39695
-1.34292
-1.27576
-1.19608
-1.10465
-1.00242
-0.890473
-0.770071
-0.642595
-0.509566
-0.372617
-0.233493
-0.0940705
0.0438142
0.17823
0.307258
0.428963
0.541537
0.643248
0.732443
0.807682
0.867713
0.91149
0.938241
0.947493
0.939076
0.913138
0.870163
0.810979
0.736756
0.649007
0.549559
0.440488
0.324123
0.202993
0.0797775
-0.0427041
-0.162177
-0.276019
-0.381799
-0.477397
-0.560989
-0.631149
-0.686827
-0.727371
-0.752596
-0.762695
-0.758293
-0.740112
-0.709531
-0.668004
-0.617157
-0.55874
-0.494581
-0.426498
-0.356279
-0.285612
-0.216074
-0.149214
-0.0861122
-0.0277007
0.0251319
0.0717277
0.11166
0.144676
0.170692
0.189781
0.202166
0.208175
0.208242
0.20288
0.19255
0.177908
0.159575
0.138173
0.114321
0.0886138
0.0616305
0.0339166
0.00598087
-0.0217001
-0.0486834
-0.0745345
-0.0989739
-0.121802
-0.142732
-0.161573
-0.178191
-0.192492
-0.204433
-0.214006
-0.221235
-0.22618
-0.22893
-0.229599
-0.22833
-0.225262
-0.220571
-0.214436
-0.207049
-0.198603
-0.189295
-0.179319
-0.168866
-0.15812
-0.147254
-0.136432
-0.125807
-0.115634
-0.105845
-0.0966473
-0.0881309
-0.0803643
-0.0734031
-0.0672927
-0.0620697
-0.0577593
-0.0543738
-0.051913
-0.0503638
-0.0497026
-0.0498958
-0.0508997
-0.0526586
-0.0551109
-0.0581836
-0.0617949
-0.065855
-0.0702671
-0.0749314
-0.0797527
-0.0846487
-0.0895498
-0.0943897
-0.0990977
-0.103598
-0.107818
-0.111694
-0.115174
-0.118204
-0.120727
-0.122686
-0.124031
-0.124719
-4.46121
-4.43686
-4.38707
-4.32047
-4.24046
-4.16213
-4.1219
-4.05642
1.49376
1.34702
1.23658
1.073
0.887624
0.695204
0.498405
0.303743
0.111771
-0.0738089
-0.252032
-0.423838
-0.588168
-0.744567
-0.892509
-1.03141
-1.16058
-1.27931
-1.38684
-1.48241
-1.56529
-1.63476
-1.69018
-1.73096
-1.75663
-1.76679
-1.76121
-1.73973
-1.70239
-1.64937
-1.58102
-1.49789
-1.40067
-1.29026
-1.16775
-1.0344
-0.891692
-0.741218
-0.584743
-0.424168
-0.26149
-0.0988703
0.061524
0.217506
0.366859
0.507362
0.636943
0.753632
0.85555
0.94107
1.00878
1.05752
1.08645
1.09506
1.08326
1.05123
0.999594
0.92938
0.841996
0.739261
0.623337
0.49669
0.362053
0.222378
0.0807986
-0.0587552
-0.194843
-0.323811
-0.442872
-0.549662
-0.642173
-0.718862
-0.778641
-0.820901
-0.845546
-0.852947
-0.843971
-0.819637
-0.78156
-0.731515
-0.671443
-0.603402
-0.5295
-0.45181
-0.372353
-0.292998
-0.21547
-0.141682
-0.0723235
-0.0086561
0.0484381
0.0983259
0.140617
0.175119
0.201811
0.220854
0.232551
0.237323
0.235682
0.228273
0.215628
0.198472
0.177499
0.1534
0.126853
0.0985054
0.0689792
0.0388548
0.00866582
-0.0210913
-0.049957
-0.0773714
-0.103278
-0.127325
-0.149249
-0.168867
-0.186057
-0.20074
-0.212886
-0.222502
-0.229628
-0.23434
-0.236745
-0.236972
-0.235185
-0.231538
-0.226221
-0.219429
-0.211364
-0.202237
-0.192254
-0.181621
-0.170538
-0.159194
-0.147772
-0.136439
-0.125361
-0.114749
-0.104615
-0.0951217
-0.0863621
-0.0784026
-0.071295
-0.0650817
-0.059797
-0.0554643
-0.0520938
-0.0496819
-0.048212
-0.0476569
-0.0479803
-0.0491359
-0.0510631
-0.053698
-0.056964
-0.0607759
-0.0650395
-0.0696527
-0.0745098
-0.0795109
-0.0845727
-0.0896279
-0.094613
-0.0994573
-0.104082
-0.108412
-0.112383
-0.115946
-0.119049
-0.121635
-0.123642
-0.125018
-0.125722
-6.49753
-6.48395
-6.45587
-6.41687
-6.36578
-6.30961
-6.26905
-6.18591
1.01902
0.885158
0.785355
0.646807
0.490234
0.327705
0.158046
-0.01336
-0.194653
-0.366589
-0.537151
-0.70471
-0.867751
-1.02498
-1.17517
-1.31718
-1.44985
-1.57208
-1.68278
-1.7809
-1.86544
-1.93549
-1.99019
-2.0288
-2.05072
-2.05544
-2.04265
-2.01214
-1.96393
-1.89824
-1.81545
-1.71618
-1.60122
-1.4716
-1.32857
-1.1736
-1.00834
-0.834637
-0.654504
-0.470097
-0.283701
-0.0977683
0.0852278
0.26281
0.432473
0.591706
0.738171
0.869655
0.984056
1.07955
1.15459
1.2079
1.23856
1.24602
1.23032
1.19164
1.13076
1.04892
0.947782
0.829477
0.696523
0.551781
0.398409
0.239734
0.0789383
-0.0768164
-0.23015
-0.374288
-0.506504
-0.624243
-0.725341
-0.808146
-0.871546
-0.914996
-0.938523
-0.942687
-0.928637
-0.8977
-0.851742
-0.792877
-0.723369
-0.645579
-0.561899
-0.474659
-0.38609
-0.298246
-0.212967
-0.132554
-0.0572337
0.0113581
0.0723813
0.125237
0.169586
0.205293
0.23242
0.251203
0.262042
0.265446
0.262035
0.252503
0.237521
0.217862
0.19429
0.16756
0.138405
0.107519
0.0755623
0.043147
0.0108287
-0.0208856
-0.0515447
-0.0803491
-0.107639
-0.132812
-0.155639
-0.175955
-0.193647
-0.208654
-0.22096
-0.230585
-0.237585
-0.242052
-0.244109
-0.243905
-0.241607
-0.237401
-0.231483
-0.224063
-0.215355
-0.205584
-0.194964
-0.183714
-0.172039
-0.160138
-0.148197
-0.136389
-0.124885
-0.113877
-0.103421
-0.0936564
-0.0846763
-0.0765432
-0.0693047
-0.0630001
-0.0576621
-0.0533125
-0.0499597
-0.0475968
-0.0462038
-0.0457501
-0.0461968
-0.0474939
-0.0495813
-0.0523878
-0.0558353
-0.0598353
-0.0642899
-0.0690916
-0.0741287
-0.0792964
-0.0845109
-0.0897076
-0.0948266
-0.0997972
-0.104537
-0.108967
-0.113025
-0.116665
-0.119837
-0.12248
-0.124531
-0.125937
-0.126656
-8.36545
-8.35829
-8.34287
-8.32324
-8.29743
-8.27267
-8.25589
-8.22383
0.517814
0.443062
0.375678
0.276094
0.148028
0.010637
-0.140696
-0.299204
-0.464574
-0.631736
-0.799624
-0.966568
-1.13084
-1.29073
-1.44459
-1.59085
-1.72797
-1.85452
-1.96909
-2.07035
-2.15708
-2.22813
-2.28249
-2.31924
-2.33765
-2.33713
-2.31731
-2.27793
-2.21899
-2.14072
-2.04358
-1.92823
-1.79561
-1.64686
-1.4834
-1.30687
-1.11916
-0.922337
-0.718671
-0.510585
-0.30065
-0.0916155
0.113755
0.312683
0.502372
0.680018
0.843026
0.988939
1.11544
1.22051
1.30246
1.35992
1.39192
1.39797
1.37781
1.33204
1.26153
1.16771
1.05249
0.918308
0.76806
0.60502
0.432801
0.255248
0.0764199
-0.0985022
-0.267748
-0.426611
-0.571632
-0.699935
-0.80918
-0.897628
-0.964163
-1.00831
-1.03024
-1.03071
-1.01123
-0.973351
-0.919282
-0.851454
-0.772456
-0.684959
-0.591625
-0.495024
-0.397596
-0.301577
-0.209031
-0.122026
-0.0412313
0.0319037
0.0965056
0.152008
0.198122
0.234783
0.262128
0.280482
0.29033
0.292278
0.287067
0.275391
0.258088
0.235976
0.209881
0.180618
0.148968
0.115669
0.0814142
0.0468434
0.0125328
-0.0210045
-0.0534045
-0.0833516
-0.111985
-0.138184
-0.161823
-0.18276
-0.200892
-0.216171
-0.228597
-0.238204
-0.245063
-0.249278
-0.250991
-0.250367
-0.247578
-0.242837
-0.23635
-0.228336
-0.219023
-0.208646
-0.197432
-0.185605
-0.173381
-0.160962
-0.14854
-0.136294
-0.124395
-0.113029
-0.102274
-0.0922635
-0.0830846
-0.0747963
-0.0674412
-0.061056
-0.055672
-0.05131
-0.0479767
-0.0456621
-0.0443427
-0.043985
-0.0445476
-0.0459783
-0.0482144
-0.0511808
-0.0547971
-0.0589724
-0.0636048
-0.068582
-0.0737861
-0.0791073
-0.0844611
-0.0897869
-0.0950287
-0.100116
-0.104962
-0.109484
-0.113621
-0.11733
-0.120565
-0.123262
-0.125354
-0.126786
-0.127519
-10.0487
-10.0449
-10.0364
-10.0263
-10.0128
-10.0007
-9.99148
-9.97748
0.183024
0.126038
0.0686093
-0.00779764
-0.134663
-0.253998
-0.393886
-0.544349
-0.703701
-0.868707
-1.03689
-1.20598
-1.3738
-1.53827
-1.69737
-1.84916
-1.9918
-2.12354
-2.24271
-2.34775
-2.43719
-2.50971
-2.56412
-2.59937
-2.6146
-2.60912
-2.58254
-2.53454
-2.46512
-2.37454
-2.26332
-2.13219
-1.9822
-1.81464
-1.63108
-1.43336
-1.22357
-1.00404
-0.777271
-0.545962
-0.31296
-0.0813073
0.145932
0.365695
0.57489
0.770431
0.949461
1.1093
1.24739
1.36156
1.44998
1.51117
1.5441
1.54826
1.52349
1.47042
1.39009
1.28414
1.15474
1.00464
0.837115
0.655838
0.464886
0.268591
0.0715138
-0.121364
-0.306626
-0.479846
-0.637221
-0.775608
-0.892497
-0.986082
-1.05526
-1.09965
-1.11961
-1.11612
-1.09086
-1.04585
-0.983581
-0.906799
-0.818409
-0.721378
-0.618634
-0.512977
-0.407037
-0.303211
-0.203803
-0.110632
-0.0247181
0.0525858
0.120416
0.178252
0.225862
0.26325
0.290634
0.308423
0.31719
0.317624
0.310576
0.296815
0.27725
0.252766
0.224252
0.192577
0.158564
0.122991
0.0865836
0.0500023
0.0138435
-0.0213625
-0.0551597
-0.0866117
-0.116267
-0.143378
-0.167744
-0.189229
-0.207742
-0.223249
-0.235763
-0.245331
-0.252038
-0.256001
-0.257376
-0.256343
-0.253093
-0.247847
-0.240824
-0.232253
-0.222375
-0.211434
-0.199667
-0.187306
-0.174574
-0.161679
-0.148815
-0.136166
-0.123903
-0.112211
-0.101185
-0.0909508
-0.0815938
-0.073167
-0.0657087
-0.0592525
-0.0538289
-0.0494582
-0.0461453
-0.0438778
-0.0426283
-0.0423604
-0.0430312
-0.0445867
-0.0469602
-0.0500746
-0.0538471
-0.0581845
-0.0629817
-0.0681214
-0.0734796
-0.0789411
-0.0844216
-0.0898644
-0.0952183
-0.100412
-0.105355
-0.109962
-0.11417
-0.117942
-0.121234
-0.12398
-0.12611
-0.127567
-0.128311
-11.552
-11.5498
-11.5448
-11.539
-11.5313
-11.5245
-11.5189
-11.5119
-0.0544372
-0.115808
-0.168735
-0.23499
-0.348459
-0.466719
-0.602467
-0.751156
-0.910299
-1.07698
-1.24846
-1.42217
-1.59561
-1.76636
-1.93209
-2.09056
-2.23965
-2.37735
-2.50177
-2.61111
-2.70373
-2.77812
-2.83295
-2.86704
-2.87942
-2.86928
-2.8363
-2.78001
-2.70047
-2.59797
-2.47307
-2.32663
-2.15976
-1.9739
-1.77081
-1.55248
-1.32126
-1.07967
-0.830475
-0.576643
-0.32129
-0.0677393
0.180644
0.420521
0.648515
0.861262
1.05566
1.22878
1.37789
1.50064
1.59505
1.65956
1.6931
1.69513
1.66555
1.60508
1.51492
1.3969
1.25344
1.08761
0.903053
0.703835
0.494495
0.279827
0.0648423
-0.145216
-0.346082
-0.533154
-0.70233
-0.850245
-0.97424
-1.07245
-1.14381
-1.18805
-1.20573
-1.19805
-1.16684
-1.11465
-1.04423
-0.958632
-0.861067
-0.754788
-0.642979
-0.528657
-0.414624
-0.303401
-0.197601
-0.0986953
-0.00804582
0.0730555
0.143783
0.203659
0.25252
0.29044
0.317715
0.33484
0.342468
0.341368
0.332507
0.316721
0.294978
0.268226
0.237418
0.203466
0.167236
0.129538
0.0911274
0.0526851
0.0148218
-0.0219148
-0.0570301
-0.0897935
-0.120413
-0.148343
-0.173357
-0.195325
-0.214168
-0.229864
-0.242439
-0.251953
-0.258502
-0.262217
-0.263267
-0.261844
-0.258159
-0.25244
-0.244916
-0.235827
-0.225423
-0.213961
-0.201683
-0.188831
-0.175632
-0.1623
-0.149032
-0.136014