/*--------------------------------*- C++ -*----------------------------------*\
  =========                 |
  \\      /  F ield         | OpenFOAM: The Open Source CFD Toolbox
   \\    /   O peration     | Website:  https://openfoam.org
    \\  /    A nd           | Version:  12
     \\/     M anipulation  |
\*---------------------------------------------------------------------------*/
FoamFile
{
    format      ascii;
    class       volScalarField;
    location    "1000";
    object      epsilon;
}
// * * * * * * * * * * * * * * * * * * * * * * * * * * * * * * * * * * * * * //

dimensions      [0 2 -3 0 0 0 0];

internalField   nonuniform List<scalar> 
80
(
69.7216
27.7736
15.7202
10.6564
7.95696
6.30261
5.19425
4.4052
3.81857
3.36829
3.01433
2.73108
2.50145
2.31373
2.16543
2.04262
1.92138
1.802
1.68481
1.57018
1.45849
1.35018
1.24568
1.14545
1.04992
0.959507
0.8746
0.795533
0.722582
0.655952
0.595778
0.542115
0.49495
0.454202
0.419743
0.391408
0.36902
0.352404
0.34141
0.335929
0.335901
0.341328
0.352266
0.368825
0.391156
0.419433
0.453833
0.494522
0.54163
0.595237
0.655358
0.721938
0.794846
0.873876
0.958753
1.04914
1.14466
1.24489
1.34939
1.45772
1.56944
1.68411
1.80135
1.92079
2.04209
2.16497
2.31343
2.50127
2.73102
3.0144
3.3685
3.81892
4.40571
5.19496
6.30354
7.9582
10.6581
15.7227
27.7778
69.7317
)
;

boundaryField
{
    lowerWall
    {
        type            epsilonWallFunction;
        value           uniform 69.7216;
    }
    upperWall
    {
        type            epsilonWallFunction;
        value           uniform 69.7317;
    }
    front
    {
        type            cyclic;
    }
    back
    {
        type            cyclic;
    }
    defaultFaces
    {
        type            empty;
    }
}


// ************************************************************************* //
