/*--------------------------------*- C++ -*----------------------------------*\
  =========                 |
  \\      /  F ield         | OpenFOAM: The Open Source CFD Toolbox
   \\    /   O peration     | Website:  https://openfoam.org
    \\  /    A nd           | Version:  12
     \\/     M anipulation  |
\*---------------------------------------------------------------------------*/
FoamFile
{
    format      ascii;
    class       volSymmTensorField;
    location    "1000";
    object      R;
}
// * * * * * * * * * * * * * * * * * * * * * * * * * * * * * * * * * * * * * //

dimensions      [0 2 -2 0 0 0 0];

internalField   nonuniform List<symmTensor> 
80
(
(0.151875 -0.424862 -0 0.151875 -0 0.151875)
(0.155971 -0.0731764 -0 0.155971 -0 0.155971)
(0.147137 -0.0662508 -0 0.147137 -0 0.147137)
(0.140937 -0.0635637 -0 0.140937 -0 0.140937)
(0.136021 -0.0615057 -0 0.136021 -0 0.136021)
(0.131808 -0.0597226 -0 0.131808 -0 0.131808)
(0.128028 -0.0580886 -0 0.128028 -0 0.128028)
(0.124538 -0.0565496 -0 0.124538 -0 0.124538)
(0.121255 -0.055078 -0 0.121255 -0 0.121255)
(0.118119 -0.0536569 -0 0.118119 -0 0.118119)
(0.115089 -0.0522733 -0 0.115089 -0 0.115089)
(0.112129 -0.0509161 -0 0.112129 -0 0.112129)
(0.109211 -0.0495739 -0 0.109211 -0 0.109211)
(0.106305 -0.0482692 -0 0.106305 -0 0.106305)
(0.103378 -0.0468793 -0 0.103378 -0 0.103378)
(0.100401 -0.0453844 -0 0.100401 -0 0.100401)
(0.0973727 -0.0439793 -0 0.0973727 -0 0.0973727)
(0.0942965 -0.0425383 -0 0.0942965 -0 0.0942965)
(0.0911762 -0.041059 -0 0.0911762 -0 0.0911762)
(0.0880173 -0.0395396 -0 0.0880173 -0 0.0880173)
(0.0848271 -0.0379786 -0 0.0848271 -0 0.0848271)
(0.0816147 -0.0363749 -0 0.0816147 -0 0.0816147)
(0.0783912 -0.0347277 -0 0.0783912 -0 0.0783912)
(0.0751697 -0.0330366 -0 0.0751697 -0 0.0751697)
(0.0719657 -0.0313017 -0 0.0719657 -0 0.0719657)
(0.0687964 -0.0295234 -0 0.0687964 -0 0.0687964)
(0.0656812 -0.0277024 -0 0.0656812 -0 0.0656812)
(0.0626414 -0.02584 -0 0.0626414 -0 0.0626414)
(0.0596999 -0.0239375 -0 0.0596999 -0 0.0596999)
(0.0568808 -0.0219968 -0 0.0568808 -0 0.0568808)
(0.054209 -0.0200201 -0 0.054209 -0 0.054209)
(0.0517103 -0.0180099 -0 0.0517103 -0 0.0517103)
(0.0494099 -0.0159687 -0 0.0494099 -0 0.0494099)
(0.0473327 -0.0138998 -0 0.0473327 -0 0.0473327)
(0.0455022 -0.0118061 -0 0.0455022 -0 0.0455022)
(0.04394 -0.00969131 -0 0.04394 -0 0.04394)
(0.0426652 -0.00755887 -0 0.0426652 -0 0.0426652)
(0.0416939 -0.00541259 -0 0.0416939 -0 0.0416939)
(0.0410386 -0.00325631 -0 0.0410386 -0 0.0410386)
(0.040708 -0.00109399 -0 0.040708 -0 0.040708)
(0.0407063 0.00107037 -0 0.0407063 -0 0.0407063)
(0.0410337 0.00323276 -0 0.0410337 -0 0.0410337)
(0.0416857 0.00538918 -0 0.0416857 -0 0.0416857)
(0.042654 0.00753567 -0 0.042654 -0 0.042654)
(0.0439259 0.00966837 -0 0.0439259 -0 0.0439259)
(0.0454854 0.0117835 -0 0.0454854 -0 0.0454854)
(0.0473135 0.0138776 -0 0.0473135 -0 0.0473135)
(0.0493886 0.015947 -0 0.0493886 -0 0.0493886)
(0.0516872 0.0179887 -0 0.0516872 -0 0.0516872)
(0.0541844 0.0199995 -0 0.0541844 -0 0.0541844)
(0.056855 0.0219769 -0 0.056855 -0 0.056855)
(0.0596734 0.0239182 -0 0.0596734 -0 0.0596734)
(0.0626144 0.0258215 -0 0.0626144 -0 0.0626144)
(0.065654 0.0276847 -0 0.065654 -0 0.065654)
(0.0687693 0.0295065 -0 0.0687693 -0 0.0687693)
(0.0719391 0.0312858 -0 0.0719391 -0 0.0719391)
(0.0751439 0.0330216 -0 0.0751439 -0 0.0751439)
(0.0783663 0.0347137 -0 0.0783663 -0 0.0783663)
(0.081591 0.0363619 -0 0.081591 -0 0.081591)
(0.0848049 0.0379667 -0 0.0848049 -0 0.0848049)
(0.0879966 0.0395288 -0 0.0879966 -0 0.0879966)
(0.0911573 0.0410493 -0 0.0911573 -0 0.0911573)
(0.0942794 0.0425298 -0 0.0942794 -0 0.0942794)
(0.0973576 0.043972 -0 0.0973576 -0 0.0973576)
(0.100388 0.0453783 -0 0.100388 -0 0.100388)
(0.103367 0.0468749 -0 0.103367 -0 0.103367)
(0.106297 0.0482653 -0 0.106297 -0 0.106297)
(0.109204 0.0495715 -0 0.109204 -0 0.109204)
(0.112125 0.0509149 -0 0.112125 -0 0.112125)
(0.115087 0.0522734 -0 0.115087 -0 0.115087)
(0.118119 0.053658 -0 0.118119 -0 0.118119)
(0.121257 0.0550802 -0 0.121257 -0 0.121257)
(0.124543 0.0565528 -0 0.124543 -0 0.124543)
(0.128034 0.0580926 -0 0.128034 -0 0.128034)
(0.131816 0.0597274 -0 0.131816 -0 0.131816)
(0.136031 0.0615111 -0 0.136031 -0 0.136031)
(0.140949 0.0635696 -0 0.140949 -0 0.140949)
(0.147151 0.0662573 -0 0.147151 -0 0.147151)
(0.155986 0.0731837 -0 0.155986 -0 0.155986)
(0.151889 0.424905 -0 0.151889 -0 0.151889)
)
;

boundaryField
{
    lowerWall
    {
        type            calculated;
        value           uniform (0.151875 -0.067753 -0 0.151875 -0 0.151875);
    }
    upperWall
    {
        type            calculated;
        value           uniform (0.151889 0.0677595 -0 0.151889 -0 0.151889);
    }
    front
    {
        type            cyclic;
    }
    back
    {
        type            cyclic;
    }
    defaultFaces
    {
        type            empty;
    }
}


// ************************************************************************* //
