/*--------------------------------*- C++ -*----------------------------------*\
  =========                 |
  \\      /  F ield         | OpenFOAM: The Open Source CFD Toolbox
   \\    /   O peration     | Website:  https://openfoam.org
    \\  /    A nd           | Version:  12
     \\/     M anipulation  |
\*---------------------------------------------------------------------------*/
FoamFile
{
    format      ascii;
    class       volVectorField;
    location    "1000";
    object      U;
}
// * * * * * * * * * * * * * * * * * * * * * * * * * * * * * * * * * * * * * //

dimensions      [0 1 -1 0 0 0 0];

internalField   nonuniform List<vector> 
80
(
(7.58864 0 0)
(8.2661 0 0)
(8.62005 0 0)
(8.86001 0 0)
(9.04105 0 0)
(9.18658 0 0)
(9.30854 0 0)
(9.41384 0 0)
(9.50683 0 0)
(9.59044 0 0)
(9.66675 0 0)
(9.73731 0 0)
(9.80329 0 0)
(9.86567 0 0)
(9.9253 0 0)
(9.98293 0 0)
(10.0388 0 0)
(10.093 0 0)
(10.1453 0 0)
(10.1957 0 0)
(10.2442 0 0)
(10.2907 0 0)
(10.3352 0 0)
(10.3776 0 0)
(10.4179 0 0)
(10.456 0 0)
(10.4918 0 0)
(10.5253 0 0)
(10.5565 0 0)
(10.5852 0 0)
(10.6115 0 0)
(10.6353 0 0)
(10.6566 0 0)
(10.6753 0 0)
(10.6914 0 0)
(10.7049 0 0)
(10.7157 0 0)
(10.7238 0 0)
(10.7292 0 0)
(10.7319 0 0)
(10.7319 0 0)
(10.7292 0 0)
(10.7239 0 0)
(10.7158 0 0)
(10.705 0 0)
(10.6916 0 0)
(10.6755 0 0)
(10.6568 0 0)
(10.6356 0 0)
(10.6118 0 0)
(10.5855 0 0)
(10.5568 0 0)
(10.5257 0 0)
(10.4922 0 0)
(10.4564 0 0)
(10.4183 0 0)
(10.3781 0 0)
(10.3357 0 0)
(10.2912 0 0)
(10.2447 0 0)
(10.1962 0 0)
(10.1458 0 0)
(10.0935 0 0)
(10.0394 0 0)
(9.98347 0 0)
(9.92584 0 0)
(9.86621 0 0)
(9.80384 0 0)
(9.73785 0 0)
(9.66729 0 0)
(9.59098 0 0)
(9.50736 0 0)
(9.41436 0 0)
(9.30905 0 0)
(9.18707 0 0)
(9.04154 0 0)
(8.86048 0 0)
(8.6205 0 0)
(8.26653 0 0)
(7.58903 0 0)
)
;

boundaryField
{
    lowerWall
    {
        type            noSlip;
    }
    upperWall
    {
        type            noSlip;
    }
    front
    {
        type            cyclic;
    }
    back
    {
        type            cyclic;
    }
    defaultFaces
    {
        type            empty;
    }
}


// ************************************************************************* //
