# Probe 0 (0 0 0)
# Time            0                
0                 0                
0.0025            -8.484438857e-05 
0.005             -0.0001047103471 
0.0075            -0.0001219442632 
0.01              -0.0001369417074 
0.0125            -0.000150058703  
0.015             -0.0001615845042 
0.0175            -0.0001717558883 
0.02              -0.00018076803   
0.0225            -0.0001887828717 
0.025             -0.0001959356036 
0.0275            -0.0002023397357 
0.03              -0.0002080910918 
0.0325            -0.0002132709773 
0.035             -0.0002179487096 
0.0375            -0.0002221836534 
0.04              -0.0002260268657 
0.0425            -0.0002295224361 
0.045             -0.0002327085821 
0.0475            -0.0002356185511 
0.05              -0.0002382813658 
0.0525            -0.0002407224431 
0.055             -0.000242964111  
0.0575            -0.0002450260419 
0.06              -0.0002469256168 
0.0625            -0.0002486782331 
0.065             -0.0002502975662 
0.0675            -0.0002517957914 
0.07              -0.0002531837738 
0.0725            -0.0002544712311 
0.075             -0.0002556668732 
0.0775            -0.0002567785228 
0.08              -0.0002578132196 
0.0825            -0.0002587773108 
0.085             -0.0002596765293 
0.0875            -0.0002605160625 
0.09              -0.0002613006122 
0.0925            -0.0002620344465 
0.095             -0.0002627214463 
0.0975            -0.0002633651455 
0.1               -0.0002639687669 
0.1025            -0.0002645352533 
0.105             -0.0002650672959 
0.1075            -0.0002655673589 
0.11              -0.0002660377012 
0.1125            -0.0002664803965 
0.115             -0.0002668973504 
0.1175            -0.000267290316  
0.12              -0.0002676609081 
0.1225            -0.0002680106156 
0.125             -0.0002683408127 
0.1275            -0.000268652769  
0.13              -0.0002689476587 
0.1325            -0.0002692265688 
0.135             -0.0002694905061 
0.1375            -0.0002697404047 
0.14              -0.0002699771313 
0.1425            -0.000270201491  
0.145             -0.0002704142324 
0.1475            -0.000270616052  
0.15              -0.0002708075983 
0.1525            -0.0002709894755 
0.155             -0.0002711622471 
0.1575            -0.000271326439  
0.16              -0.0002714825422 
0.1625            -0.0002716310156 
0.165             -0.0002717722882 
0.1675            -0.0002719067614 
0.17              -0.000272034811  
0.1725            -0.0002721567893 
0.175             -0.0002722730261 
0.1775            -0.0002723838312 
0.18              -0.0002724894957 
0.1825            -0.0002725902917 
0.185             -0.0002726864753 
0.1875            -0.0002727782874 
0.19              -0.0002728659546 
0.1925            -0.0002729496901 
0.195             -0.0002730296945 
0.1975            -0.0002731061569 
0.2               -0.0002731792554 
0.2025            -0.0002732491581 
0.205             -0.0002733160232 
0.2075            -0.0002733800003 
0.21              -0.0002734412305 
0.2125            -0.0002734998471 
0.215             -0.0002735559761 
0.2175            -0.0002736097365 
0.22              -0.000273661241  
0.2225            -0.000273710596  
0.225             -0.0002737579025 
0.2275            -0.0002738032559 
0.23              -0.0002738467466 
0.2325            -0.0002738884604 
0.235             -0.0002739284784 
0.2375            -0.0002739668778 
0.24              -0.0002740037315 
0.2425            -0.0002740391091 
0.245             -0.0002740730762 
0.2475            -0.0002741056956 
0.25              -0.0002741370265 
0.2525            -0.0002741671254 
0.255             -0.000274196046  
0.2575            -0.0002742238394 
0.26              -0.0002742505541 
0.2625            -0.0002742762363 
0.265             -0.00027430093   
0.2675            -0.000274324677  
0.27              -0.0002743475174 
0.2725            -0.000274369489  
0.275             -0.0002743906282 
0.2775            -0.0002744109694 
0.28              -0.0002744305457 
0.2825            -0.0002744493883 
0.285             -0.0002744675273 
0.2875            -0.0002744849914 
0.29              -0.0002745018077 
0.2925            -0.0002745180025 
0.295             -0.0002745336007 
0.2975            -0.000274548626  
0.3               -0.0002745631012 
0.3025            -0.0002745770481 
0.305             -0.0002745904876 
0.3075            -0.0002746034394 
0.31              -0.0002746159226 
0.3125            -0.0002746279555 
0.315             -0.0002746395555 
0.3175            -0.0002746507393 
0.32              -0.0002746615228 
0.3225            -0.0002746719215 
0.325             -0.0002746819499 
0.3275            -0.0002746916221 
0.33              -0.0002747009516 
0.3325            -0.0002747099514 
0.335             -0.0002747186337 
0.3375            -0.0002747270106 
0.34              -0.0002747350933 
0.3425            -0.0002747428929 
0.345             -0.0002747504197 
0.3475            -0.000274757684  
0.35              -0.0002747646953 
0.3525            -0.0002747714629 
0.355             -0.0002747779959 
0.3575            -0.0002747843026 
0.36              -0.0002747903913 
0.3625            -0.0002747962701 
0.365             -0.0002748019463 
0.3675            -0.0002748074274 
0.37              -0.0002748127204 
0.3725            -0.000274817832  
0.375             -0.0002748227687 
0.3775            -0.0002748275368 
0.38              -0.0002748321422 
0.3825            -0.0002748365908 
0.385             -0.000274840888  
0.3875            -0.0002748450393 
0.39              -0.0002748490497 
0.3925            -0.0002748529243 
0.395             -0.0002748566679 
0.3975            -0.0002748602849 
0.4               -0.0002748637798 
0.4025            -0.0002748671569 
0.405             -0.0002748704204 
0.4075            -0.000274873574  
0.41              -0.0002748766217 
0.4125            -0.0002748795672 
0.415             -0.0002748824139 
0.4175            -0.0002748851652 
0.42              -0.0002748878245 
0.4225            -0.0002748903949 
0.425             -0.0002748928795 
0.4275            -0.0002748952811 
0.43              -0.0002748976028 
0.4325            -0.000274899847  
0.435             -0.0002749020167 
0.4375            -0.0002749041141 
0.44              -0.0002749061419 
0.4425            -0.0002749081024 
0.445             -0.0002749099978 
0.4475            -0.0002749118304 
0.45              -0.0002749136023 
0.4525            -0.0002749153155 
0.455             -0.0002749169721 
0.4575            -0.0002749185739 
0.46              -0.0002749201228 
0.4625            -0.0002749216206 
0.465             -0.0002749230689 
0.4675            -0.0002749244695 
0.47              -0.0002749258239 
0.4725            -0.0002749271337 
0.475             -0.0002749284004 
0.4775            -0.0002749296254 
0.48              -0.0002749308102 
0.4825            -0.0002749319559 
0.485             -0.0002749330641 
0.4875            -0.0002749341359 
0.49              -0.0002749351724 
0.4925            -0.000274936175  
0.495             -0.0002749371447 
0.4975            -0.0002749380826 
0.5               -0.0002749389898 
