/*--------------------------------*- C++ -*----------------------------------*\
  =========                 |
  \\      /  F ield         | OpenFOAM: The Open Source CFD Toolbox
   \\    /   O peration     | Website:  https://openfoam.org
    \\  /    A nd           | Version:  12
     \\/     M anipulation  |
\*---------------------------------------------------------------------------*/
FoamFile
{
    format      ascii;
    class       volScalarField;
    location    "1.54";
    object      p;
}
// * * * * * * * * * * * * * * * * * * * * * * * * * * * * * * * * * * * * * //

dimensions      [1 -1 -2 0 0 0 0];

internalField   nonuniform List<scalar> 
3829
(
-613.276
-613.277
-613.278
-613.279
-613.281
-613.284
-613.287
-613.291
-613.296
-613.301
-613.307
-613.314
-613.321
-613.329
-613.338
-613.348
-613.358
-613.369
-613.382
-613.395
-613.408
-613.423
-613.438
-613.455
-613.472
-613.49
-613.509
-613.528
-613.549
-613.57
-613.591
-613.613
-613.636
-613.66
-613.683
-613.707
-613.732
-613.756
-613.781
-613.806
-613.831
-613.855
-613.88
-613.904
-613.928
-613.952
-613.975
-613.997
-614.019
-614.04
-614.06
-614.079
-614.098
-614.115
-614.132
-614.148
-614.162
-614.176
-614.189
-614.2
-614.211
-614.221
-614.229
-614.237
-614.243
-614.249
-614.254
-614.257
-614.26
-614.262
-614.264
-614.265
-614.265
-614.264
-614.263
-614.262
-614.26
-614.258
-614.255
-614.253
-614.25
-614.247
-614.244
-614.241
-614.238
-614.235
-614.233
-614.23
-614.228
-614.226
-614.224
-614.223
-614.221
-614.221
-614.22
-614.22
-614.22
-614.221
-614.222
-614.223
-614.224
-614.226
-614.229
-614.231
-614.234
-614.237
-614.24
-614.244
-614.248
-614.251
-614.256
-614.26
-614.264
-614.268
-614.273
-614.277
-614.282
-614.287
-614.291
-614.296
-614.3
-614.304
-614.309
-614.313
-614.317
-614.321
-614.325
-614.329
-614.332
-614.335
-614.339
-614.342
-614.344
-614.347
-614.349
-614.352
-614.354
-614.356
-614.357
-614.359
-614.36
-614.361
-614.362
-614.363
-614.364
-614.364
-614.365
-614.365
-614.365
-614.365
-614.365
-614.365
-614.364
-614.364
-614.363
-614.363
-614.362
-614.361
-614.36
-614.36
-614.359
-614.358
-614.357
-614.356
-614.355
-614.354
-614.353
-614.352
-614.351
-614.35
-614.35
-614.349
-614.348
-614.347
-614.346
-614.346
-614.345
-614.344
-614.344
-614.343
-614.342
-614.342
-614.341
-614.341
-614.341
-614.34
-614.34
-614.339
-614.339
-614.339
-614.338
-614.338
-614.338
-614.338
-614.338
-614.337
-614.337
-614.337
-614.337
-614.337
-1771.6
-1771.6
-1771.6
-1771.6
-1771.61
-1771.61
-1771.61
-1771.62
-1771.62
-1771.63
-1771.63
-1771.64
-1771.65
-1771.65
-1771.66
-1771.67
-1771.69
-1771.7
-1771.71
-1771.72
-1771.74
-1771.76
-1771.77
-1771.79
-1771.81
-1771.83
-1771.85
-1771.87
-1771.9
-1771.92
-1771.95
-1771.97
-1772
-1772.02
-1772.05
-1772.08
-1772.1
-1772.13
-1772.16
-1772.19
-1772.21
-1772.24
-1772.27
-1772.29
-1772.32
-1772.34
-1772.37
-1772.39
-1772.42
-1772.44
-1772.46
-1772.48
-1772.5
-1772.51
-1772.53
-1772.55
-1772.56
-1772.57
-1772.59
-1772.6
-1772.61
-1772.62
-1772.62
-1772.63
-1772.63
-1772.64
-1772.64
-1772.64
-1772.65
-1772.65
-1772.65
-1772.65
-1772.64
-1772.64
-1772.64
-1772.64
-1772.63
-1772.63
-1772.63
-1772.62
-1772.62
-1772.62
-1772.61
-1772.61
-1772.61
-1772.6
-1772.6
-1772.6
-1772.59
-1772.59
-1772.59
-1772.59
-1772.59
-1772.59
-1772.59
-1772.59
-1772.59
-1772.59
-1772.59
-1772.59
-1772.59
-1772.59
-1772.6
-1772.6
-1772.6
-1772.61
-1772.61
-1772.61
-1772.62
-1772.62
-1772.62
-1772.63
-1772.63
-1772.64
-1772.64
-1772.65
-1772.65
-1772.66
-1772.66
-1772.67
-1772.67
-1772.67
-1772.68
-1772.68
-1772.69
-1772.69
-1772.7
-1772.7
-1772.7
-1772.71
-1772.71
-1772.71
-1772.72
-1772.72
-1772.72
-1772.72
-1772.72
-1772.73
-1772.73
-1772.73
-1772.73
-1772.73
-1772.73
-1772.73
-1772.73
-1772.73
-1772.73
-1772.74
-1772.74
-1772.74
-1772.73
-1772.73
-1772.73
-1772.73
-1772.73
-1772.73
-1772.73
-1772.73
-1772.73
-1772.73
-1772.73
-1772.73
-1772.73
-1772.73
-1772.72
-1772.72
-1772.72
-1772.72
-1772.72
-1772.72
-1772.72
-1772.72
-1772.72
-1772.72
-1772.72
-1772.72
-1772.71
-1772.71
-1772.71
-1772.71
-1772.71
-1772.71
-1772.71
-1772.71
-1772.71
-1772.71
-1772.71
-1772.71
-1772.71
-1772.71
-1772.71
-1772.71
-1772.71
-1772.71
-1772.71
-1772.71
-1772.71
-1772.71
-1772.71
-1772.71
-2797.68
-2797.68
-2797.68
-2797.69
-2797.69
-2797.69
-2797.69
-2797.7
-2797.7
-2797.71
-2797.71
-2797.72
-2797.73
-2797.74
-2797.75
-2797.76
-2797.77
-2797.78
-2797.8
-2797.81
-2797.83
-2797.85
-2797.87
-2797.89
-2797.91
-2797.94
-2797.97
-2797.99
-2798.02
-2798.05
-2798.08
-2798.11
-2798.14
-2798.17
-2798.21
-2798.24
-2798.27
-2798.3
-2798.34
-2798.37
-2798.4
-2798.43
-2798.46
-2798.49
-2798.52
-2798.55
-2798.58
-2798.6
-2798.63
-2798.65
-2798.67
-2798.69
-2798.71
-2798.73
-2798.74
-2798.76
-2798.77
-2798.78
-2798.8
-2798.8
-2798.81
-2798.82
-2798.82
-2798.83
-2798.83
-2798.83
-2798.83
-2798.83
-2798.83
-2798.83
-2798.83
-2798.82
-2798.82
-2798.82
-2798.81
-2798.81
-2798.8
-2798.8
-2798.79
-2798.79
-2798.78
-2798.78
-2798.77
-2798.77
-2798.76
-2798.76
-2798.75
-2798.75
-2798.75
-2798.75
-2798.74
-2798.74
-2798.74
-2798.74
-2798.74
-2798.74
-2798.74
-2798.74
-2798.74
-2798.75
-2798.75
-2798.75
-2798.75
-2798.76
-2798.76
-2798.76
-2798.77
-2798.77
-2798.77
-2798.78
-2798.78
-2798.79
-2798.79
-2798.8
-2798.8
-2798.81
-2798.81
-2798.82
-2798.82
-2798.83
-2798.83
-2798.84
-2798.84
-2798.85
-2798.85
-2798.85
-2798.86
-2798.86
-2798.86
-2798.87
-2798.87
-2798.87
-2798.88
-2798.88
-2798.88
-2798.88
-2798.89
-2798.89
-2798.89
-2798.89
-2798.89
-2798.89
-2798.89
-2798.89
-2798.9
-2798.9
-2798.9
-2798.9
-2798.9
-2798.9
-2798.9
-2798.9
-2798.89
-2798.89
-2798.89
-2798.89
-2798.89
-2798.89
-2798.89
-2798.89
-2798.89
-2798.89
-2798.89
-2798.89
-2798.89
-2798.88
-2798.88
-2798.88
-2798.88
-2798.88
-2798.88
-2798.88
-2798.88
-2798.88
-2798.88
-2798.88
-2798.87
-2798.87
-2798.87
-2798.87
-2798.87
-2798.87
-2798.87
-2798.87
-2798.87
-2798.87
-2798.87
-2798.87
-2798.87
-2798.87
-2798.87
-2798.87
-2798.87
-2798.87
-2798.87
-2798.87
-2798.87
-2798.87
-2798.87
-2798.87
-3706.63
-3706.63
-3706.63
-3706.63
-3706.63
-3706.63
-3706.63
-3706.63
-3706.64
-3706.64
-3706.64
-3706.65
-3706.66
-3706.66
-3706.67
-3706.68
-3706.7
-3706.71
-3706.73
-3706.75
-3706.77
-3706.79
-3706.82
-3706.84
-3706.87
-3706.9
-3706.94
-3706.97
-3707.01
-3707.04
-3707.08
-3707.12
-3707.16
-3707.2
-3707.24
-3707.28
-3707.32
-3707.36
-3707.4
-3707.44
-3707.48
-3707.52
-3707.55
-3707.59
-3707.62
-3707.65
-3707.68
-3707.71
-3707.74
-3707.76
-3707.78
-3707.81
-3707.82
-3707.84
-3707.86
-3707.87
-3707.88
-3707.89
-3707.9
-3707.91
-3707.91
-3707.91
-3707.92
-3707.92
-3707.92
-3707.91
-3707.91
-3707.91
-3707.9
-3707.9
-3707.89
-3707.88
-3707.88
-3707.87
-3707.86
-3707.86
-3707.85
-3707.84
-3707.83
-3707.83
-3707.82
-3707.81
-3707.81
-3707.8
-3707.8
-3707.79
-3707.79
-3707.78
-3707.78
-3707.78
-3707.77
-3707.77
-3707.77
-3707.77
-3707.77
-3707.77
-3707.77
-3707.77
-3707.78
-3707.78
-3707.78
-3707.78
-3707.79
-3707.79
-3707.79
-3707.8
-3707.8
-3707.81
-3707.81
-3707.82
-3707.82
-3707.83
-3707.83
-3707.84
-3707.84
-3707.85
-3707.85
-3707.86
-3707.86
-3707.87
-3707.87
-3707.88
-3707.88
-3707.89
-3707.89
-3707.89
-3707.9
-3707.9
-3707.91
-3707.91
-3707.91
-3707.91
-3707.92
-3707.92
-3707.92
-3707.92
-3707.93
-3707.93
-3707.93
-3707.93
-3707.93
-3707.93
-3707.93
-3707.93
-3707.94
-3707.94
-3707.94
-3707.94
-3707.94
-3707.94
-3707.94
-3707.93
-3707.93
-3707.93
-3707.93
-3707.93
-3707.93
-3707.93
-3707.93
-3707.93
-3707.93
-3707.93
-3707.93
-3707.92
-3707.92
-3707.92
-3707.92
-3707.92
-3707.92
-3707.92
-3707.92
-3707.92
-3707.92
-3707.92
-3707.91
-3707.91
-3707.91
-3707.91
-3707.91
-3707.91
-3707.91
-3707.91
-3707.91
-3707.91
-3707.91
-3707.91
-3707.91
-3707.91
-3707.91
-3707.91
-3707.91
-3707.91
-3707.91
-3707.91
-3707.91
-3707.91
-3707.91
-3707.91
-3707.91
-3707.91
-4511.82
-4511.82
-4511.82
-4511.82
-4511.81
-4511.81
-4511.81
-4511.81
-4511.81
-4511.81
-4511.81
-4511.81
-4511.81
-4511.81
-4511.82
-4511.83
-4511.84
-4511.85
-4511.87
-4511.89
-4511.92
-4511.95
-4511.98
-4512.01
-4512.05
-4512.09
-4512.13
-4512.18
-4512.23
-4512.28
-4512.33
-4512.38
-4512.43
-4512.48
-4512.54
-4512.59
-4512.64
-4512.69
-4512.74
-4512.78
-4512.83
-4512.87
-4512.92
-4512.95
-4512.99
-4513.03
-4513.06
-4513.09
-4513.12
-4513.14
-4513.17
-4513.19
-4513.21
-4513.22
-4513.24
-4513.25
-4513.25
-4513.26
-4513.27
-4513.27
-4513.27
-4513.27
-4513.27
-4513.26
-4513.26
-4513.25
-4513.24
-4513.23
-4513.23
-4513.22
-4513.21
-4513.2
-4513.18
-4513.17
-4513.16
-4513.15
-4513.14
-4513.13
-4513.12
-4513.11
-4513.1
-4513.1
-4513.09
-4513.08
-4513.07
-4513.07
-4513.06
-4513.06
-4513.06
-4513.05
-4513.05
-4513.05
-4513.05
-4513.05
-4513.05
-4513.05
-4513.05
-4513.05
-4513.06
-4513.06
-4513.06
-4513.07
-4513.07
-4513.07
-4513.08
-4513.08
-4513.09
-4513.09
-4513.1
-4513.1
-4513.11
-4513.11
-4513.12
-4513.13
-4513.13
-4513.14
-4513.14
-4513.15
-4513.15
-4513.16
-4513.16
-4513.17
-4513.17
-4513.18
-4513.18
-4513.18
-4513.19
-4513.19
-4513.2
-4513.2
-4513.2
-4513.21
-4513.21
-4513.21
-4513.21
-4513.21
-4513.22
-4513.22
-4513.22
-4513.22
-4513.22
-4513.22
-4513.22
-4513.22
-4513.22
-4513.22
-4513.22
-4513.22
-4513.22
-4513.22
-4513.22
-4513.22
-4513.22
-4513.22
-4513.22
-4513.22
-4513.22
-4513.22
-4513.22
-4513.22
-4513.22
-4513.21
-4513.21
-4513.21
-4513.21
-4513.21
-4513.21
-4513.21
-4513.21
-4513.21
-4513.21
-4513.21
-4513.2
-4513.2
-4513.2
-4513.2
-4513.2
-4513.2
-4513.2
-4513.2
-4513.2
-4513.2
-4513.2
-4513.2
-4513.2
-4513.2
-4513.2
-4513.2
-4513.2
-4513.2
-4513.2
-4513.19
-4513.19
-4513.19
-4513.19
-4513.19
-4513.19
-4513.19
-4513.19
-4513.19
-5225.12
-5225.12
-5225.12
-5225.11
-5225.1
-5225.1
-5225.09
-5225.07
-5225.06
-5225.05
-5225.04
-5225.03
-5225.03
-5225.02
-5225.02
-5225.03
-5225.04
-5225.05
-5225.07
-5225.09
-5225.12
-5225.16
-5225.2
-5225.24
-5225.29
-5225.35
-5225.4
-5225.46
-5225.53
-5225.6
-5225.66
-5225.73
-5225.8
-5225.87
-5225.94
-5226
-5226.06
-5226.13
-5226.18
-5226.24
-5226.29
-5226.35
-5226.39
-5226.44
-5226.48
-5226.52
-5226.55
-5226.58
-5226.61
-5226.64
-5226.66
-5226.68
-5226.69
-5226.71
-5226.72
-5226.73
-5226.73
-5226.73
-5226.73
-5226.73
-5226.72
-5226.72
-5226.71
-5226.7
-5226.69
-5226.68
-5226.67
-5226.65
-5226.64
-5226.62
-5226.61
-5226.59
-5226.58
-5226.56
-5226.55
-5226.54
-5226.52
-5226.51
-5226.5
-5226.49
-5226.48
-5226.47
-5226.46
-5226.45
-5226.44
-5226.44
-5226.43
-5226.43
-5226.42
-5226.42
-5226.42
-5226.42
-5226.42
-5226.42
-5226.42
-5226.42
-5226.42
-5226.42
-5226.43
-5226.43
-5226.43
-5226.44
-5226.44
-5226.45
-5226.45
-5226.46
-5226.46
-5226.47
-5226.47
-5226.48
-5226.49
-5226.49
-5226.5
-5226.5
-5226.51
-5226.52
-5226.52
-5226.53
-5226.53
-5226.54
-5226.54
-5226.55
-5226.55
-5226.56
-5226.56
-5226.57
-5226.57
-5226.57
-5226.58
-5226.58
-5226.58
-5226.59
-5226.59
-5226.59
-5226.59
-5226.6
-5226.6
-5226.6
-5226.6
-5226.6
-5226.6
-5226.6
-5226.6
-5226.6
-5226.6
-5226.6
-5226.6
-5226.6
-5226.6
-5226.6
-5226.6
-5226.6
-5226.6
-5226.6
-5226.6
-5226.6
-5226.6
-5226.6
-5226.6
-5226.6
-5226.59
-5226.59
-5226.59
-5226.59
-5226.59
-5226.59
-5226.59
-5226.59
-5226.59
-5226.59
-5226.58
-5226.58
-5226.58
-5226.58
-5226.58
-5226.58
-5226.58
-5226.58
-5226.58
-5226.58
-5226.58
-5226.58
-5226.58
-5226.58
-5226.58
-5226.58
-5226.57
-5226.57
-5226.57
-5226.57
-5226.57
-5226.57
-5226.57
-5226.57
-5226.57
-5226.57
-5226.57
-5226.57
-5226.57
-5226.57
-5857.06
-5857.05
-5857.04
-5857.03
-5857.01
-5856.99
-5856.96
-5856.93
-5856.9
-5856.87
-5856.84
-5856.81
-5856.78
-5856.76
-5856.74
-5856.73
-5856.72
-5856.72
-5856.74
-5856.76
-5856.81
-5856.86
-5856.91
-5856.98
-5857.05
-5857.12
-5857.21
-5857.3
-5857.39
-5857.49
-5857.58
-5857.68
-5857.77
-5857.86
-5857.94
-5858.02
-5858.1
-5858.17
-5858.24
-5858.31
-5858.37
-5858.43
-5858.48
-5858.53
-5858.57
-5858.61
-5858.65
-5858.68
-5858.71
-5858.73
-5858.75
-5858.77
-5858.78
-5858.79
-5858.79
-5858.8
-5858.79
-5858.79
-5858.78
-5858.78
-5858.77
-5858.75
-5858.74
-5858.72
-5858.71
-5858.69
-5858.67
-5858.65
-5858.63
-5858.61
-5858.59
-5858.57
-5858.55
-5858.53
-5858.51
-5858.5
-5858.48
-5858.47
-5858.45
-5858.44
-5858.43
-5858.41
-5858.4
-5858.4
-5858.39
-5858.38
-5858.38
-5858.37
-5858.37
-5858.36
-5858.36
-5858.36
-5858.36
-5858.36
-5858.36
-5858.37
-5858.37
-5858.37
-5858.38
-5858.38
-5858.39
-5858.39
-5858.4
-5858.4
-5858.41
-5858.41
-5858.42
-5858.43
-5858.43
-5858.44
-5858.45
-5858.45
-5858.46
-5858.46
-5858.47
-5858.48
-5858.48
-5858.49
-5858.49
-5858.5
-5858.51
-5858.51
-5858.52
-5858.52
-5858.52
-5858.53
-5858.53
-5858.54
-5858.54
-5858.54
-5858.55
-5858.55
-5858.55
-5858.55
-5858.56
-5858.56
-5858.56
-5858.56
-5858.56
-5858.56
-5858.56
-5858.56
-5858.57
-5858.57
-5858.57
-5858.57
-5858.57
-5858.57
-5858.56
-5858.56
-5858.56
-5858.56
-5858.56
-5858.56
-5858.56
-5858.56
-5858.56
-5858.56
-5858.56
-5858.56
-5858.55
-5858.55
-5858.55
-5858.55
-5858.55
-5858.55
-5858.55
-5858.55
-5858.55
-5858.55
-5858.54
-5858.54
-5858.54
-5858.54
-5858.54
-5858.54
-5858.54
-5858.54
-5858.54
-5858.54
-5858.54
-5858.54
-5858.54
-5858.54
-5858.54
-5858.54
-5858.53
-5858.53
-5858.53
-5858.53
-5858.53
-5858.53
-5858.53
-5858.53
-5858.53
-5858.53
-5858.53
-5858.53
-5858.53
-5858.53
-6416.96
-6416.96
-6416.94
-6416.91
-6416.87
-6416.83
-6416.78
-6416.72
-6416.65
-6416.58
-6416.52
-6416.46
-6416.4
-6416.36
-6416.32
-6416.3
-6416.3
-6416.31
-6416.32
-6416.34
-6416.37
-6416.42
-6416.49
-6416.57
-6416.67
-6416.78
-6416.9
-6417.03
-6417.16
-6417.28
-6417.41
-6417.53
-6417.64
-6417.75
-6417.85
-6417.95
-6418.04
-6418.13
-6418.21
-6418.28
-6418.35
-6418.41
-6418.46
-6418.51
-6418.56
-6418.6
-6418.63
-6418.66
-6418.69
-6418.71
-6418.72
-6418.74
-6418.74
-6418.75
-6418.75
-6418.74
-6418.74
-6418.73
-6418.71
-6418.7
-6418.68
-6418.66
-6418.64
-6418.61
-6418.59
-6418.57
-6418.54
-6418.51
-6418.49
-6418.46
-6418.44
-6418.41
-6418.39
-6418.37
-6418.35
-6418.33
-6418.31
-6418.29
-6418.27
-6418.26
-6418.24
-6418.23
-6418.22
-6418.21
-6418.2
-6418.2
-6418.19
-6418.19
-6418.18
-6418.18
-6418.18
-6418.18
-6418.18
-6418.18
-6418.19
-6418.19
-6418.19
-6418.2
-6418.2
-6418.21
-6418.21
-6418.22
-6418.22
-6418.23
-6418.24
-6418.24
-6418.25
-6418.26
-6418.26
-6418.27
-6418.28
-6418.28
-6418.29
-6418.3
-6418.3
-6418.31
-6418.32
-6418.32
-6418.33
-6418.33
-6418.34
-6418.34
-6418.35
-6418.35
-6418.36
-6418.36
-6418.37
-6418.37
-6418.37
-6418.38
-6418.38
-6418.38
-6418.39
-6418.39
-6418.39
-6418.39
-6418.39
-6418.39
-6418.4
-6418.4
-6418.4
-6418.4
-6418.4
-6418.4
-6418.4
-6418.4
-6418.4
-6418.4
-6418.4
-6418.4
-6418.4
-6418.4
-6418.4
-6418.39
-6418.39
-6418.39
-6418.39
-6418.39
-6418.39
-6418.39
-6418.39
-6418.39
-6418.38
-6418.38
-6418.38
-6418.38
-6418.38
-6418.38
-6418.38
-6418.38
-6418.38
-6418.38
-6418.37
-6418.37
-6418.37
-6418.37
-6418.37
-6418.37
-6418.37
-6418.37
-6418.37
-6418.37
-6418.37
-6418.37
-6418.37
-6418.37
-6418.37
-6418.37
-6418.37
-6418.37
-6418.37
-6418.37
-6418.37
-6418.36
-6418.36
-6418.36
-6418.36
-6418.36
-6418.36
-6418.36
-6913.1
-6913.09
-6913.05
-6913
-6912.94
-6912.86
-6912.76
-6912.66
-6912.55
-6912.44
-6912.33
-6912.22
-6912.12
-6912.01
-6911.92
-6911.86
-6911.81
-6911.78
-6911.78
-6911.81
-6911.86
-6911.93
-6912.02
-6912.14
-6912.28
-6912.43
-6912.63
-6912.83
-6913.01
-6913.19
-6913.36
-6913.52
-6913.66
-6913.8
-6913.92
-6914.03
-6914.13
-6914.22
-6914.31
-6914.38
-6914.45
-6914.52
-6914.57
-6914.62
-6914.66
-6914.7
-6914.73
-6914.76
-6914.78
-6914.8
-6914.81
-6914.81
-6914.82
-6914.81
-6914.81
-6914.79
-6914.78
-6914.76
-6914.74
-6914.72
-6914.69
-6914.66
-6914.64
-6914.6
-6914.57
-6914.54
-6914.51
-6914.48
-6914.45
-6914.42
-6914.39
-6914.36
-6914.33
-6914.3
-6914.28
-6914.25
-6914.23
-6914.21
-6914.19
-6914.18
-6914.16
-6914.15
-6914.14
-6914.13
-6914.12
-6914.11
-6914.11
-6914.11
-6914.1
-6914.1
-6914.1
-6914.1
-6914.1
-6914.11
-6914.11
-6914.11
-6914.12
-6914.12
-6914.13
-6914.13
-6914.14
-6914.15
-6914.15
-6914.16
-6914.17
-6914.17
-6914.18
-6914.19
-6914.2
-6914.2
-6914.21
-6914.22
-6914.23
-6914.23
-6914.24
-6914.25
-6914.25
-6914.26
-6914.27
-6914.27
-6914.28
-6914.28
-6914.29
-6914.29
-6914.3
-6914.3
-6914.3
-6914.31
-6914.31
-6914.32
-6914.32
-6914.32
-6914.32
-6914.33
-6914.33
-6914.33
-6914.33
-6914.33
-6914.33
-6914.33
-6914.33
-6914.33
-6914.33
-6914.33
-6914.33
-6914.33
-6914.33
-6914.33
-6914.33
-6914.33
-6914.33
-6914.33
-6914.33
-6914.33
-6914.33
-6914.33
-6914.33
-6914.32
-6914.32
-6914.32
-6914.32
-6914.32
-6914.32
-6914.32
-6914.32
-6914.32
-6914.31
-6914.31
-6914.31
-6914.31
-6914.31
-6914.31
-6914.31
-6914.31
-6914.31
-6914.31
-6914.31
-6914.31
-6914.3
-6914.3
-6914.3
-6914.3
-6914.3
-6914.3
-6914.3
-6914.3
-6914.3
-6914.3
-6914.3
-6914.3
-6914.3
-6914.3
-6914.3
-6914.3
-6914.3
-6914.3
-6914.3
-6914.3
-6914.3
-6914.3
-7352.84
-7352.82
-7352.76
-7352.68
-7352.56
-7352.4
-7352.19
-7351.92
-7351.54
-7351.27
-7351.06
-7350.87
-7350.73
-7350.63
-7350.56
-7350.5
-7350.47
-7350.46
-7350.47
-7350.5
-7350.57
-7350.66
-7350.79
-7350.95
-7351.16
-7351.39
-7351.65
-7352.07
-7352.35
-7352.59
-7352.83
-7353.01
-7353.17
-7353.31
-7353.44
-7353.55
-7353.66
-7353.75
-7353.84
-7353.91
-7353.98
-7354.04
-7354.09
-7354.14
-7354.18
-7354.22
-7354.24
-7354.27
-7354.28
-7354.29
-7354.3
-7354.3
-7354.29
-7354.28
-7354.27
-7354.25
-7354.22
-7354.2
-7354.17
-7354.14
-7354.1
-7354.07
-7354.03
-7353.99
-7353.95
-7353.91
-7353.88
-7353.84
-7353.8
-7353.76
-7353.73
-7353.69
-7353.66
-7353.63
-7353.61
-7353.58
-7353.56
-7353.53
-7353.51
-7353.5
-7353.48
-7353.47
-7353.46
-7353.45
-7353.44
-7353.43
-7353.43
-7353.42
-7353.42
-7353.42
-7353.42
-7353.42
-7353.43
-7353.43
-7353.43
-7353.44
-7353.44
-7353.45
-7353.46
-7353.46
-7353.47
-7353.48
-7353.48
-7353.49
-7353.5
-7353.51
-7353.52
-7353.52
-7353.53
-7353.54
-7353.55
-7353.55
-7353.56
-7353.57
-7353.58
-7353.58
-7353.59
-7353.6
-7353.6
-7353.61
-7353.62
-7353.62
-7353.63
-7353.63
-7353.64
-7353.64
-7353.64
-7353.65
-7353.65
-7353.65
-7353.66
-7353.66
-7353.66
-7353.66
-7353.67
-7353.67
-7353.67
-7353.67
-7353.67
-7353.67
-7353.67
-7353.67
-7353.67
-7353.67
-7353.67
-7353.67
-7353.67
-7353.67
-7353.67
-7353.67
-7353.67
-7353.67
-7353.67
-7353.67
-7353.66
-7353.66
-7353.66
-7353.66
-7353.66
-7353.66
-7353.66
-7353.66
-7353.66
-7353.65
-7353.65
-7353.65
-7353.65
-7353.65
-7353.65
-7353.65
-7353.65
-7353.65
-7353.64
-7353.64
-7353.64
-7353.64
-7353.64
-7353.64
-7353.64
-7353.64
-7353.64
-7353.64
-7353.64
-7353.64
-7353.64
-7353.64
-7353.64
-7353.64
-7353.64
-7353.64
-7353.64
-7353.64
-7353.64
-7353.64
-7353.64
-7353.64
-7353.64
-7353.64
-7353.64
-7353.64
-7742.66
-7742.63
-7742.57
-7742.48
-7742.34
-7742.15
-7741.91
-7741.59
-7741.11
-7740.71
-7740.34
-7740.04
-7739.78
-7739.58
-7739.41
-7739.28
-7739.19
-7739.14
-7739.13
-7739.16
-7739.23
-7739.35
-7739.51
-7739.72
-7739.99
-7740.33
-7740.74
-7741.31
-7741.68
-7741.99
-7742.25
-7742.41
-7742.58
-7742.73
-7742.86
-7742.97
-7743.07
-7743.15
-7743.23
-7743.31
-7743.37
-7743.43
-7743.48
-7743.52
-7743.56
-7743.59
-7743.61
-7743.62
-7743.63
-7743.64
-7743.64
-7743.63
-7743.62
-7743.6
-7743.58
-7743.55
-7743.52
-7743.48
-7743.44
-7743.4
-7743.36
-7743.32
-7743.27
-7743.22
-7743.18
-7743.13
-7743.09
-7743.04
-7743
-7742.96
-7742.92
-7742.88
-7742.84
-7742.81
-7742.78
-7742.75
-7742.73
-7742.7
-7742.68
-7742.67
-7742.65
-7742.64
-7742.62
-7742.61
-7742.61
-7742.6
-7742.6
-7742.59
-7742.59
-7742.59
-7742.59
-7742.6
-7742.6
-7742.6
-7742.61
-7742.61
-7742.62
-7742.63
-7742.64
-7742.64
-7742.65
-7742.66
-7742.67
-7742.68
-7742.68
-7742.69
-7742.7
-7742.71
-7742.72
-7742.73
-7742.73
-7742.74
-7742.75
-7742.76
-7742.77
-7742.77
-7742.78
-7742.79
-7742.79
-7742.8
-7742.8
-7742.81
-7742.82
-7742.82
-7742.82
-7742.83
-7742.83
-7742.84
-7742.84
-7742.84
-7742.85
-7742.85
-7742.85
-7742.85
-7742.85
-7742.86
-7742.86
-7742.86
-7742.86
-7742.86
-7742.86
-7742.86
-7742.86
-7742.86
-7742.86
-7742.86
-7742.86
-7742.86
-7742.86
-7742.86
-7742.86
-7742.86
-7742.85
-7742.85
-7742.85
-7742.85
-7742.85
-7742.85
-7742.85
-7742.85
-7742.84
-7742.84
-7742.84
-7742.84
-7742.84
-7742.84
-7742.84
-7742.84
-7742.84
-7742.83
-7742.83
-7742.83
-7742.83
-7742.83
-7742.83
-7742.83
-7742.83
-7742.83
-7742.83
-7742.83
-7742.83
-7742.83
-7742.83
-7742.83
-7742.83
-7742.83
-7742.82
-7742.82
-7742.82
-7742.82
-7742.82
-7742.82
-7742.82
-7742.82
-7742.82
-7742.82
-7742.82
-7742.82
-7742.82
-7742.82
-8088.25
-8088.24
-8088.22
-8088.18
-8088.14
-8088.1
-8088.07
-8088.02
-8087.18
-8087.29
-8087.37
-8087.47
-8087.59
-8087.69
-8087.79
-8087.89
-8087.98
-8088.07
-8088.15
-8088.22
-8088.28
-8088.34
-8088.39
-8088.44
-8088.48
-8088.51
-8088.53
-8088.55
-8088.56
-8088.57
-8088.56
-8088.55
-8088.54
-8088.52
-8088.49
-8088.46
-8088.42
-8088.38
-8088.34
-8088.29
-8088.24
-8088.19
-8088.14
-8088.09
-8088.03
-8087.98
-8087.92
-8087.87
-8087.82
-8087.77
-8087.73
-8087.68
-8087.64
-8087.6
-8087.57
-8087.53
-8087.5
-8087.48
-8087.45
-8087.43
-8087.41
-8087.4
-8087.38
-8087.37
-8087.36
-8087.36
-8087.35
-8087.35
-8087.35
-8087.34
-8087.35
-8087.35
-8087.35
-8087.36
-8087.36
-8087.37
-8087.37
-8087.38
-8087.39
-8087.4
-8087.4
-8087.41
-8087.42
-8087.43
-8087.44
-8087.45
-8087.46
-8087.47
-8087.48
-8087.49
-8087.49
-8087.5
-8087.51
-8087.52
-8087.53
-8087.53
-8087.54
-8087.55
-8087.56
-8087.56
-8087.57
-8087.57
-8087.58
-8087.59
-8087.59
-8087.59
-8087.6
-8087.6
-8087.61
-8087.61
-8087.61
-8087.62
-8087.62
-8087.62
-8087.62
-8087.62
-8087.63
-8087.63
-8087.63
-8087.63
-8087.63
-8087.63
-8087.63
-8087.63
-8087.63
-8087.63
-8087.63
-8087.63
-8087.63
-8087.63
-8087.63
-8087.62
-8087.62
-8087.62
-8087.62
-8087.62
-8087.62
-8087.62
-8087.62
-8087.61
-8087.61
-8087.61
-8087.61
-8087.61
-8087.61
-8087.61
-8087.61
-8087.61
-8087.6
-8087.6
-8087.6
-8087.6
-8087.6
-8087.6
-8087.6
-8087.6
-8087.6
-8087.6
-8087.6
-8087.59
-8087.59
-8087.59
-8087.59
-8087.59
-8087.59
-8087.59
-8087.59
-8087.59
-8087.59
-8087.59
-8087.59
-8087.59
-8087.59
-8087.59
-8087.59
-8087.59
-8087.59
-8087.59
-8087.59
-8087.59
-8087.59
-8394.46
-8394.45
-8394.44
-8394.42
-8394.4
-8394.37
-8394.35
-8394.32
-8393.03
-8393.12
-8393.18
-8393.24
-8393.33
-8393.41
-8393.49
-8393.57
-8393.65
-8393.72
-8393.79
-8393.86
-8393.91
-8393.97
-8394.01
-8394.05
-8394.09
-8394.11
-8394.13
-8394.15
-8394.15
-8394.15
-8394.14
-8394.12
-8394.1
-8394.07
-8394.04
-8394
-8393.95
-8393.9
-8393.85
-8393.79
-8393.74
-8393.67
-8393.61
-8393.55
-8393.49
-8393.43
-8393.37
-8393.31
-8393.25
-8393.2
-8393.15
-8393.1
-8393.06
-8393.02
-8392.98
-8392.94
-8392.91
-8392.88
-8392.86
-8392.84
-8392.82
-8392.8
-8392.79
-8392.78
-8392.77
-8392.76
-8392.76
-8392.75
-8392.75
-8392.75
-8392.76
-8392.76
-8392.76
-8392.77
-8392.78
-8392.78
-8392.79
-8392.8
-8392.81
-8392.81
-8392.82
-8392.83
-8392.84
-8392.85
-8392.86
-8392.87
-8392.88
-8392.89
-8392.9
-8392.91
-8392.92
-8392.93
-8392.94
-8392.94
-8392.95
-8392.96
-8392.97
-8392.98
-8392.98
-8392.99
-8393
-8393
-8393.01
-8393.01
-8393.02
-8393.02
-8393.03
-8393.03
-8393.03
-8393.04
-8393.04
-8393.04
-8393.04
-8393.05
-8393.05
-8393.05
-8393.05
-8393.05
-8393.05
-8393.05
-8393.05
-8393.05
-8393.05
-8393.05
-8393.05
-8393.05
-8393.05
-8393.05
-8393.05
-8393.05
-8393.05
-8393.05
-8393.05
-8393.05
-8393.05
-8393.04
-8393.04
-8393.04
-8393.04
-8393.04
-8393.04
-8393.04
-8393.04
-8393.03
-8393.03
-8393.03
-8393.03
-8393.03
-8393.03
-8393.03
-8393.03
-8393.03
-8393.02
-8393.02
-8393.02
-8393.02
-8393.02
-8393.02
-8393.02
-8393.02
-8393.02
-8393.02
-8393.02
-8393.02
-8393.02
-8393.02
-8393.02
-8393.02
-8393.02
-8393.02
-8393.02
-8393.02
-8393.01
-8393.01
-8393.01
-8393.01
-8393.01
-8393.01
-8393.01
-8393.01
-8393.01
-8665.74
-8665.74
-8665.73
-8665.72
-8665.71
-8665.7
-8665.69
-8665.68
-8663.98
-8664.03
-8664.06
-8664.11
-8664.17
-8664.23
-8664.3
-8664.37
-8664.44
-8664.5
-8664.56
-8664.62
-8664.68
-8664.72
-8664.77
-8664.8
-8664.83
-8664.85
-8664.87
-8664.87
-8664.87
-8664.86
-8664.85
-8664.83
-8664.8
-8664.76
-8664.72
-8664.67
-8664.61
-8664.55
-8664.49
-8664.43
-8664.36
-8664.29
-8664.22
-8664.15
-8664.08
-8664.01
-8663.95
-8663.88
-8663.82
-8663.76
-8663.71
-8663.66
-8663.61
-8663.57
-8663.53
-8663.49
-8663.46
-8663.43
-8663.4
-8663.38
-8663.36
-8663.35
-8663.33
-8663.32
-8663.31
-8663.31
-8663.31
-8663.3
-8663.3
-8663.3
-8663.31
-8663.31
-8663.32
-8663.32
-8663.33
-8663.34
-8663.35
-8663.36
-8663.36
-8663.37
-8663.38
-8663.39
-8663.4
-8663.41
-8663.42
-8663.43
-8663.44
-8663.45
-8663.46
-8663.47
-8663.48
-8663.49
-8663.5
-8663.51
-8663.52
-8663.53
-8663.53
-8663.54
-8663.55
-8663.56
-8663.56
-8663.57
-8663.57
-8663.58
-8663.58
-8663.59
-8663.59
-8663.6
-8663.6
-8663.6
-8663.61
-8663.61
-8663.61
-8663.61
-8663.61
-8663.62
-8663.62
-8663.62
-8663.62
-8663.62
-8663.62
-8663.62
-8663.62
-8663.62
-8663.62
-8663.62
-8663.62
-8663.62
-8663.62
-8663.62
-8663.62
-8663.61
-8663.61
-8663.61
-8663.61
-8663.61
-8663.61
-8663.61
-8663.61
-8663.6
-8663.6
-8663.6
-8663.6
-8663.6
-8663.6
-8663.6
-8663.6
-8663.59
-8663.59
-8663.59
-8663.59
-8663.59
-8663.59
-8663.59
-8663.59
-8663.59
-8663.59
-8663.59
-8663.58
-8663.58
-8663.58
-8663.58
-8663.58
-8663.58
-8663.58
-8663.58
-8663.58
-8663.58
-8663.58
-8663.58
-8663.58
-8663.58
-8663.58
-8663.58
-8663.58
-8663.58
-8663.58
-8663.58
-8663.58
-8663.58
-8663.58
-8906.08
-8906.07
-8906.07
-8906.06
-8906.06
-8906.05
-8906.05
-8906.04
-8903.95
-8903.98
-8904.01
-8904.04
-8904.09
-8904.15
-8904.2
-8904.26
-8904.32
-8904.38
-8904.44
-8904.49
-8904.54
-8904.59
-8904.62
-8904.66
-8904.68
-8904.7
-8904.71
-8904.71
-8904.7
-8904.69
-8904.67
-8904.64
-8904.6
-8904.56
-8904.51
-8904.45
-8904.39
-8904.32
-8904.25
-8904.17
-8904.1
-8904.02
-8903.94
-8903.86
-8903.79
-8903.71
-8903.64
-8903.57
-8903.51
-8903.44
-8903.38
-8903.33
-8903.28
-8903.23
-8903.19
-8903.15
-8903.12
-8903.09
-8903.06
-8903.04
-8903.02
-8903.01
-8903
-8902.99
-8902.98
-8902.97
-8902.97
-8902.97
-8902.97
-8902.97
-8902.98
-8902.98
-8902.99
-8903
-8903
-8903.01
-8903.02
-8903.03
-8903.04
-8903.05
-8903.06
-8903.07
-8903.08
-8903.09
-8903.1
-8903.12
-8903.13
-8903.14
-8903.15
-8903.16
-8903.17
-8903.18
-8903.19
-8903.19
-8903.2
-8903.21
-8903.22
-8903.23
-8903.23
-8903.24
-8903.25
-8903.25
-8903.26
-8903.26
-8903.27
-8903.27
-8903.28
-8903.28
-8903.28
-8903.29
-8903.29
-8903.29
-8903.3
-8903.3
-8903.3
-8903.3
-8903.3
-8903.3
-8903.3
-8903.3
-8903.3
-8903.3
-8903.3
-8903.3
-8903.3
-8903.3
-8903.3
-8903.3
-8903.3
-8903.3
-8903.3
-8903.3
-8903.3
-8903.3
-8903.29
-8903.29
-8903.29
-8903.29
-8903.29
-8903.29
-8903.29
-8903.28
-8903.28
-8903.28
-8903.28
-8903.28
-8903.28
-8903.28
-8903.28
-8903.27
-8903.27
-8903.27
-8903.27
-8903.27
-8903.27
-8903.27
-8903.27
-8903.27
-8903.27
-8903.27
-8903.27
-8903.27
-8903.27
-8903.27
-8903.26
-8903.26
-8903.26
-8903.26
-8903.26
-8903.26
-8903.26
-8903.26
-8903.26
-8903.26
-8903.26
-8903.26
-8903.26
-8903.26
-8903.26
-8903.26
-8903.26
-9118.98
-9118.98
-9118.98
-9118.98
-9118.98
-9118.97
-9118.97
-9118.97
-9116.51
-9116.52
-9116.55
-9116.58
-9116.62
-9116.67
-9116.72
-9116.78
-9116.83
-9116.89
-9116.94
-9116.99
-9117.04
-9117.08
-9117.12
-9117.14
-9117.17
-9117.18
-9117.19
-9117.18
-9117.17
-9117.15
-9117.12
-9117.09
-9117.04
-9116.99
-9116.93
-9116.87
-9116.8
-9116.72
-9116.64
-9116.56
-9116.47
-9116.39
-9116.3
-9116.22
-9116.13
-9116.05
-9115.98
-9115.9
-9115.83
-9115.76
-9115.7
-9115.64
-9115.59
-9115.54
-9115.5
-9115.46
-9115.43
-9115.4
-9115.37
-9115.35
-9115.33
-9115.32
-9115.31
-9115.3
-9115.29
-9115.29
-9115.28
-9115.28
-9115.29
-9115.29
-9115.29
-9115.3
-9115.31
-9115.32
-9115.32
-9115.33
-9115.34
-9115.35
-9115.36
-9115.38
-9115.39
-9115.4
-9115.41
-9115.42
-9115.43
-9115.44
-9115.45
-9115.46
-9115.47
-9115.48
-9115.49
-9115.5
-9115.51
-9115.52
-9115.53
-9115.54
-9115.55
-9115.56
-9115.56
-9115.57
-9115.58
-9115.58
-9115.59
-9115.59
-9115.6
-9115.6
-9115.61
-9115.61
-9115.61
-9115.62
-9115.62
-9115.62
-9115.62
-9115.63
-9115.63
-9115.63
-9115.63
-9115.63
-9115.63
-9115.63
-9115.63
-9115.63
-9115.63
-9115.63
-9115.63
-9115.63
-9115.63
-9115.63
-9115.63
-9115.63
-9115.63
-9115.63
-9115.62
-9115.62
-9115.62
-9115.62
-9115.62
-9115.62
-9115.62
-9115.61
-9115.61
-9115.61
-9115.61
-9115.61
-9115.61
-9115.61
-9115.61
-9115.6
-9115.6
-9115.6
-9115.6
-9115.6
-9115.6
-9115.6
-9115.6
-9115.6
-9115.6
-9115.6
-9115.59
-9115.59
-9115.59
-9115.59
-9115.59
-9115.59
-9115.59
-9115.59
-9115.59
-9115.59
-9115.59
-9115.59
-9115.59
-9115.59
-9115.59
-9115.59
-9115.59
-9115.59
-9115.59
-9115.59
-9115.59
-9115.59
-9115.59
-9307.6
-9307.59
-9307.59
-9307.59
-9307.59
-9307.59
-9307.59
-9307.58
-9304.79
-9304.8
-9304.82
-9304.85
-9304.89
-9304.93
-9304.98
-9305.03
-9305.09
-9305.14
-9305.19
-9305.24
-9305.28
-9305.32
-9305.36
-9305.39
-9305.4
-9305.42
-9305.42
-9305.41
-9305.4
-9305.37
-9305.34
-9305.29
-9305.24
-9305.18
-9305.12
-9305.04
-9304.96
-9304.88
-9304.79
-9304.7
-9304.61
-9304.52
-9304.42
-9304.33
-9304.24
-9304.15
-9304.07
-9303.99
-9303.92
-9303.85
-9303.78
-9303.72
-9303.67
-9303.62
-9303.57
-9303.54
-9303.5
-9303.47
-9303.45
-9303.42
-9303.41
-9303.39
-9303.38
-9303.37
-9303.37
-9303.36
-9303.36
-9303.36
-9303.37
-9303.37
-9303.38
-9303.38
-9303.39
-9303.4
-9303.41
-9303.42
-9303.43
-9303.44
-9303.45
-9303.46
-9303.47
-9303.49
-9303.5
-9303.51
-9303.52
-9303.53
-9303.54
-9303.55
-9303.57
-9303.58
-9303.59
-9303.6
-9303.61
-9303.62
-9303.62
-9303.63
-9303.64
-9303.65
-9303.66
-9303.66
-9303.67
-9303.68
-9303.68
-9303.69
-9303.69
-9303.7
-9303.7
-9303.7
-9303.71
-9303.71
-9303.71
-9303.72
-9303.72
-9303.72
-9303.72
-9303.72
-9303.72
-9303.72
-9303.73
-9303.73
-9303.73
-9303.73
-9303.73
-9303.73
-9303.72
-9303.72
-9303.72
-9303.72
-9303.72
-9303.72
-9303.72
-9303.72
-9303.72
-9303.72
-9303.71
-9303.71
-9303.71
-9303.71
-9303.71
-9303.71
-9303.71
-9303.7
-9303.7
-9303.7
-9303.7
-9303.7
-9303.7
-9303.7
-9303.7
-9303.69
-9303.69
-9303.69
-9303.69
-9303.69
-9303.69
-9303.69
-9303.69
-9303.69
-9303.69
-9303.69
-9303.69
-9303.69
-9303.69
-9303.68
-9303.68
-9303.68
-9303.68
-9303.68
-9303.68
-9303.68
-9303.68
-9303.68
-9303.68
-9303.68
-9303.68
-9303.68
-9303.68
-9303.68
-9303.68
-9303.68
-9303.68
-9474.68
-9474.68
-9474.68
-9474.68
-9474.67
-9474.67
-9474.67
-9474.67
-9471.56
-9471.57
-9471.6
-9471.62
-9471.66
-9471.7
-9471.75
-9471.8