/*--------------------------------*- C++ -*----------------------------------*\
  =========                 |
  \\      /  F ield         | OpenFOAM: The Open Source CFD Toolbox
   \\    /   O peration     | Website:  https://openfoam.org
    \\  /    A nd           | Version:  12
     \\/     M anipulation  |
\*---------------------------------------------------------------------------*/
FoamFile
{
    format      ascii;
    class       volScalarField;
    location    "16";
    object      p;
}
// * * * * * * * * * * * * * * * * * * * * * * * * * * * * * * * * * * * * * //

dimensions      [1 -1 -2 0 0 0 0];

internalField   nonuniform List<scalar> 
3829
(
-618.155
-618.154
-618.151
-618.147
-618.142
-618.135
-618.126
-618.116
-618.104
-618.09
-618.075
-618.057
-618.037
-618.014
-617.989
-617.961
-617.931
-617.897
-617.861
-617.821
-617.778
-617.732
-617.683
-617.63
-617.574
-617.515
-617.452
-617.387
-617.318
-617.246
-617.172
-617.095
-617.016
-616.936
-616.853
-616.769
-616.685
-616.599
-616.513
-616.428
-616.343
-616.259
-616.176
-616.095
-616.016
-615.94
-615.867
-615.798
-615.732
-615.669
-615.611
-615.557
-615.507
-615.462
-615.422
-615.386
-615.354
-615.327
-615.304
-615.285
-615.269
-615.258
-615.25
-615.244
-615.241
-615.24
-615.24
-615.241
-615.241
-615.242
-615.241
-615.238
-615.234
-615.226
-615.214
-615.199
-615.179
-615.154
-615.125
-615.089
-615.047
-614.999
-614.946
-614.889
-614.826
-614.76
-614.69
-614.618
-614.544
-614.469
-614.395
-614.323
-614.254
-614.189
-614.13
-614.078
-614.034
-613.998
-613.973
-613.958
-613.955
-613.963
-613.982
-614.013
-614.054
-614.103
-614.161
-614.224
-614.292
-614.362
-614.432
-614.5
-614.562
-614.618
-614.664
-614.699
-614.722
-614.731
-614.723
-614.7
-614.663
-614.614
-614.554
-614.485
-614.41
-614.331
-614.254
-614.183
-614.12
-614.068
-614.029
-614.007
-614.002
-614.015
-614.045
-614.09
-614.148
-614.214
-614.286
-614.356
-614.42
-614.475
-614.515
-614.539
-614.544
-614.529
-614.496
-614.449
-614.391
-614.31
-614.246
-614.188
-614.14
-614.11
-614.101
-614.114
-614.149
-614.204
-614.273
-614.351
-614.43
-614.5
-614.556
-614.589
-614.597
-614.578
-614.534
-614.47
-614.393
-614.308
-614.234
-614.175
-614.138
-614.126
-614.145
-614.185
-614.241
-614.305
-614.368
-614.415
-614.442
-614.446
-614.423
-614.383
-614.333
-614.283
-614.244
-614.223
-614.224
-614.247
-614.284
-614.338
-614.378
-614.405
-614.413
-614.398
-614.365
-614.324
-614.287
-614.265
-1776.64
-1776.64
-1776.64
-1776.63
-1776.63
-1776.63
-1776.62
-1776.61
-1776.6
-1776.59
-1776.58
-1776.56
-1776.54
-1776.52
-1776.5
-1776.47
-1776.44
-1776.41
-1776.37
-1776.33
-1776.29
-1776.24
-1776.19
-1776.13
-1776.06
-1776
-1775.93
-1775.85
-1775.77
-1775.69
-1775.61
-1775.52
-1775.43
-1775.33
-1775.24
-1775.14
-1775.04
-1774.94
-1774.84
-1774.74
-1774.65
-1774.55
-1774.45
-1774.36
-1774.28
-1774.19
-1774.11
-1774.04
-1773.97
-1773.91
-1773.85
-1773.79
-1773.74
-1773.7
-1773.66
-1773.63
-1773.61
-1773.59
-1773.57
-1773.56
-1773.55
-1773.55
-1773.56
-1773.56
-1773.57
-1773.58
-1773.59
-1773.6
-1773.62
-1773.63
-1773.64
-1773.64
-1773.65
-1773.65
-1773.64
-1773.63
-1773.62
-1773.59
-1773.56
-1773.53
-1773.48
-1773.43
-1773.37
-1773.31
-1773.24
-1773.16
-1773.08
-1773
-1772.91
-1772.82
-1772.74
-1772.65
-1772.57
-1772.49
-1772.43
-1772.36
-1772.31
-1772.27
-1772.24
-1772.23
-1772.23
-1772.24
-1772.26
-1772.3
-1772.35
-1772.42
-1772.49
-1772.57
-1772.65
-1772.74
-1772.82
-1772.91
-1772.98
-1773.05
-1773.11
-1773.15
-1773.17
-1773.18
-1773.17
-1773.15
-1773.1
-1773.04
-1772.97
-1772.88
-1772.79
-1772.69
-1772.6
-1772.51
-1772.44
-1772.37
-1772.33
-1772.3
-1772.3
-1772.32
-1772.36
-1772.41
-1772.49
-1772.57
-1772.66
-1772.75
-1772.83
-1772.89
-1772.94
-1772.97
-1772.97
-1772.95
-1772.91
-1772.85
-1772.77
-1772.69
-1772.6
-1772.53
-1772.47
-1772.43
-1772.41
-1772.43
-1772.47
-1772.54
-1772.62
-1772.72
-1772.82
-1772.9
-1772.97
-1773.01
-1773.02
-1773
-1772.94
-1772.86
-1772.77
-1772.67
-1772.58
-1772.51
-1772.47
-1772.46
-1772.48
-1772.53
-1772.6
-1772.67
-1772.76
-1772.81
-1772.84
-1772.84
-1772.82
-1772.77
-1772.7
-1772.64
-1772.59
-1772.57
-1772.57
-1772.6
-1772.65
-1772.71
-1772.76
-1772.79
-1772.8
-1772.78
-1772.74
-1772.69
-1772.64
-1772.62
-2802.98
-2802.98
-2802.98
-2802.98
-2802.99
-2802.99
-2802.99
-2802.99
-2802.99
-2802.98
-2802.98
-2802.97
-2802.97
-2802.95
-2802.94
-2802.92
-2802.89
-2802.87
-2802.83
-2802.79
-2802.74
-2802.69
-2802.63
-2802.56
-2802.48
-2802.4
-2802.31
-2802.22
-2802.12
-2802.01
-2801.9
-2801.79
-2801.67
-2801.55
-2801.43
-2801.31
-2801.18
-2801.06
-2800.93
-2800.81
-2800.69
-2800.58
-2800.46
-2800.36
-2800.25
-2800.15
-2800.06
-2799.97
-2799.9
-2799.83
-2799.76
-2799.71
-2799.66
-2799.62
-2799.59
-2799.57
-2799.55
-2799.54
-2799.54
-2799.55
-2799.56
-2799.58
-2799.6
-2799.63
-2799.66
-2799.69
-2799.73
-2799.76
-2799.8
-2799.83
-2799.86
-2799.88
-2799.9
-2799.92
-2799.92
-2799.92
-2799.91
-2799.89
-2799.86
-2799.83
-2799.78
-2799.72
-2799.65
-2799.57
-2799.48
-2799.39
-2799.29
-2799.18
-2799.07
-2798.96
-2798.85
-2798.74
-2798.64
-2798.54
-2798.45
-2798.37
-2798.3
-2798.25
-2798.22
-2798.2
-2798.2
-2798.22
-2798.26
-2798.31
-2798.38
-2798.47
-2798.57
-2798.68
-2798.79
-2798.91
-2799.02
-2799.14
-2799.24
-2799.33
-2799.4
-2799.46
-2799.49
-2799.5
-2799.49
-2799.45
-2799.39
-2799.31
-2799.21
-2799.09
-2798.97
-2798.84
-2798.71
-2798.6
-2798.5
-2798.41
-2798.36
-2798.32
-2798.32
-2798.35
-2798.41
-2798.49
-2798.59
-2798.7
-2798.83
-2798.95
-2799.05
-2799.14
-2799.21
-2799.24
-2799.25
-2799.22
-2799.16
-2799.07
-2798.96
-2798.85
-2798.73
-2798.62
-2798.54
-2798.49
-2798.47
-2798.49
-2798.55
-2798.64
-2798.75
-2798.88
-2799.01
-2799.13
-2799.21
-2799.27
-2799.28
-2799.25
-2799.17
-2799.07
-2798.95
-2798.8
-2798.68
-2798.6
-2798.55
-2798.54
-2798.58
-2798.65
-2798.74
-2798.85
-2798.95
-2799.02
-2799.06
-2799.06
-2799.02
-2798.95
-2798.86
-2798.78
-2798.71
-2798.68
-2798.69
-2798.73
-2798.8
-2798.88
-2798.95
-2798.99
-2799
-2798.98
-2798.92
-2798.84
-2798.78
-2798.74
-3712.17
-3712.17
-3712.18
-3712.19
-3712.2
-3712.22
-3712.23
-3712.25
-3712.27
-3712.29
-3712.31
-3712.33
-3712.34
-3712.35
-3712.36
-3712.36
-3712.35
-3712.33
-3712.3
-3712.26
-3712.22
-3712.16
-3712.09
-3712
-3711.91
-3711.8
-3711.69
-3711.56
-3711.43
-3711.28
-3711.13
-3710.98
-3710.82
-3710.66
-3710.49
-3710.32
-3710.16
-3709.99
-3709.83
-3709.67
-3709.51
-3709.36
-3709.22
-3709.08
-3708.95
-3708.84
-3708.74
-3708.64
-3708.56
-3708.49
-3708.42
-3708.37
-3708.33
-3708.3
-3708.29
-3708.28
-3708.28
-3708.3
-3708.32
-3708.35
-3708.39
-3708.44
-3708.49
-3708.55
-3708.61
-3708.68
-3708.75
-3708.81
-3708.88
-3708.94
-3708.99
-3709.05
-3709.09
-3709.12
-3709.15
-3709.16
-3709.16
-3709.14
-3709.12
-3709.07
-3709.02
-3708.95
-3708.86
-3708.76
-3708.65
-3708.53
-3708.4
-3708.26
-3708.11
-3707.97
-3707.82
-3707.68
-3707.54
-3707.41
-3707.29
-3707.19
-3707.1
-3707.04
-3706.99
-3706.97
-3706.98
-3707.01
-3707.06
-3707.14
-3707.24
-3707.36
-3707.5
-3707.65
-3707.8
-3707.97
-3708.13
-3708.28
-3708.42
-3708.54
-3708.64
-3708.71
-3708.76
-3708.77
-3708.75
-3708.69
-3708.61
-3708.49
-3708.36
-3708.2
-3708.03
-3707.85
-3707.68
-3707.53
-3707.39
-3707.28
-3707.2
-3707.16
-3707.16
-3707.21
-3707.29
-3707.4
-3707.54
-3707.7
-3707.88
-3708.04
-3708.19
-3708.32
-3708.4
-3708.45
-3708.45
-3708.41
-3708.32
-3708.2
-3708.05
-3707.88
-3707.72
-3707.57
-3707.46
-3707.38
-3707.35
-3707.38
-3707.46
-3707.59
-3707.74
-3707.92
-3708.1
-3708.25
-3708.37
-3708.45
-3708.47
-3708.41
-3708.31
-3708.17
-3708
-3707.8
-3707.65
-3707.53
-3707.47
-3707.47
-3707.52
-3707.62
-3707.76
-3707.91
-3708.04
-3708.14
-3708.19
-3708.18
-3708.12
-3708.02
-3707.9
-3707.78
-3707.69
-3707.65
-3707.66
-3707.72
-3707.82
-3707.93
-3708.03
-3708.09
-3708.1
-3708.06
-3707.98
-3707.87
-3707.78
-3707.73
-4517.51
-4517.52
-4517.54
-4517.57
-4517.61
-4517.65
-4517.7
-4517.76
-4517.83
-4517.9
-4517.97
-4518.04
-4518.11
-4518.17
-4518.22
-4518.26
-4518.28
-4518.29
-4518.28
-4518.25
-4518.2
-4518.13
-4518.04
-4517.92
-4517.8
-4517.65
-4517.48
-4517.3
-4517.11
-4516.91
-4516.69
-4516.47
-4516.25
-4516.02
-4515.79
-4515.57
-4515.34
-4515.12
-4514.91
-4514.71
-4514.51
-4514.32
-4514.15
-4513.99
-4513.84
-4513.7
-4513.57
-4513.46
-4513.37
-4513.29
-4513.23
-4513.18
-4513.15
-4513.13
-4513.13
-4513.15
-4513.18
-4513.22
-4513.28
-4513.34
-4513.42
-4513.51
-4513.6
-4513.7
-4513.81
-4513.92
-4514.02
-4514.13
-4514.24
-4514.34
-4514.43
-4514.51
-4514.59
-4514.65
-4514.69
-4514.72
-4514.73
-4514.72
-4514.69
-4514.65
-4514.58
-4514.49
-4514.38
-4514.26
-4514.11
-4513.95
-4513.78
-4513.6
-4513.41
-4513.22
-4513.02
-4512.83
-4512.65
-4512.48
-4512.33
-4512.19
-4512.08
-4511.99
-4511.94
-4511.91
-4511.92
-4511.97
-4512.05
-4512.16
-4512.29
-4512.46
-4512.64
-4512.85
-4513.06
-4513.28
-4513.5
-4513.7
-4513.89
-4514.06
-4514.19
-4514.29
-4514.35
-4514.36
-4514.33
-4514.25
-4514.13
-4513.98
-4513.79
-4513.57
-4513.34
-4513.11
-4512.88
-4512.67
-4512.48
-4512.33
-4512.23
-4512.18
-4512.19
-4512.26
-4512.37
-4512.53
-4512.73
-4512.95
-4513.19
-4513.41
-4513.62
-4513.78
-4513.9
-4513.96
-4513.96
-4513.89
-4513.77
-4513.6
-4513.39
-4513.16
-4512.94
-4512.74
-4512.58
-4512.48
-4512.44
-4512.48
-4512.59
-4512.76
-4512.97
-4513.21
-4513.45
-4513.66
-4513.82
-4513.91
-4513.92
-4513.86
-4513.72
-4513.53
-4513.3
-4513.04
-4512.84
-4512.69
-4512.61
-4512.61
-4512.69
-4512.83
-4513.02
-4513.22
-4513.4
-4513.53
-4513.59
-4513.57
-4513.49
-4513.35
-4513.19
-4513.01
-4512.9
-4512.85
-4512.87
-4512.95
-4513.08
-4513.23
-4513.37
-4513.45
-4513.46
-4513.4
-4513.29
-4513.15
-4513.02
-4512.95
-5230.57
-5230.59
-5230.63
-5230.69
-5230.77
-5230.86
-5230.97
-5231.09
-5231.22
-5231.35
-5231.48
-5231.6
-5231.72
-5231.83
-5231.93
-5232.02
-5232.09
-5232.15
-5232.2
-5232.24
-5232.25
-5232.23
-5232.17
-5232.07
-5231.93
-5231.75
-5231.53
-5231.28
-5231
-5230.7
-5230.39
-5230.08
-5229.76
-5229.44
-5229.13
-5228.82
-5228.52
-5228.23
-5227.95
-5227.69
-5227.44
-5227.21
-5226.99
-5226.79
-5226.61
-5226.45
-5226.32
-5226.21
-5226.11
-5226.04
-5225.99
-5225.95
-5225.94
-5225.95
-5225.97
-5226.02
-5226.08
-5226.16
-5226.26
-5226.37
-5226.5
-5226.63
-5226.78
-5226.93
-5227.09
-5227.25
-5227.41
-5227.57
-5227.72
-5227.87
-5228.01
-5228.13
-5228.24
-5228.33
-5228.4
-5228.45
-5228.47
-5228.47
-5228.44
-5228.39
-5228.3
-5228.19
-5228.06
-5227.9
-5227.71
-5227.51
-5227.29
-5227.05
-5226.81
-5226.55
-5226.3
-5226.06
-5225.82
-5225.6
-5225.4
-5225.22
-5225.08
-5224.97
-5224.9
-5224.87
-5224.89
-5224.95
-5225.06
-5225.2
-5225.39
-5225.61
-5225.86
-5226.13
-5226.41
-5226.7
-5226.98
-5227.26
-5227.5
-5227.72
-5227.89
-5228.02
-5228.09
-5228.11
-5228.06
-5227.96
-5227.8
-5227.59
-5227.34
-5227.06
-5226.75
-5226.44
-5226.14
-5225.86
-5225.62
-5225.43
-5225.3
-5225.23
-5225.25
-5225.34
-5225.5
-5225.72
-5225.99
-5226.28
-5226.6
-5226.9
-5227.16
-5227.38
-5227.54
-5227.62
-5227.61
-5227.52
-5227.35
-5227.11
-5226.83
-5226.53
-5226.23
-5225.96
-5225.75
-5225.62
-5225.57
-5225.62
-5225.77
-5226
-5226.28
-5226.59
-5226.91
-5227.18
-5227.39
-5227.51
-5227.52
-5227.43
-5227.25
-5226.99
-5226.69
-5226.36
-5226.1
-5225.9
-5225.8
-5225.81
-5225.92
-5226.12
-5226.37
-5226.63
-5226.87
-5227.03
-5227.11
-5227.08
-5226.96
-5226.78
-5226.56
-5226.33
-5226.18
-5226.11
-5226.14
-5226.26
-5226.43
-5226.63
-5226.81
-5226.92
-5226.93
-5226.85
-5226.7
-5226.51
-5226.34
-5226.24
-5861.89
-5861.94
-5862.04
-5862.18
-5862.37
-5862.61
-5862.88
-5863.19
-5863.52
-5863.87
-5864.22
-5864.57
-5864.92
-5865.25
-5865.56
-5865.84
-5866.08
-5866.3
-5866.47
-5866.56
-5866.5
-5866.33
-5866.07
-5865.75
-5865.39
-5865
-5864.57
-5864.11
-5863.65
-5863.18
-5862.72
-5862.26
-5861.81
-5861.37
-5860.94
-5860.54
-5860.15
-5859.78
-5859.44
-5859.11
-5858.81
-5858.54
-5858.29
-5858.07
-5857.88
-5857.71
-5857.56
-5857.43
-5857.34
-5857.27
-5857.23
-5857.21
-5857.22
-5857.26
-5857.32
-5857.4
-5857.51
-5857.63
-5857.78
-5857.94
-5858.12
-5858.32
-5858.52
-5858.74
-5858.96
-5859.18
-5859.4
-5859.62
-5859.83
-5860.03
-5860.22
-5860.39
-5860.54
-5860.67
-5860.76
-5860.83
-5860.87
-5860.88
-5860.85
-5860.78
-5860.68
-5860.55
-5860.38
-5860.17
-5859.94
-5859.68
-5859.4
-5859.1
-5858.79
-5858.47
-5858.15
-5857.84
-5857.53
-5857.25
-5857
-5856.78
-5856.6
-5856.46
-5856.38
-5856.34
-5856.37
-5856.45
-5856.59
-5856.78
-5857.02
-5857.3
-5857.62
-5857.97
-5858.34
-5858.71
-5859.08
-5859.42
-5859.74
-5860.02
-5860.24
-5860.4
-5860.49
-5860.51
-5860.45
-5860.31
-5860.1
-5859.83
-5859.5
-5859.13
-5858.74
-5858.34
-5857.95
-5857.6
-5857.29
-5857.05
-5856.89
-5856.82
-5856.84
-5856.97
-5857.17
-5857.46
-5857.81
-5858.19
-5858.6
-5858.98
-5859.33
-5859.61
-5859.81
-5859.9
-5859.89
-5859.77
-5859.54
-5859.24
-5858.87
-5858.47
-5858.09
-5857.74
-5857.47
-5857.29
-5857.24
-5857.31
-5857.5
-5857.79
-5858.16
-5858.56
-5858.97
-5859.32
-5859.58
-5859.73
-5859.74
-5859.62
-5859.38
-5859.04
-5858.66
-5858.25
-5857.91
-5857.67
-5857.55
-5857.56
-5857.71
-5857.97
-5858.29
-5858.64
-5858.94
-5859.15
-5859.24
-5859.2
-5859.04
-5858.79
-5858.5
-5858.22
-5858.03
-5857.94
-5857.98
-5858.13
-5858.36
-5858.62
-5858.85
-5858.99
-5859
-5858.89
-5858.69
-5858.45
-5858.23
-5858.1
-6419.94
-6420.04
-6420.26
-6420.53
-6420.88
-6421.31
-6421.81
-6422.36
-6422.96
-6423.58
-6424.21
-6424.8
-6425.36
-6425.87
-6426.31
-6426.67
-6426.94
-6427.08
-6427.1
-6427.01
-6426.9
-6426.78
-6426.65
-6426.46
-6426.16
-6425.75
-6425.25
-6424.65
-6424.03
-6423.39
-6422.76
-6422.15
-6421.55
-6420.98
-6420.44
-6419.93
-6419.45
-6419.01
-6418.6
-6418.22
-6417.88
-6417.57
-6417.29
-6417.05
-6416.83
-6416.64
-6416.5
-6416.39
-6416.31
-6416.26
-6416.24
-6416.25
-6416.29
-6416.36
-6416.46
-6416.59
-6416.75
-6416.93
-6417.13
-6417.36
-6417.6
-6417.86
-6418.13
-6418.42
-6418.71
-6419
-6419.29
-6419.57
-6419.85
-6420.11
-6420.36
-6420.58
-6420.77
-6420.94
-6421.07
-6421.17
-6421.22
-6421.23
-6421.2
-6421.12
-6421
-6420.83
-6420.62
-6420.37
-6420.08
-6419.76
-6419.41
-6419.04
-6418.65
-6418.25
-6417.85
-6417.46
-6417.09
-6416.74
-6416.43
-6416.16
-6415.94
-6415.77
-6415.67
-6415.63
-6415.67
-6415.77
-6415.94
-6416.18
-6416.48
-6416.84
-6417.24
-6417.68
-6418.14
-6418.6
-6419.06
-6419.5
-6419.89
-6420.23
-6420.51
-6420.71
-6420.82
-6420.83
-6420.75
-6420.58
-6420.32
-6419.97
-6419.56
-6419.1
-6418.6
-6418.1
-6417.62
-6417.17
-6416.79
-6416.5
-6416.31
-6416.23
-6416.26
-6416.41
-6416.68
-6417.04
-6417.48
-6417.97
-6418.48
-6418.96
-6419.4
-6419.75
-6420
-6420.11
-6420.09
-6419.93
-6419.64
-6419.25
-6418.79
-6418.29
-6417.8
-6417.36
-6417.02
-6416.8
-6416.73
-6416.83
-6417.07
-6417.44
-6417.9
-6418.41
-6418.91
-6419.35
-6419.67
-6419.85
-6419.87
-6419.71
-6419.4
-6418.98
-6418.5
-6418
-6417.58
-6417.28
-6417.13
-6417.16
-6417.35
-6417.68
-6418.09
-6418.52
-6418.89
-6419.16
-6419.26
-6419.2
-6419
-6418.68
-6418.31
-6417.97
-6417.72
-6417.62
-6417.67
-6417.87
-6418.16
-6418.49
-6418.78
-6418.94
-6418.96
-6418.82
-6418.56
-6418.25
-6417.98
-6417.81
-6913.67
-6913.79
-6914.03
-6914.43
-6915.01
-6915.74
-6916.63
-6917.65
-6918.72
-6919.8
-6920.87
-6921.91
-6922.89
-6923.77
-6924.54
-6925.2
-6925.73
-6926.13
-6926.42
-6926.62
-6926.7
-6926.61
-6926.26
-6925.68
-6924.93
-6924.03
-6923.01
-6921.88
-6920.8
-6919.78
-6918.84
-6917.97
-6917.17
-6916.45
-6915.78
-6915.18
-6914.63
-6914.13
-6913.68
-6913.27
-6912.9
-6912.57
-6912.28
-6912.03
-6911.82
-6911.66
-6911.51
-6911.39
-6911.32
-6911.28
-6911.29
-6911.33
-6911.4
-6911.52
-6911.66
-6911.84
-6912.05
-6912.29
-6912.56
-6912.85
-6913.17
-6913.5
-6913.85
-6914.21
-6914.57
-6914.94
-6915.31
-6915.66
-6916.01
-6916.34
-6916.65
-6916.92
-6917.17
-6917.38
-6917.54
-6917.66
-6917.73
-6917.75
-6917.72
-6917.62
-6917.48
-6917.28
-6917.02
-6916.72
-6916.37
-6915.97
-6915.55
-6915.09
-6914.62
-6914.14
-6913.65
-6913.18
-6912.72
-6912.3
-6911.92
-6911.59
-6911.32
-6911.13
-6911.01
-6910.98
-6911.01
-6911.14
-6911.35
-6911.65
-6912.02
-6912.45
-6912.95
-6913.48
-6914.04
-6914.61
-6915.17
-6915.7
-6916.18
-6916.6
-6916.93
-6917.17
-6917.3
-6917.31
-6917.21
-6917
-6916.67
-6916.24
-6915.74
-6915.17
-6914.56
-6913.95
-6913.36
-6912.82
-6912.36
-6912
-6911.77
-6911.68
-6911.73
-6911.92
-6912.25
-6912.71
-6913.25
-6913.85
-6914.47
-6915.07
-6915.6
-6916.03
-6916.33
-6916.46
-6916.43
-6916.23
-6915.87
-6915.39
-6914.81
-6914.2
-6913.6
-6913.06
-6912.64
-6912.38
-6912.3
-6912.41
-6912.71
-6913.17
-6913.74
-6914.36
-6914.97
-6915.5
-6915.9
-6916.12
-6916.13
-6915.93
-6915.55
-6915.03
-6914.44
-6913.84
-6913.33
-6912.96
-6912.79
-6912.84
-6913.08
-6913.49
-6913.99
-6914.52
-6914.97
-6915.29
-6915.41
-6915.33
-6915.07
-6914.68
-6914.23
-6913.8
-6913.51
-6913.38
-6913.45
-6913.7
-6914.06
-6914.47
-6914.81
-6915.02
-6915.04
-6914.86
-6914.54
-6914.16
-6913.82
-6913.62
-7348.59
-7348.79
-7349.2
-7349.84
-7350.76
-7351.96
-7353.52
-7355.53
-7358.53
-7360.62
-7362.34
-7363.85
-7365.16
-7366.28
-7367.22
-7368
-7368.63
-7369.09
-7369.42
-7369.65
-7369.76
-7369.67
-7369.29
-7368.55
-7367.5
-7366.14
-7364.58
-7361.69
-7360.19
-7358.8
-7357.64
-7356.62
-7355.72
-7354.92
-7354.2
-7353.56
-7352.98
-7352.46
-7351.99
-7351.56
-7351.19
-7350.85
-7350.56
-7350.31
-7350.1
-7349.93
-7349.8
-7349.71
-7349.66
-7349.65
-7349.69
-7349.76
-7349.88
-7350.03
-7350.23
-7350.46
-7350.73
-7351.04
-7351.37
-7351.74
-7352.13
-7352.54
-7352.96
-7353.4
-7353.85
-7354.3
-7354.75
-7355.18
-7355.6
-7356
-7356.38
-7356.71
-7357.01
-7357.26
-7357.46
-7357.61
-7357.7
-7357.73
-7357.68
-7357.57
-7357.4
-7357.16
-7356.86
-7356.5
-7356.08
-7355.61
-7355.1
-7354.56
-7354
-7353.42
-7352.84
-7352.28
-7351.73
-7351.23
-7350.78
-7350.39
-7350.07
-7349.84
-7349.7
-7349.66
-7349.71
-7349.86
-7350.12
-7350.48
-7350.92
-7351.45
-7352.04
-7352.68
-7353.35
-7354.03
-7354.69
-7355.33
-7355.9
-7356.39
-7356.79
-7357.07
-7357.22
-7357.24
-7357.11
-7356.85
-7356.45
-7355.94
-7355.33
-7354.65
-7353.93
-7353.19
-7352.49
-7351.85
-7351.3
-7350.87
-7350.6
-7350.5
-7350.56
-7350.8
-7351.21
-7351.75
-7352.4
-7353.13
-7353.88
-7354.59
-7355.23
-7355.74
-7356.09
-7356.25
-7356.2
-7355.96
-7355.52
-7354.94
-7354.25
-7353.5
-7352.78
-7352.14
-7351.64
-7351.33
-7351.24
-7351.38
-7351.74
-7352.29
-7352.97
-7353.71
-7354.45
-7355.08
-7355.55
-7355.8
-7355.81
-7355.57
-7355.11
-7354.49
-7353.78
-7353.06
-7352.46
-7352.03
-7351.84
-7351.9
-7352.2
-7352.69
-7353.29
-7353.93
-7354.47
-7354.84
-7354.98
-7354.87
-7354.55
-7354.08
-7353.54
-7353.03
-7352.68
-7352.53
-7352.62
-7352.92
-7353.36
-7353.85
-7354.26
-7354.51
-7354.53
-7354.31
-7353.93
-7353.47
-7353.06
-7352.81
-7731.79
-7732.04
-7732.54
-7733.36
-7734.54
-7736.16
-7738.1
-7740.74
-7744.96
-7748.24
-7751.14
-7753.64
-7755.78
-7757.57
-7759.05
-7760.23
-7761.1
-7761.68
-7761.93
-7761.81
-7761.31
-7760.52
-7759.55
-7758.48
-7757.15
-7755.49
-7753.54
-7750.57
-7748.63
-7746.96
-7745.71
-7744.62
-7743.68
-7742.89
-7742.18
-7741.56
-7741
-7740.49
-7740.04
-7739.63
-7739.26
-7738.93
-7738.65
-7738.4
-7738.2
-7738.05
-7737.93
-7737.86
-7737.83
-7737.85
-7737.91
-7738.03
-7738.18
-7738.39
-7738.63
-7738.92
-7739.26
-7739.63
-7740.03
-7740.47
-7740.94
-7741.43
-7741.94
-7742.46
-7743
-7743.53
-7744.06
-7744.58
-7745.08
-7745.55
-7745.99
-7746.39
-7746.74
-7747.04
-7747.28
-7747.45
-7747.55
-7747.58
-7747.53
-7747.41
-7747.21
-7746.93
-7746.58
-7746.15
-7745.66
-7745.12
-7744.52
-7743.89
-7743.23
-7742.55
-7741.87
-7741.21
-7740.58
-7739.99
-7739.46
-7739.01
-7738.64
-7738.37
-7738.21
-7738.16
-7738.22
-7738.41
-7738.72
-7739.14
-7739.66
-7740.28
-7740.97
-7741.72
-7742.51
-7743.3
-7744.08
-7744.82
-7745.49
-7746.07
-7746.53
-7746.85
-7747.03
-7747.04
-7746.89
-7746.57
-7746.11
-7745.5
-7744.79
-7743.99
-7743.14
-7742.28
-7741.45
-7740.7
-7740.06
-7739.57
-7739.25
-7739.13
-7739.22
-7739.51
-7739.99
-7740.64
-7741.41
-7742.26
-7743.14
-7743.98
-7744.73
-7745.33
-7745.73
-7745.91
-7745.85
-7745.55
-7745.04
-7744.34
-7743.53
-7742.65
-7741.81
-7741.06
-7740.47
-7740.11
-7740.01
-7740.18
-7740.61
-7741.25
-7742.05
-7742.93
-7743.78
-7744.52
-7745.07
-7745.36
-7745.36
-7745.07
-7744.53
-7743.8
-7742.97
-7742.13
-7741.43
-7740.94
-7740.72
-7740.79
-7741.15
-7741.73
-7742.44
-7743.2
-7743.82
-7744.25
-7744.41
-7744.28
-7743.89
-7743.33
-7742.69
-7742.11
-7741.69
-7741.53
-7741.64
-7741.99
-7742.51
-7743.08
-7743.57
-7743.85
-7743.87
-7743.62
-7743.16
-7742.62
-7742.14
-7741.85
-8069.49
-8069.6
-8069.81
-8070.1
-8070.4
-8070.67
-8071.03
-8071.44
-8089.26
-8088.76
-8088.39
-8087.87
-8087.3
-8086.7
-8086.13
-8085.56
-8085.03
-8084.53
-8084.06
-8083.63
-8083.24
-8082.89
-8082.57
-8082.3
-8082.06
-8081.87
-8081.73
-8081.63
-8081.58
-8081.57
-8081.62
-8081.72
-8081.87
-8082.06
-8082.32
-8082.62
-8082.96
-8083.36
-8083.8
-8084.27
-8084.79
-8085.34
-8085.91
-8086.51
-8087.12
-8087.74
-8088.36
-8088.97
-8089.57
-8090.15
-8090.7
-8091.21
-8091.67
-8092.08
-8092.42
-8092.7
-8092.9
-8093.02
-8093.05
-8093
-8092.86
-8092.62
-8092.3
-8091.89
-8091.41
-8090.84
-8090.21
-8089.53
-8088.8
-8088.04
-8087.26
-8086.48
-8085.72
-8085
-8084.32
-8083.72
-8083.2
-8082.77
-8082.46
-8082.28
-8082.22
-8082.3
-8082.52
-8082.88
-8083.37
-8083.97
-8084.68
-8085.48
-8086.35
-8087.25
-8088.17
-8089.06
-8089.91
-8090.68
-8091.34
-8091.87
-8092.23
-8092.43
-8092.44
-8092.26
-8091.89
-8091.35
-8090.65
-8089.83
-8088.91
-8087.93
-8086.94
-8085.99
-8085.12
-8084.39
-8083.83
-8083.47
-8083.33
-8083.44
-8083.78
-8084.34
-8085.09
-8085.99
-8086.97
-8087.99
-8088.96
-8089.82
-8090.51
-8090.97
-8091.17
-8091.1
-8090.75
-8090.14
-8089.34
-8088.4
-8087.38
-8086.41
-8085.54
-8084.87
-8084.46
-8084.34
-8084.54
-8085.04
-8085.79
-8086.71
-8087.72
-8088.7
-8089.55
-8090.18
-8090.51
-8090.51
-8090.17
-8089.53
-8088.69
-8087.73
-8086.78
-8085.98
-8085.41
-8085.17
-8085.26
-8085.69
-8086.36
-8087.18
-8088.05
-8088.77
-8089.25
-8089.42
-8089.27
-8088.82
-8088.16
-8087.43
-8086.75
-8086.28
-8086.09
-8086.22
-8086.64
-8087.24
-8087.9
-8088.46
-8088.79
-8088.81
-8088.51
-8087.98
-8087.35
-8086.79
-8086.46
-8367.44
-8367.47
-8367.52
-8367.61
-8367.75
-8368.07
-8368.28
-8368.54
-8392.55
-8392.19
-8391.89
-8391.5
-8391.07
-8390.57
-8390.11
-8389.64
-8389.18
-8388.73
-8388.31
-8387.91
-8387.54
-8387.2
-8386.89
-8386.63
-8386.4
-8386.22
-8386.09
-8386
-8385.97
-8385.99
-8386.06
-8386.19
-8386.37
-8386.61
-8386.91
-8387.26
-8387.67
-8388.13
-8388.63
-8389.18
-8389.78
-8390.4
-8391.06
-8391.74
-8392.44
-8393.15
-8393.85
-8394.55
-8395.24
-8395.9
-8396.52
-8397.1
-8397.62
-8398.09
-8398.48
-8398.79
-8399.02
-8399.15
-8399.19
-8399.13
-8398.97
-8398.71
-8398.34
-8397.88
-8397.32
-8396.69
-8395.97
-8395.2
-8394.37
-8393.51
-8392.63
-8391.75
-8390.89
-8390.07
-8389.31
-8388.62
-8388.03
-8387.56
-8387.21
-8387
-8386.94
-8387.03
-8387.29
-8387.69
-8388.25
-8388.94
-8389.74
-8390.65
-8391.63
-8392.65
-8393.69
-8394.7
-8395.66
-8396.53
-8397.27
-8397.87
-8398.28
-8398.5
-8398.51
-8398.3
-8397.88
-8397.26
-8396.47
-8395.53
-8394.48
-8393.37
-8392.25
-8391.18
-8390.2
-8389.37
-8388.73
-8388.33
-8388.18
-8388.31
-8388.7
-8389.35
-8390.21
-8391.23
-8392.35
-8393.5
-8394.6
-8395.57
-8396.35
-8396.87
-8397.1
-8397.01
-8396.6
-8395.91
-8394.99
-8393.92
-8392.77
-8391.66
-8390.68
-8389.92
-8389.45
-8389.33
-8389.56
-8390.13
-8390.98
-8392.03
-8393.17
-8394.29
-8395.25
-8395.95
-8396.32
-8396.31
-8395.92
-8395.2
-8394.24
-8393.15
-8392.08
-8391.17
-8390.54
-8390.27
-8390.39
-8390.88
-8391.64
-8392.57
-8393.57
-8394.37
-8394.91
-8395.1
-8394.92
-8394.4
-8393.65
-8392.82
-8392.06
-8391.52
-8391.31
-8391.47
-8391.95
-8392.63
-8393.38
-8394.01
-8394.38
-8394.4
-8394.06
-8393.46
-8392.74
-8392.11
-8391.73
-8631.64
-8631.68
-8631.78
-8631.95
-8632.16
-8632.35
-8632.24
-8632.3
-8661.25
-8661.03
-8660.84
-8660.55
-8660.22
-8659.81
-8659.42
-8659
-8658.58
-8658.17
-8657.77
-8657.39
-8657.03
-8656.7
-8656.4
-8656.14
-8655.92
-8655.75
-8655.62
-8655.55
-8655.53
-8655.57
-8655.67
-8655.82
-8656.04
-8656.32
-8656.67
-8657.07
-8657.53
-8658.05
-8658.63
-8659.25
-8659.92
-8660.62
-8661.36
-8662.13
-8662.91
-8663.7
-8664.5
-8665.28
-8666.05
-8666.79
-8667.49
-8668.14
-8668.72
-8669.24
-8669.68
-8670.03
-8670.28
-8670.43
-8670.48
-8670.41
-8670.23
-8669.93
-8669.52
-8669
-8668.38
-8667.67
-8666.87
-8666
-8665.08
-8664.12
-8663.14
-8662.16
-8661.2
-8660.28
-8659.43
-8658.67
-8658.01
-8657.48
-8657.09
-8656.86
-8656.8
-8656.91
-8657.19
-8657.65
-8658.27
-8659.04
-8659.95
-8660.96
-8662.06
-8663.2
-8664.36
-8665.49
-8666.55
-8667.52
-8668.35
-8669.01
-8669.47
-8669.71
-8669.71
-8669.47
-8669
-8668.3
-8667.41
-8666.36
-8665.19
-8663.95
-8662.7
-8661.5
-8660.41
-8659.49
-8658.78
-8658.33
-8658.18
-8658.32
-8658.77
-8659.5
-8660.46
-8661.61
-8662.86
-8664.16
-8665.38
-8666.47
-8667.34
-8667.92
-8668.17
-8668.06
-8667.6
-8666.82
-8665.78
-8664.58
-8663.29
-8662.05
-8660.95
-8660.1
-8659.59
-8659.45
-8659.72
-8660.36
-8661.32
-8662.49
-8663.77
-8665.01
-8666.08
-8666.87
-8667.27
-8667.25
-8666.81
-8666
-8664.92
-8663.71
-8662.51
-8661.51
-8660.81
-8660.52
-8660.66
-8661.21
-8662.07
-8663.09
-8664.24
-8665.11
-8665.71
-8665.92
-8665.7
-8665.12
-8664.28
-8663.35
-8662.5
-8661.9
-8661.67
-8661.85
-8662.39
-8663.16
-8664
-8664.71
-8665.12
-8665.13
-8664.75
-8664.07
-8663.27
-8662.56
-8662.14
-8865.53
-8865.54
-8865.56
-8865.57
-8865.52
-8865.4
-8865.6
-8865.7
-8899.51
-8899.37
-8899.2
-8898.98
-8898.69
-8898.35
-8897.99
-8897.61
-8897.22
-8896.83
-8896.44
-8896.07
-8895.71
-8895.39
-8895.09
-8894.83
-8894.61
-8894.44
-8894.32
-8894.26
-8894.25
-8894.31
-8894.43
-8894.61
-8894.86
-8895.18
-8895.57
-8896.02
-8896.54
-8897.12
-8897.76
-8898.45
-8899.19
-8899.98
-8900.8
-8901.64
-8902.51
-8903.39
-8904.27
-8905.14
-8905.99
-8906.8
-8907.57
-8908.29
-8908.94
-8909.51
-8909.99
-8910.38
-8910.66
-8910.82
-8910.87
-8910.79
-8910.59
-8910.26
-8909.81
-8909.24
-8908.55
-8907.77
-8906.88
-8905.93
-8904.91
-8903.85
-8902.76
-8901.68
-8900.63
-8899.62
-8898.68
-8897.84
-8897.12
-8896.53
-8896.11
-8895.86
-8895.79
-8895.91
-8896.23
-8896.74
-8897.42
-8898.28
-8899.28
-8900.4
-8901.6
-8902.87
-8904.14
-8905.39
-8906.56
-8907.63
-8908.54
-8909.26
-8909.76
-8910.02
-8910.02
-8909.75
-8909.23
-8908.46
-8907.47
-8906.31
-8905.02
-8903.65
-8902.27
-8900.95
-8899.75
-8898.73
-8897.95
-8897.46
-8897.3
-8897.46
-8897.96
-8898.77
-8899.84
-8901.11
-8902.5
-8903.93
-8905.29
-8906.49
-8907.44
-8908.08
-8908.34
-8908.22
-8907.7
-8906.84
-8905.69
-8904.35
-8902.93
-8901.56
-8900.35
-8899.41
-8898.85
-8898.7
-8899
-8899.71
-8900.77
-8902.07
-8903.48
-8904.85
-8906.03
-8906.89
-8907.33
-8907.31
-8906.81
-8905.91
-8904.72
-8903.39
-8902.07
-8900.97
-8900.2
-8899.88
-8900.05
-8900.66
-8901.62
-8902.74
-8904.02
-8904.98
-8905.63
-8905.85
-8905.61
-8904.95
-8904.02
-8902.99
-8902.06
-8901.4
-8901.15
-8901.36
-8901.96
-8902.81
-8903.73
-8904.52
-8904.97
-8904.98
-8904.56
-8903.81
-8902.92
-8902.13
-8901.67
-9072.68
-9072.69
-9072.7
-9072.71
-9072.73
-9072.78
-9072.79
-9072.81
-9110.74
-9110.63
-9110.48
-9110.28
-9110.02
-9109.7
-9109.36
-9109
-9108.62
-9108.23
-9107.85
-9107.48
-9107.12
-9106.79
-9106.49
-9106.22
-9106.01
-9105.83
-9105.72
-9105.66
-9105.66
-9105.74
-9105.87
-9106.09
-9106.37
-9106.72
-9107.15
-9107.65
-9108.22
-9108.86
-9109.56
-9110.32
-9111.14
-9111.99
-9112.89
-9113.82
-9114.77
-9115.73
-9116.69
-9117.64
-9118.56
-9119.45
-9120.3
-9121.08
-9121.79
-9122.41
-9122.94
-9123.36
-9123.66
-9123.84
-9123.89
-9123.81
-9123.58
-9123.22
-9122.73
-9122.1
-9121.36
-9120.49
-9119.53
-9118.49
-9117.38
-9116.22
-9115.04
-9113.86
-9112.71
-9111.61
-9110.59
-9109.67
-9108.89
-9108.25
-9107.79
-9107.52
-9107.45
-9107.58
-9107.93
-9108.49
-9109.24
-9110.17
-9111.26
-9112.49
-9113.8
-9115.18
-9116.57
-9117.93
-9119.21
-9120.37
-9121.36
-9122.14
-9122.68
-9122.96
-9122.96
-9122.66
-9122.09
-9121.24
-9120.16
-9118.89
-9117.48
-9115.99
-9114.49
-9113.04
-9111.73
-9110.62
-9109.78
-9109.25
-9109.08
-9109.26
-9109.82
-9110.7
-9111.88
-9113.27
-9114.79
-9116.35
-9117.83
-9119.14
-9120.18
-9120.87
-9121.15
-9121.01
-9120.44
-9119.49
-9118.23
-9116.77
-9115.21
-9113.71
-9112.39
-9111.38
-9110.76
-9110.61
-9110.94
-9111.72
-9112.88
-9114.31
-9115.84
-9117.34
-9118.62
-9119.55
-9120.03
-9119.99
-9119.45
-9118.46
-9117.16
-9115.7
-9114.27
-9113.07
-9112.25
-9111.91
-9112.09
-9112.77
-9113.82
-9115.04
-9116.44
-9117.48
-9118.19
-9118.42
-9118.15
-9117.43
-9116.41
-9115.28
-9114.26
-9113.55
-9113.29
-9113.51
-9114.17
-9115.11
-9116.12
-9116.97
-9117.46
-9117.47
-9117.01
-9116.18
-9115.21
-9114.35
-9113.84
-9256.18
-9256.19
-9256.19
-9256.2
-9256.21
-9256.23
-9256.21
-9256.25
-9297.96
-9297.85
-9297.71
-9297.52
-9297.27
-9296.97
-9296.63
-9296.27
-9295.89
-9295.5
-9295.11
-9294.73
-9294.37
-9294.03
-9293.72
-9293.45
-9293.22
-9293.05
-9292.93
-9292.88
-9292.89
-9292.98
-9293.13
-9293.37
-9293.68
-9294.07
-9294.54
-9295.08
-9295.71
-9296.4
-9297.16
-9297.98
-9298.86
-9299.79
-9300.77
-9301.77
-9302.8
-9303.84
-9304.87
-9305.9
-9306.9
-9307.86
-9308.78
-9309.62
-9310.39
-9311.06
-9311.63
-9312.08
-9312.41
-9312.6
-9312.65
-9312.56
-9312.32
-9311.93
-9311.39
-9310.71
-9309.91
-9308.97
-9307.93
-9306.8
-9305.6
-9304.36
-9303.07
-9301.8
-9300.56
-9299.37
-9298.27
-9297.29
-9296.44
-9295.76
-9295.26
-9294.97
-9294.89
-9295.04
-9295.42
-9296.02
-9296.84
-9297.85
-9299.03
-9300.35
-9301.77
-9303.26
-9304.76
-9306.22
-9307.61
-9308.85
-9309.92
-9310.76
-9311.35
-9311.64
-9311.63
-9311.31
-9310.69
-9309.77
-9308.6
-9307.23
-9305.7
-9304.09
-9302.47
-9300.91
-9299.5
-9298.3
-9297.39
-9296.83
-9296.64
-9296.85
-9297.45
-9298.41
-9299.69
-9301.19
-9302.84
-9304.53
-9306.13
-9307.54
-9308.66
-9309.41
-9309.71
-9309.55
-9308.93
-9307.9
-9306.53
-9304.94
-9303.26
-9301.64
-9300.22
-9299.12
-9298.46
-9298.3
-9298.66
-9299.51
-9300.77
-9302.31
-9303.97
-9305.58
-9306.96
-9307.97
-9308.48
-9308.43
-9307.84
-9306.77
-9305.35
-9303.78
-9302.24
-9300.95
-9300.06
-9299.7
-9299.91
-9300.65
-9301.79
-9303.12
-9304.61
-9305.73
-9306.5
-9306.75
-9306.44
-9305.66
-9304.55
-9303.34
-9302.24
-9301.47
-9301.19
-9301.44
-9302.15
-9303.17
-9304.26
-9305.18
-9305.71
-9305.72
-9305.21
-9304.32
-9303.27
-9302.34
-9301.79
-9418.73
-9418.74
-9418.74
-9418.75
-9418.76
-9418.77
-9418.77
-9418.79
-9463.86
-9463.77
-9463.63
-9463.44
-9463.19
-9462.89
-9462.55
-9462.18
-9461.8
-9461.4