/*--------------------------------*- C++ -*----------------------------------*\
  =========                 |
  \\      /  F ield         | OpenFOAM: The Open Source CFD Toolbox
   \\    /   O peration     | Website:  https://openfoam.org
    \\  /    A nd           | Version:  12
     \\/     M anipulation  |
\*---------------------------------------------------------------------------*/
FoamFile
{
    format      ascii;
    class       volScalarField;
    location    "16";
    object      p_rgh;
}
// * * * * * * * * * * * * * * * * * * * * * * * * * * * * * * * * * * * * * //

dimensions      [1 -1 -2 0 0 0 0];

internalField   nonuniform List<scalar> 
3829
(
-3.91649
-3.91521
-3.91263
-3.90867
-3.90327
-3.89637
-3.88789
-3.87773
-3.8658
-3.85198
-3.83617
-3.81825
-3.79807
-3.77551
-3.75044
-3.72272
-3.69221
-3.6588
-3.62237
-3.58282
-3.54006
-3.49402
-3.44466
-3.39196
-3.33591
-3.27657
-3.21398
-3.14825
-3.0795
-3.00789
-2.93361
-2.85689
-2.77796
-2.69711
-2.61463
-2.53083
-2.44607
-2.36069
-2.27504
-2.18951
-2.10447
-2.02034
-1.93752
-1.85644
-1.77784
-1.70188
-1.6289
-1.55921
-1.49311
-1.43084
-1.37264
-1.31867
-1.26906
-1.22391
-1.18325
-1.14709
-1.1154
-1.0881
-1.06507
-1.04613
-1.03104
-1.01951
-1.01119
-1.00568
-1.00252
-1.00121
-1.00123
-1.00208
-1.00298
-1.00334
-1.00256
-1.00003
-0.995136
-0.987276
-0.975896
-0.960496
-0.940636
-0.915964
-0.886264
-0.850065
-0.808132
-0.760658
-0.707902
-0.650182
-0.587907
-0.521573
-0.451846
-0.379546
-0.305583
-0.231008
-0.157024
-0.0848105
-0.0156537
0.0491598
0.108339
0.160639
0.204905
0.240103
0.265356
0.280043
0.283799
0.275602
0.255954
0.225464
0.184889
0.135219
0.0777605
0.0141313
-0.0537724
-0.123874
-0.193791
-0.261232
-0.323829
-0.379288
-0.425484
-0.460593
-0.483176
-0.492308
-0.484088
-0.461186
-0.424503
-0.37527
-0.315142
-0.246308
-0.171441
-0.0923521
-0.0160527
0.0554788
0.118855
0.170934
0.209009
0.231124
0.236168
0.222966
0.192941
0.147943
0.0905922
0.0244615
-0.0470968
-0.117099
-0.181645
-0.236195
-0.276792
-0.300421
-0.305437
-0.290628
-0.258032
-0.210652
-0.15283
-0.0719113
-0.00787659
0.0508479
0.0979963
0.128173
0.13769
0.124837
0.0893726
0.0345587
-0.0349729
-0.112715
-0.191373
-0.261841
-0.317102
-0.350788
-0.358808
-0.339939
-0.295911
-0.231685
-0.154347
-0.0700316
0.00455853
0.0636736
0.100604
0.111952
0.0936434
0.0532889
-0.00282984
-0.0662098
-0.129293
-0.176464
-0.203471
-0.207338
-0.184626
-0.144612
-0.0949442
-0.0448726
-0.0059473
0.0151037
0.0142227
-0.00848829
-0.0452883
-0.0992863
-0.139635
-0.166835
-0.174127
-0.159436
-0.126866
-0.0860311
-0.0487057
-0.0263251
-4.03109
-4.03023
-4.02847
-4.02575
-4.02196
-4.01701
-4.01075
-4.00305
-3.99372
-3.98258
-3.96942
-3.95403
-3.9362
-3.91573
-3.89241
-3.86601
-3.8363
-3.80305
-3.76605
-3.72509
-3.68004
-3.63074
-3.57713
-3.51916
-3.45683
-3.3902
-3.31938
-3.24452
-3.16581
-3.08348
-2.99776
-2.90894
-2.81737
-2.72342
-2.62753
-2.53013
-2.43169
-2.33268
-2.2336
-2.13491
-2.03705
-1.9404
-1.84518
-1.75472
-1.66768
-1.58452
-1.50557
-1.43114
-1.36151
-1.29693
-1.2376
-1.18369
-1.13532
-1.09256
-1.05546
-1.02398
-0.998053
-0.977545
-0.962266
-0.951964
-0.94632
-0.944939
-0.947354
-0.953034
-0.961379
-0.97174
-0.983414
-0.996685
-1.00881
-1.02003
-1.02955
-1.03656
-1.0403
-1.04001
-1.035
-1.02462
-1.00833
-0.985665
-0.956212
-0.919424
-0.875374
-0.824201
-0.76613
-0.701516
-0.630862
-0.55483
-0.474277
-0.390255
-0.303908
-0.216437
-0.129519
-0.0445394
0.0369105
0.113243
0.182867
0.244222
0.29589
0.336571
0.365143
0.380773
0.382879
0.370865
0.345121
0.306222
0.255033
0.192799
0.121175
0.042169
-0.0418817
-0.128441
-0.214515
-0.297318
-0.37393
-0.441521
-0.497467
-0.539501
-0.565784
-0.574917
-0.56513
-0.537347
-0.492516
-0.43214
-0.358465
-0.274562
-0.184205
-0.0825927
0.00910827
0.0955384
0.172091
0.234701
0.279929
0.305284
0.309114
0.291066
0.252376
0.195214
0.122952
0.0398455
-0.0503362
-0.137404
-0.217055
-0.283932
-0.333205
-0.361159
-0.365363
-0.345291
-0.302662
-0.240756
-0.164314
-0.077167
0.00674716
0.0822102
0.142349
0.180966
0.193668
0.178234
0.135357
0.068415
-0.0166682
-0.111856
-0.208664
-0.294679
-0.361963
-0.402927
-0.412498
-0.38841
-0.334219
-0.255928
-0.16191
-0.057532
0.0316526
0.100909
0.142475
0.151881
0.128397
0.0776137
0.00845607
-0.0667544
-0.150971
-0.20436
-0.234543
-0.236275
-0.207437
-0.157149
-0.0950972
-0.032546
0.015135
0.0400241
0.0371971
0.00770848
-0.0406878
-0.100597
-0.152648
-0.186482
-0.194998
-0.176029
-0.134485
-0.0828163
-0.0358916
-0.00782113
-4.21418
-4.21449
-4.21509
-4.2159
-4.2168
-4.21762
-4.21813
-4.21806
-4.21708
-4.21486
-4.21105
-4.20519
-4.19676
-4.18521
-4.16999
-4.15055
-4.12637
-4.09696
-4.06187
-4.02071
-3.97317
-3.91901
-3.85804
-3.79021
-3.71552
-3.63408
-3.54611
-3.4519
-3.35186
-3.24646
-3.1363
-3.02201
-2.90427
-2.78377
-2.66121
-2.53728
-2.41272
-2.28829
-2.16475
-2.0429
-1.92357
-1.80765
-1.6963
-1.5871
-1.48257
-1.38392
-1.29163
-1.20616
-1.12788
-1.0571
-0.994052
-0.938925
-0.891834
-0.852826
-0.821895
-0.798958
-0.783864
-0.776346
-0.776037
-0.782462
-0.795077
-0.813246
-0.836267
-0.863368
-0.893694
-0.926341
-0.960347
-0.994707
-1.0283
-1.06007
-1.08892
-1.1138
-1.13362
-1.1474
-1.15418
-1.15309
-1.14339
-1.1244
-1.09578
-1.05707
-1.00813
-0.949082
-0.880218
-0.801987
-0.715078
-0.620446
-0.519291
-0.413048
-0.303303
-0.191309
-0.0800874
0.0288738
0.133417
0.231361
0.320557
0.398896
0.464457
0.515436
0.55032
0.567811
0.566898
0.547514
0.51003
0.455098
0.383855
0.298044
0.199919
0.0921952
-0.0219887
-0.139292
-0.255476
-0.366858
-0.469542
-0.559704
-0.633867
-0.688909
-0.722394
-0.732525
-0.718451
-0.680309
-0.619118
-0.536832
-0.436641
-0.322572
-0.199231
-0.0697791
0.0545766
0.170551
0.272386
0.354772
0.413238
0.444215
0.445862
0.418084
0.362478
0.282278
0.182605
0.0700678
-0.0616946
-0.178211
-0.285312
-0.374919
-0.440111
-0.475856
-0.478761
-0.448766
-0.387833
-0.300662
-0.194401
-0.0765783
0.0392649
0.143737
0.227069
0.280694
0.298741
0.278467
0.221147
0.131222
0.0170184
-0.110598
-0.242026
-0.356542
-0.445674
-0.499826
-0.513
-0.477768
-0.403998
-0.300042
-0.177733
-0.0295166
0.0838407
0.171304
0.221569
0.228412
0.193213
0.12145
0.0253252
-0.0803275
-0.181862
-0.254949
-0.292689
-0.289184
-0.249814
-0.18026
-0.0950561
-0.00809522
0.0556165
0.0873972
0.081026
0.0391426
-0.0281522
-0.107947
-0.178829
-0.224048
-0.234352
-0.207381
-0.148484
-0.0763819
-0.0114127
0.0273211
-4.36082
-4.36404
-4.37049
-4.38011
-4.39271
-4.40798
-4.42553
-4.44481
-4.46511
-4.48553
-4.50501
-4.52244
-4.53667
-4.54653
-4.55091
-4.54878
-4.53922
-4.52128
-4.49409
-4.45687
-4.40893
-4.34975
-4.279
-4.19651
-4.10239
-3.99697
-3.88085
-3.75485
-3.61997
-3.47723
-3.32757
-3.17202
-3.01176
-2.84804
-2.6821
-2.51519
-2.34854
-2.1833
-2.02054
-1.86124
-1.70628
-1.55629
-1.41175
-1.27255
-1.14773
-1.03351
-0.929412
-0.835518
-0.752021
-0.679146
-0.617091
-0.566016
-0.526019
-0.497114
-0.479233
-0.472177
-0.475641
-0.489211
-0.51236
-0.544419
-0.584606
-0.632012
-0.685633
-0.744345
-0.806942
-0.872137
-0.93856
-1.00479
-1.06935
-1.13073
-1.18743
-1.23798
-1.28087
-1.31477
-1.33835
-1.35039
-1.34986
-1.33592
-1.30788
-1.26578
-1.20919
-1.13813
-1.05294
-0.954281
-0.843195
-0.721031
-0.589476
-0.450514
-0.30636
-0.159297
-0.0124622
0.131546
0.269715
0.399104
0.516704
0.619703
0.705449
0.771508
0.81586
0.836749
0.830898
0.80049
0.745664
0.667278
0.566922
0.446988
0.310583
0.161419
0.00373549
-0.158265
-0.317815
-0.470325
-0.610454
-0.73307
-0.83331
-0.907123
-0.950958
-0.962515
-0.941422
-0.887396
-0.801705
-0.687271
-0.54848
-0.390974
-0.221356
-0.0462586
0.123687
0.281597
0.419542
0.530353
0.607767
0.647056
0.644409
0.601292
0.519955
0.405096
0.263901
0.105182
-0.0749461
-0.237504
-0.385765
-0.50876
-0.597105
-0.643709
-0.644694
-0.59988
-0.512014
-0.388022
-0.238204
-0.0730734
0.0890538
0.23521
0.351722
0.426808
0.452237
0.42421
0.34507
0.221285
0.0650068
-0.107917
-0.293222
-0.446419
-0.565942
-0.638123
-0.658287
-0.603658
-0.501157
-0.359514
-0.196255
0.010769
0.159006
0.273198
0.336361
0.339794
0.286365
0.183493
0.0484344
-0.0982486
-0.232557
-0.330889
-0.379238
-0.370647
-0.311835
-0.213293
-0.0957472
0.0306685
0.115522
0.156771
0.145054
0.0848639
-0.00997
-0.12022
-0.218149
-0.279314
-0.291605
-0.253414
-0.168165
-0.0664037
0.0247689
0.0790396
-4.41742
-4.42663
-4.4452
-4.47304
-4.50992
-4.55538
-4.60885
-4.6691
-4.7347
-4.80372
-4.87416
-4.94367
-5.00986
-5.07001
-5.12132
-5.16089
-5.18599
-5.19418
-5.18357
-5.15308
-5.10233
-5.03129
-4.94021
-4.82946
-4.69965
-4.55171
-4.38715
-4.20767
-4.01531
-3.81184
-3.59917
-3.37946
-3.15487
-2.92753
-2.69945
-2.47254
-2.24857
-2.02924
-1.81607
-1.61053
-1.41411
-1.22836
-1.05486
-0.895694
-0.742715
-0.603123
-0.47801
-0.368028
-0.273571
-0.194861
-0.132036
-0.0851265
-0.0540634
-0.0386858
-0.0386832
-0.0535797
-0.0827738
-0.125491
-0.180835
-0.247792
-0.325214
-0.411812
-0.506183
-0.606775
-0.711936
-0.819895
-0.928793
-1.03668
-1.14155
-1.24134
-1.33405
-1.41766
-1.49017
-1.54973
-1.59457
-1.62313
-1.63408
-1.62623
-1.59859
-1.55102
-1.48323
-1.39529
-1.28772
-1.16147
-1.01801
-0.859177
-0.687273
-0.505026
-0.315466
-0.121952
0.0717108
0.261681
0.443955
0.614473
0.769201
0.904318
1.01628
1.1019
1.15854
1.18405
1.17163
1.1266
1.049
0.939904
0.801494
0.637044
0.450778
0.247855
0.0342549
-0.187897
-0.403157
-0.608834
-0.797519
-0.96209
-1.09609
-1.19376
-1.25084
-1.26373
-1.23293
-1.15735
-1.03896
-0.881887
-0.692325
-0.478012
-0.247798
-0.0116533
0.217425
0.429648
0.614251
0.761581
0.863928
0.915322
0.904234
0.839432
0.723435
0.562419
0.365872
0.145198
-0.0938911
-0.317713
-0.520221
-0.686989
-0.805442
-0.865911
-0.863701
-0.798557
-0.67463
-0.50168
-0.293949
-0.0664896
0.156636
0.357285
0.516861
0.619335
0.653794
0.61492
0.506329
0.337297
0.124276
-0.112486
-0.35518
-0.562998
-0.721885
-0.81273
-0.821627
-0.760359
-0.623221
-0.43062
-0.206795
0.0549959
0.25562
0.406352
0.4863
0.485135
0.406725
0.26253
0.0764036
-0.123569
-0.302637
-0.432843
-0.494009
-0.477698
-0.392092
-0.254241
-0.0925257
0.0808733
0.194387
0.2481
0.229311
0.144377
0.0130371
-0.137772
-0.270989
-0.352559
-0.366147
-0.309112
-0.192567
-0.0525428
0.0729917
0.147662
-4.09475
-4.11486
-4.15525
-4.21534
-4.29398
-4.38873
-4.49719
-4.61621
-4.74253
-4.8724
-5.00241
-5.12898
-5.24898
-5.35964
-5.4589
-5.54548
-5.61903
-5.6806
-5.72975
-5.7637
-5.77466
-5.75523
-5.69858
-5.60006
-5.45802
-5.27445
-5.05384
-4.80175
-4.52468
-4.22896
-3.92084
-3.60528
-3.2865
-2.96804
-2.65303
-2.34419
-2.04392
-1.75426
-1.477
-1.2137
-0.965572
-0.733392
-0.517679
-0.318704
-0.13563
0.0206702
0.154178
0.267352
0.36061
0.433869
0.486969
0.519838
0.532566
0.525408
0.498787
0.453288
0.38969
0.30898
0.212321
0.101057
-0.023286
-0.158986
-0.304161
-0.456744
-0.614553
-0.775211
-0.936289
-1.09523
-1.24939
-1.39604
-1.53253
-1.65622
-1.76455
-1.85505
-1.92546
-1.97363
-1.99783
-1.99641
-1.96788
-1.91293
-1.83066
-1.72117
-1.58525
-1.42428
-1.24024
-1.03559
-0.813439
-0.577402
-0.331546
-0.0802734
0.171252
0.418019
0.654645
0.875695
1.07591
1.25021
1.39394
1.50303
1.57423
1.60524
1.58468
1.5219
1.41653
1.26988
1.08482
0.865672
0.617993
0.348524
0.0649391
-0.226328
-0.511066
-0.782309
-1.0305
-1.24629
-1.42127
-1.54802
-1.62051
-1.63499
-1.59112
-1.48812
-1.32868
-1.11862
-0.866101
-0.581407
-0.276589
0.0347748
0.336539
0.615026
0.855957
1.04698
1.1785
1.24527
1.22166
1.12985
0.971028
0.752949
0.488053
0.192009
-0.122902
-0.421343
-0.690286
-0.910461
-1.06525
-1.14243
-1.13519
-1.04395
-0.874567
-0.640517
-0.360737
-0.0560182
0.242476
0.510085
0.72227
0.857842
0.902307
0.849698
0.703979
0.478531
0.195346
-0.118785
-0.434661
-0.708205
-0.915618
-1.03214
-1.04231
-0.955515
-0.771359
-0.514507
-0.215792
0.111277
0.375731
0.570913
0.670819
0.663246
0.5529
0.357128
0.107834
-0.157893
-0.392279
-0.560688
-0.636415
-0.609307
-0.489411
-0.301591
-0.0817349
0.140239
0.292112
0.361295
0.33324
0.217049
0.0401418
-0.160958
-0.33753
-0.443989
-0.458415
-0.373881
-0.222055
-0.0348196
0.133309
0.23323
-3.45582
-3.50474
-3.60282
-3.74794
-3.93908
-4.17366
-4.44842
-4.75649
-5.0896
-5.43624
-5.78708
-6.13932
-6.48484
-6.81549
-7.12404
-7.40359
-7.64692
-7.8669
-8.03839
-8.12551
-8.06746
-7.89181
-7.63581
-7.32065
-6.9611
-6.56376
-6.13642
-5.68005
-5.21627
-4.74998
-4.28498
-3.82457
-3.37296
-2.93358
-2.50927
-2.10227
-1.71438
-1.34702
-1.0016
-0.679028
-0.380404
-0.106784
0.140788
0.361319
0.552994
0.727967
0.878212
1.00126
1.09701
1.1657
1.20765
1.22321
1.21289
1.17732
1.11728
1.03373
0.9278
0.800798
0.654253
0.489887
0.309656
0.115773
-0.0893692
-0.303122
-0.522786
-0.745178
-0.967267
-1.18576
-1.39725
-1.59831
-1.78559
-1.95571
-2.10528
-2.23123
-2.33071
-2.40104
-2.43978
-2.44494
-2.4153
-2.35038
-2.24978
-2.11382
-1.94359
-1.74092
-1.50835
-1.24909
-0.967147
-0.66723
-0.354605
-0.0349639
0.284976
0.598808
0.899463
1.18001
1.43361
1.65366
1.83408
1.96964
2.05638
2.09208
2.06338
1.98084
1.84346
1.653
1.41324
1.12973
0.809786
0.462149
0.0967544
-0.276225
-0.64213
-0.99012
-1.30776
-1.58335
-1.80586
-1.96613
-2.05652
-2.07188
-2.0118
-1.87554
-1.66714
-1.39413
-1.06702
-0.699235
-0.306317
0.0938196
0.480808
0.836671
1.14299
1.38333
1.54416
1.61783
1.5891
1.46862
1.25995
0.974268
0.628576
0.243293
-0.162351
-0.548386
-0.895225
-1.17776
-1.37476
-1.47079
-1.45677
-1.33357
-1.10962
-0.802658
-0.43739
-0.040742
0.346573
0.693023
0.966658
1.1408
1.19711
1.12631
0.935817
0.6432
0.277045
-0.127965
-0.531222
-0.881525
-1.14568
-1.29245
-1.30395
-1.18506
-0.943711
-0.610573
-0.22516
0.182485
0.519792
0.765899
0.888143
0.871739
0.722712
0.465498
0.141493
-0.20195
-0.501227
-0.713606
-0.805099
-0.763834
-0.602435
-0.354917
-0.0671482
0.213012
0.408797
0.495539
0.455889
0.301916
0.0706636
-0.190017
-0.417508
-0.553192
-0.569066
-0.458868
-0.257676
-0.0134316
0.205306
0.335156
-1.66912
-1.77227
-1.98894
-2.2679
-2.61887
-3.04148
-3.54158
-4.09369
-4.69496
-5.31682
-5.94284
-6.53871
-7.09744
-7.60341
-8.04264
-8.402
-8.67069
-8.81308
-8.83515
-8.74692
-8.63421
-8.51395
-8.38791
-8.19228
-7.89745
-7.48613
-6.97907
-6.38703
-5.76656
-5.12795
-4.49691
-3.87967
-3.28422
-2.71408
-2.17239
-1.66177
-1.18409
-0.740382
-0.330721
0.0450635
0.387275
0.696749
0.974039
1.22032
1.43788
1.63103
1.76812
1.87707
1.95729
2.00765
2.02753
2.01675
1.9755
1.90427
1.80384
1.67526
1.51985
1.33924
1.13526
0.910064
0.666029
0.405899
0.132642
-0.150452
-0.440087
-0.732219
-1.0231
-1.30868
-1.58472
-1.84691
-2.09104
-2.3129
-2.50839
-2.67373
-2.80529
-2.89993
-2.95479
-2.96789
-2.93448
-2.85694
-2.73454
-2.56765
-2.35767
-2.10687
-1.81847
-1.49654
-1.14608
-0.773055
-0.384068
0.0135589
0.411603
0.801812
1.17537
1.52357
1.83774
2.10948
2.33107
2.49555
2.59711
2.63134
2.59964
2.49695
2.32395
2.08383
1.7818
1.42513
1.02308
0.586743
0.128704
-0.337625
-0.795262
-1.22981
-1.62591
-1.96869
-2.24462
-2.44204
-2.55191
-2.5677
-2.48829
-2.31361
-2.04899
-1.70377
-1.29143
-0.829063
-0.335748
0.165275
0.64901
1.0927
1.47291
1.76832
1.96041
2.03219
2.00555
1.85279
1.58657
1.22333
0.784985
0.297563
-0.212229
-0.697874
-1.13292
-1.48591
-1.73026
-1.84656
-1.82379
-1.66322
-1.37627
-0.985425
-0.522308
-0.020106
0.46813
0.90377
1.24686
1.46381
1.53305
1.44036
1.19815
0.828543
0.367562
-0.14073
-0.643678
-1.08073
-1.40858
-1.58884
-1.60013
-1.44438
-1.13713
-0.716901
-0.233333
0.26758
0.686242
0.988872
1.13501
1.10719
0.913223
0.585522
0.176316
-0.25589
-0.628396
-0.889609
-0.997692
-0.938807
-0.72925
-0.413244
-0.0486515
0.298714
0.543398
0.649148
0.595313
0.39755
0.103867
-0.224831
-0.510023
-0.678767
-0.696072
-0.555897
-0.298281
0.0114578
0.288136
0.452155
0.527901
0.407266
0.174733
-0.232365
-0.807857
-1.53567
-2.42975
-3.4481
-4.52228
-5.59887
-6.67143
-7.71222
-8.68546
-9.5678
-10.3438
-11.0012
-11.5299
-11.9329
-12.2212
-12.4173
-12.4997
-12.405
-12.0595
-11.4798
-10.7278
-9.82423
-8.80718
-7.67587
-6.59853
-5.58268
-4.64198
-3.7716
-2.97315
-2.24472
-1.58178
-0.9786
-0.429474
0.0702555
0.523983
0.934127
1.3028
1.63105
1.91979
2.16918
2.37769
2.5415
2.69551
2.8089
2.88218
2.91667
2.9134
2.87315
2.79671
2.68494
2.53887
2.3598
2.14929
1.90923
1.64181
1.34958
1.03539
0.702549
0.354623
-0.00442542
-0.370422
-0.738802
-1.10483
-1.46359
-1.80991
-2.13857
-2.44447
-2.7225
-2.96768
-3.17538
-3.34131
-3.46152
-3.53311
-3.55343
-3.51532
-3.42317
-3.27609
-3.07448
-2.82003
-2.51552
-2.16493
-1.7733
-1.3468
-0.892736
-0.419209
0.0650446
0.549411
1.02401
1.47811
1.90101
2.28204
2.61094
2.87818
3.07502
3.1935
3.22548
3.19036
3.06427
2.85106
2.55553
2.18435
1.74674
1.25404
0.719875
0.159673
-0.409535
-0.967964
-1.49759
-1.97962
-2.39591
-2.73003
-2.96778
-3.09819
-3.11388
-3.01236
-2.79464
-2.46723
-2.04186
-1.53522
-0.967902
-0.363885
0.248462
0.838955
1.37936
1.841
2.19811
2.42898
2.51721
2.47221
2.27804
1.94603
1.49563
0.953938
0.353562
-0.271901
-0.867735
-1.4
-1.83023
-2.12587
-2.26314
-2.22998
-2.02727
-1.66974
-1.1853
-0.613396
0.00552313
0.60526
1.13924
1.55828
1.82137
1.90258
1.78596
1.48633
1.03109
0.465182
-0.157302
-0.770306
-1.30254
-1.69998
-1.91599
-1.92534
-1.72846
-1.34779
-0.83104
-0.239549
0.365057
0.872451
1.23615
1.40727
1.36536
1.12084
0.714829
0.211617
-0.319559
-0.771987
-1.08572
-1.21082
-1.13113
-0.867487
-0.475308
-0.0260063
0.395922
0.693748
0.819642
0.749106
0.502168
0.138944
-0.264927
-0.613623
-0.818617
-0.837059
-0.662731
-0.342843
0.0395839
0.38044
0.582309
4.94685
4.7467
4.33569
3.69326
2.77472
1.57541
0.0206516
-1.9955
-4.98952
-7.07854
-8.80565
-10.3126
-11.6214
-12.7404
-13.6844
-14.4644
-15.0895
-15.5554
-15.8863
-16.1105
-16.2263
-16.1332
-15.7581
-15.0091
-13.96
-12.6055
-11.0405
-8.15535
-6.65513
-5.26053
-4.09968
-3.08272
-2.18389
-1.38406
-0.667136
-0.023119
0.557005
1.07973
1.55008
1.97223
2.34921
2.6829
2.97449
3.22481
3.43418
3.60374
3.73627
3.82576
3.87495
3.88304
3.84962
3.77473
3.65877
3.50245
3.30682
3.07322
2.80343
2.49957
2.16419
1.80024
1.41107
1.00056
0.57293
0.132852
-0.314682
-0.764301
-1.21039
-1.64703
-2.06813
-2.46747
-2.83897
-3.17651
-3.47412
-3.72626
-3.92788
-4.07429
-4.16175
-4.18842
-4.1452
-4.03752
-3.86376
-3.62444
-3.32166
-2.95886
-2.54087
-2.07378
-1.56505
-1.02348
-0.458786
0.118878
0.696239
1.2617
1.80246
2.30572
2.75874
3.14929
3.46615
3.69912
3.83963
3.88105
3.82962
3.6739
3.41556
3.05955
2.61355
2.08849
1.49819
0.858867
0.18901
-0.490759
-1.15722
-1.78866
-2.36251
-2.85721
-3.25321
-3.53369
-3.68542
-3.70005
-3.57415
-3.30949
-2.91404
-2.4021
-1.79363
-1.11322
-0.390174
0.341964
1.04713
1.69133
2.24046
2.66399
2.93672
3.0411
2.97626
2.73563
2.33126
1.78592
1.13239
0.409735
-0.340585
-1.05488
-1.69163
-2.20448
-2.55451
-2.71361
-2.66812
-2.41898
-1.98433
-1.39833
-0.708563
0.0355835
0.755571
1.3953
1.89546
2.2072
2.3006
2.15703
1.79504
1.24706
0.567738
-0.177545
-0.908927
-1.54303
-2.01439
-2.2678
-2.27367
-2.03189
-1.57155
-0.950669
-0.243102
0.473112
1.07503
1.50324
1.69993
1.64147
1.34156
0.850834
0.246603
-0.392044
-0.929431
-1.2984
-1.44053
-1.33727
-1.0145
-0.539723
0.000502605
0.502854
0.857149
1.00384
0.914399
0.613791
0.17509
-0.309571
-0.726436
-0.970157
-0.989322
-0.777391
-0.390419
0.0704889
0.480566
0.723212
10.9312
10.6866
10.1818
9.36691
8.18331
6.56616
4.62386
1.98421
-2.23289
-5.52092
-8.4191
-10.9172
-13.0511
-14.8463
-16.3255
-17.5016
-18.3777
-18.9589
-19.2103
-19.0906
-18.5874
-17.7995
-16.827
-15.7587
-14.4293
-12.7613
-10.8128
-7.84138
-5.90788
-4.23816
-2.98321
-1.90006
-0.960397
-0.16248
0.540525
1.16357
1.72379
2.2291
2.68604
3.09783
3.46654
3.79307
4.07783
4.32027
4.52024
4.6771
4.78996
4.86475
4.89295
4.87458
4.80966
4.69829
4.5408
4.33782
4.09038
3.79988
3.46828
3.09794
2.69175
2.25307
1.78578
1.29436
0.783686
0.259191
-0.273325
-0.807597
-1.33707
-1.85486
-2.35381
-2.82667
-3.26631
-3.66562
-4.01758
-4.31572
-4.55388
-4.72632
-4.82773
-4.85221
-4.81089
-4.68829
-4.48635
-4.20687
-3.85271
-3.42809
-2.93875
-2.39189
-1.79631
-1.16242
-0.501641
0.174484
0.849687
1.51075
2.14263
2.73035
3.25903
3.7144
4.08344
4.35443
4.51779
4.56655
4.49996
4.3128
4.0064
3.58622
3.06125
2.4441
1.75097
1.00105
0.216109
-0.57968
-1.35946
-2.09749
-2.76741
-3.344
-3.80433
-4.12902
-4.30266
-4.31533
-4.16313
-3.84852
-3.38112
-2.77784
-2.06182
-1.26273
-0.414061
0.443977
1.26945
2.02257
2.66343
3.15644
3.47233
3.59116
3.5064
3.21629
2.7348
2.0888
1.317
0.464895
-0.417006
-1.25588
-2.00223
-2.60154
-3.00826
-3.18971
-3.1301
-2.831
-2.31417
-1.62041
-0.805834
0.0695148
0.916437
1.66719
2.25225
2.61387
2.71094
2.54646
2.11856
1.47224
0.673359
-0.201301
-1.05699
-1.79768
-2.346
-2.63771
-2.63867
-2.34896
-1.80416
-1.07334
-0.243906
0.589636
1.29015
1.78514
2.00748
1.93037
1.57121
0.990972
0.28127
-0.472655
-1.0977
-1.5235
-1.6825
-1.55338
-1.16752
-0.605243
0.0304783
0.617427
1.03051
1.19828
1.08813
0.730338
0.21164
-0.357951
-0.84633
-1.13049
-1.14994
-0.897805
-0.440073
0.103599
0.58662
0.872196
18.0004
17.8911
17.6801
17.3877
17.0939
16.8261
16.4607
16.051
-1.77122
-1.2641
-0.901315
-0.376858
0.191463
0.787133
1.36268
1.93639
2.46617
2.96639
3.43069
3.85917
4.2505
4.60417
4.91899
5.19367
5.42681
5.61703
5.76315
5.86445
5.91533
5.91849
5.87201
5.7748
5.62639
5.42675
5.17637
4.87622
4.5278
4.1332
3.69506
3.2166
2.70164
2.15454
1.58043
0.984862
0.374046
-0.245351
-0.866201
-1.48093
-2.08168
-2.66021
-3.20817
-3.7174
-4.17972
-4.58707
-4.93202
-5.2076
-5.40738
-5.52594
-5.55896
-5.50729
-5.36528
-5.13264
-4.81084
-4.40308
-3.91418
-3.35083
-2.72135
-2.03595
-1.3066
-0.546495
0.231074
1.00728
1.76692
2.49268
3.16737
3.77394
4.29599
4.71858
5.0284
5.21456
5.26905
5.18811
4.96871
4.61262
4.12605
3.51943
2.80724
2.00812
1.14425
0.240543
-0.674617
-1.57087
-2.41839
-3.18686
-3.84734
-4.37348
-4.74305
-4.93855
-4.94859
-4.76873
-4.40219
-3.86023
-3.16226
-2.33519
-1.41374
-0.435419
0.552308
1.50164
2.36682
3.10192
3.66602
4.02554
4.15772
4.05258
3.71102
3.14932
2.3988
1.50423
0.518273
-0.499398
-1.46687
-2.32607
-3.01418
-3.47886
-3.68265
-3.60748
-3.25585
-2.65345
-1.84759
-0.903949
0.107159
1.08495
1.94999
2.62229
3.03575
3.14675
2.94893
2.45117
1.70269
0.779797
-0.227887
-1.2117
-2.06184
-2.6888
-3.01909
-3.01392
-2.67406
-2.04151
-1.1968
-0.242047
0.712285
1.51375
2.07666
2.32436
2.22688
1.80564
1.13273
0.31611
-0.560739
-1.27347
-1.75674
-1.93226
-1.77559
-1.32385
-0.670701
0.0633147
0.737425
1.21056
1.39939
1.26716
0.849738
0.248004
-0.409166
-0.971058
-1.29663
-1.31594
-1.02187
-0.490911
0.138299
0.696611
1.02653
25.4789
25.4477
25.3923
25.3082
25.1676
24.8472
24.6363
24.3758
0.364733
0.727858
1.02798
1.41695
1.84858
2.34162
2.8035
3.27846
3.73833
4.18358
4.60778
5.00763
5.37888
5.71806
6.0219
6.28753
6.51201
6.69267
6.82689
6.91233
6.94718
6.92898
6.85629
6.72797
6.54333
6.30216
6.00482
5.65228
5.24609
4.78853
4.28253
3.73165
3.14016
2.51295
1.85578
1.17491
0.477302
-0.229465
-0.937378
-1.63788
-2.32206
-2.98061
-3.60408
-4.18323
-4.70882
-5.17172
-5.56359
-5.87661
-6.10367
-6.2388
-6.27741
-6.21723
-6.05516
-5.79074
-5.42546
-4.96286
-4.40841
-3.76972
-3.05621
-2.27955
-1.45329
-0.592411
0.288077
1.16664
2.02609
2.84688
3.60957
4.29486
4.88426
5.36085
5.70962
5.91835
5.97776
5.88261
5.63061
5.22408
4.67012
3.98057
3.17202
2.26551
1.28621
0.26234
-0.773647
-1.78762
-2.74572
-3.6136
-4.35861
-4.95093
-5.36541
-5.58245
-5.58925
-5.38092
-4.96135
-4.34348
-3.54915
-2.60948
-1.56371
-0.454218
0.664626
1.73941
2.71794
3.54817
4.18381
4.5869
4.73162
4.60567
4.21145
3.56784
2.71067
1.69094
0.569341
-0.586093
-1.68398
-2.65745
-3.43521
-3.95814
-4.18391
-4.09209
-3.68639
-2.99651
-2.07631
-1.00148
0.147925
1.25809
2.23873
2.99913
3.46477
3.58792
3.35682
2.78731
1.93454
0.885622
-0.256972
-1.37037
-2.33095
-3.03694
-3.40552
-3.39327
-3.00188
-2.27977
-1.31929
-0.237581
0.838749
1.74186
2.37279
2.64522
2.52611
2.041
1.27365
0.350761
-0.654583
-1.4533
-1.99399
-2.18553
-2.00019
-1.48097
-0.735126
0.0983657
0.860629
1.39414
1.60368
1.44847
0.970053
0.283568
-0.462195
-1.09839
-1.46567
-1.48448
-1.14752
-0.542109
0.17396
0.808614
1.18354
31.8394
31.796
31.699
31.5342
31.3192
31.1352
31.2363
31.1796
2.2357
2.44599
2.64538
2.92736
3.26152
3.67535
4.0651
4.48323
4.89903
5.31079
5.71025
6.09207
6.45063
6.78097
7.07838
7.33858
7.55753
7.73146
7.85686
7.93054
7.94969
7.91171
7.81459
7.65682
7.43742
7.15605
6.81297
6.40914
5.94622
5.4267
4.85377
4.23138
3.56423
2.85777
2.11838
1.35302
0.569443
-0.223927
-1.01815
-1.80369
-2.57059
-3.30848
-4.00679
-4.65521
-5.24342
-5.76125
-6.19943
-6.54929
-6.80297
-6.9539
-6.99689
-6.92848
-6.7462
-6.4497
-6.04064
-5.52293
-4.90276
-4.18858
-3.39098
-2.52306
-1.6
-0.638566
0.344873
1.32548
2.28442
3.19993
4.05028
4.81394
5.4703
6.00054
6.38791
6.61871
6.68256
6.57323
6.28862
5.83167
5.21034
4.43791
3.53316
2.51948
1.42508
0.281489
-0.874897
-2.00609
-3.07421
-4.04094
-4.86979
-5.52768
-5.98653
-6.22457
-6.22765
-5.99049
-5.51766
-4.82362
-3.93295
-2.88082
-1.71072
-0.470657
0.778909
1.97875
3.07017
3.99504
4.70165
5.14775
5.30423
5.15726
4.70997
3.98407
3.01977
1.87463
0.617625
-0.675422
-1.9035
-2.9909
-3.85786
-4.4384
-4.6856
-4.57635
-4.116
-3.33807
-2.30316
-1.09695
0.190748
1.43292
2.52873
3.37672
3.89394
4.02786
3.76361
3.12181
2.16431
0.989333
-0.287863
-1.53034
-2.60073
-3.38501
-3.79108
-3.77106
-3.32758
-2.51557
-1.43907
-0.230833
0.966766
1.97079
2.6689
2.96517
2.82359
2.27382
1.4115
0.386826
-0.754278
-1.63386
-2.23138
-2.43839
-2.22378
-1.63663
-0.797703
0.134927
0.98492
1.57824
1.80794
1.62928
1.08953
0.317915
-0.516146
-1.22621
-1.63494
-1.65292
-1.27286
-0.592925
0.209972
0.920884
1.34071
37.6374
37.6244
37.6048
37.5945
37.6403
37.7682
37.567
37.4638
3.65625
3.79585
3.96017
4.18596
4.47584
4.81776
5.17275
5.55464
5.94402
6.33643
6.72277
7.09628
7.45013
7.77812
8.07445
8.33375
8.55103
8.72163
8.84121
8.90582
8.91193
8.85646
8.73702
8.55177
8.29952
7.97976
7.59269
7.13931
6.62139
6.04163
5.40352
4.7114
3.97042
3.18656
2.36681
1.51882
0.651151
-0.226958
-1.10566
-1.97444
-2.82233
-3.63788
-4.40945
-5.12565
-5.77506
-6.34653
-6.82982
-7.21547
-7.49485
-7.66081
-7.70754
-7.63081
-7.42839
-7.10002
-6.64756
-6.07534
-5.39021
-4.60149
-3.72091
-2.76299
-1.74457
-0.684241
0.400884
1.48179
2.53853
3.54713
4.48364
5.32429
6.04639
6.62919
7.05432
7.30656
7.3745
7.25105
6.93422
6.42749
5.73976
4.88571
3.88613
2.76698
1.55933
0.298088
-0.976663
-2.22303
-3.39917
-4.46286
-5.37386
-6.0959
-6.59799
-6.85628
-6.8553
-6.58939
-6.06385
-5.29445
-4.30879
-3.14586
-1.85316
-0.484993
0.893282
2.21607
3.4184
4.43619
5.21237
5.70039
5.86788
5.69989
5.19996
4.39254
3.32229
2.05325
0.662756
-0.765839
-2.12209
-3.32155
-4.27604
-4.91286
-5.18079
-5.05363
-4.53882
-3.67356
-2.52528
-1.18929
0.234777
1.60675
2.81579
3.7497
4.3172
4.46086
4.16366
3.45022
2.38922
1.08939
-0.319741
-1.68922
-2.86739
-3.72825
-4.17062
-4.14232
-3.64698
-2.746
-1.55473
-0.222204
1.09427
2.19725
2.96088
3.27991
3.11546
2.50123
1.54424
0.423818
-0.85785
-1.81203
-2.46558
-2.68737
-2.44341
-1.7889
-0.857855
0.172416
1.10838
1.76024
2.00931
1.80713
1.20664
0.350867
-0.570324
-1.35266
-1.80203
-1.81893
-1.39618
-0.642722
0.245786
1.03183
1.49585
42.8075
42.8016
42.7918
42.7776
42.7611
42.7089
42.6963
42.6776
4.7523
4.86383
5.01242
5.21209
5.47483
5.78955
6.12695
6.49311
6.87177
7.25774
7.6415
8.01546
8.37187
8.70357
9.00387
9.26656
9.48586
9.65639
9.77307
9.83129
9.82686
9.75618
9.61655
9.40592
9.1229
8.76685
8.33792
7.83716
7.26645
6.62874
5.92784
5.16847
4.35624
3.49761
2.60018
1.67232
0.723286
-0.236808
-1.19727
-2.14662
-3.07292
-3.96366
-4.80615
-5.58792
-6.29651
-6.91975
-7.44653
-7.86657
-8.17053
-8.35071
-8.40078
-8.3156
-8.09332
-7.73373
-7.23883
-6.6134
-5.86488
-5.00347
-4.04201
-2.99642
-1.88521
-0.728818
0.455595
1.63379
2.78552
3.88457
4.90475
5.82015
6.60601
7.23976
7.70138
7.97427
8.04605
7.90862
7.56029
7.005
6.25265
5.31919
4.22725
3.00554
1.68778
0.312314
-1.07743
-2.43563
-3.71658
-4.87431
-5.86488
-6.64893
-7.19273
-7.47035
-7.46512
-7.17093
-6.59377
-5.7509
-4.67268
-3.40186
-1.98983
-0.497392
1.00608
2.4483
3.75833
4.86631
5.70989
6.23834
6.41621
6.22735
5.67586
4.78876
3.61507
2.22517
0.704403
-0.855904
-2.33681
-3.64522
-4.68459
-5.37575
-5.66358
-5.5183
-4.94996
-3.99923
-2.74025
-1.27772
0.279309
1.77725
3.09633
4.11353
4.72953
4.88206
4.55238
3.76886
2.60683
1.18524
-0.35238
-1.84494
-3.12769
-4.06261
-4.53976
-4.50286
-3.9566
-2.96869
-1.66544
-0.211854
1.21944
2.41843
3.2453
3.58584
3.39853
2.72085
1.67017
0.447932
-0.950201
-1.98509
-2.69378
-2.92961
-2.65661
-1.93619
-0.915084
0.210185
1.22935
1.9379
2.20541
1.97997
1.32012
0.382136
-0.623947
-1.47609
-1.96495
-1.98057
-1.51609
-0.690949
0.280889
1.1401
1.64712
47.3995
47.3959
47.3895
47.3788
47.3693
47.3564
47.3702
47.3352
5.62776
5.7351
5.875
6.06445
6.31392
6.61699
6.94875
7.31153
7.69051
8.07972
8.46925
8.85076
9.2157
9.55611
9.86456
10.1342
10.3587
10.532
10.6483
10.7026
10.6899
10.6061
10.4484
10.2144
9.90282
9.51274
9.0443
8.49858
7.87765
7.1847
6.42386
5.60027
4.71994
3.78981
2.81805
1.81369
0.78674
-0.251889
-1.29068
-2.31727
-3.31871
-4.28154
-5.192
-6.03662
-6.80187
-7.47461
-8.04288
-8.49567
-8.82293
-9.01643
-9.06971
-8.97584
-8.73422
-8.3444
-7.80851
-7.13172
-6.32204
-5.3905
-4.35106
-3.22098
-2.0204
-0.771802
0.508614
1.78005
3.02308
4.20907
5.30968
6.29687
7.14394
7.82658
8.32311
8.61568
8.69111
8.53997
8.16114
7.55902
6.74443
5.73455
4.55375
3.23322
1.80951
0.3243
-1.17591
-2.6416
-4.02322
-5.27118
-6.33801
-7.18148
-7.76508
-8.06098
-8.05141
-7.72968
-7.10257
-6.18888
-5.02149
-3.64669
-2.11992
-0.507822
1.11591
2.67295
4.08646
5.28107
6.18925
6.75635
6.94396
6.73464
6.13322
5.16913
3.89559
2.38898
0.742486
-0.944303
-2.54523
-3.95845
-5.07928
-5.82237
-6.12924
-5.96582
-5.34548
-4.31209
-2.94606
-1.36129
0.323253
1.94247
3.36742
4.46453
5.12682
5.28744
4.9261
4.0748
2.81521
1.27614
-0.385206
-1.99576
-3.37898
-4.38482
-4.89499
-4.84935
-4.25364
-3.18178
-1.77046
-0.200104
1.34074
2.63204
3.51935
3.88008
3.67024
2.93091
1.7886
0.459511
-1.03044
-2.15135
-2.91374
-3.16276
-2.86141
-2.07723
-0.969085
0.247706
1.34643
2.10938
2.3943
2.14618
1.42897
0.411546
-0.676388
-1.59519
-2.12206
-2.13624
-1.63142
-0.737198
0.314918
1.24459
1.79298
51.4735
51.4708
51.4656
51.4565
51.4492
51.4381
51.4378
51.4172
6.34735