/*--------------------------------*- C++ -*----------------------------------*\
  =========                 |
  \\      /  F ield         | OpenFOAM: The Open Source CFD Toolbox
   \\    /   O peration     | Website:  https://openfoam.org
    \\  /    A nd           | Version:  12
     \\/     M anipulation  |
\*---------------------------------------------------------------------------*/
FoamFile
{
    format      ascii;
    class       surfaceScalarField;
    location    "16";
    object      phi;
}
// * * * * * * * * * * * * * * * * * * * * * * * * * * * * * * * * * * * * * //

dimensions      [1 0 -1 0 0 0 0];

internalField   nonuniform List<scalar> 
7429
(
0.000155389
-0.000155388
0.000316068
-0.000160678
0.000478799
-0.000162731
0.000643481
-0.000164682
0.00081013
-0.000166648
0.000978699
-0.000168569
0.00114912
-0.000170421
0.00132131
-0.000172188
0.00149519
-0.000173877
0.00167066
-0.000175475
0.00184764
-0.000176977
0.00202601
-0.000178372
0.00220576
-0.000179747
0.00238675
-0.000180989
0.00256897
-0.000182217
0.00275231
-0.000183346
0.00293676
-0.00018444
0.00312221
-0.000185454
0.00330863
-0.000186416
0.00349588
-0.000187255
0.00368387
-0.000187984
0.00387237
-0.000188503
0.00406117
-0.000188796
0.00424992
-0.000188758
0.00443825
-0.000188329
0.00462564
-0.000187384
0.0048115
-0.000185867
0.00499513
-0.000183629
0.00517571
-0.00018058
0.00535234
-0.00017663
0.00552405
-0.000171702
0.00568982
-0.00016577
0.00584857
-0.000158751
0.0059991
-0.000150536
0.00614027
-0.000141168
0.00627084
-0.000130567
0.00638958
-0.000118744
0.00649568
-0.000106101
0.00658844
-9.27612e-05
0.00666651
-7.80699e-05
0.00672815
-6.16328e-05
0.0067722
-4.40492e-05
0.00679737
-2.51757e-05
0.00680118
-3.80608e-06
0.00678089
2.02931e-05
0.00673579
4.50969e-05
0.00666476
7.10264e-05
0.00656681
9.79498e-05
0.00644119
0.000125618
0.00628734
0.000153856
0.00610502
0.00018232
0.00589416
0.000210863
0.00565519
0.000238968
0.00538838
0.000266805
0.00509495
0.000293436
0.00477561
0.000319335
0.00443215
0.000343465
0.00406559
0.000366557
0.00367839
0.000387196
0.00327217
0.000406221
0.00285013
0.000422042
0.00241492
0.000435205
0.00197006
0.000444863
0.0015193
0.000450758
0.00106662
0.000452686
0.000616421
0.000450195
0.000173192
0.000443229
-0.000258366
0.000431558
-0.000673116
0.00041475
-0.00106601
0.000392896
-0.00143233
0.000366313
-0.0017668
0.000334477
-0.00206481
0.000298007
-0.00232185
0.000257042
-0.00253391
0.000212058
-0.00269725
0.000163341
-0.00280919
0.00011194
-0.00286728
5.80922e-05
-0.0028685
1.21243e-06
-0.00280596
-6.25392e-05
-0.00268398
-0.000121974
-0.002505
-0.000178979
-0.00227207
-0.000232931
-0.00198823
-0.000283842
-0.0016579
-0.000330332
-0.00128571
-0.000372184
-0.000878455
-0.00040726
-0.000443175
-0.00043528
1.18507e-05
-0.000455026
0.000477348
-0.000465498
0.000943488
-0.000466139
0.00139995
-0.000456467
0.001836
-0.000436048
0.00224115
-0.000405149
0.00260488
-0.000363727
0.00291732
-0.000312438
0.0031695
-0.000252187
0.00335312
-0.000183619
0.00346265
-0.000109523
0.00349356
-3.09122e-05
0.00343166
6.18987e-05
0.00328298
0.000148682
0.00305153
0.000231449
0.00274243
0.0003091
0.00236208
0.000380351
0.00191927
0.000442805
0.00142521
0.000494056
0.000893231
0.000531983
0.000339121
0.00055411
-0.0002204
0.000559521
-0.000766889
0.000546489
-0.00128224
0.000515354
-0.00174803
0.000465791
-0.00214738
0.000399343
-0.00246469
0.000317311
-0.00268709
0.000222399
-0.00280546
0.000118377
-0.00281144
5.97703e-06
-0.0026944
-0.000117039
-0.00246617
-0.000228235
-0.00213597
-0.000330198
-0.00171661
-0.000419357
-0.00122491
-0.000491706
-0.000681206
-0.000543701
-0.000110524
-0.000570682
0.000460934
-0.000571458
0.00100427
-0.000543333
0.00149124
-0.000486979
0.0018964
-0.000405152
0.00219709
-0.000300689
0.00237613
-0.000179047
0.00242274
-4.66091e-05
0.00231863
0.00010411
0.00207748
0.000241155
0.00171455
0.000362925
0.00125017
0.000464377
0.000711399
0.000538776
0.00013235
0.000579049
-0.00045038
0.00058273
-0.000994716
0.000544337
-0.00146223
0.000467518
-0.00181721
0.000354977
-0.00203181
0.000214596
-0.00208803
5.62178e-05
-0.00196261
-0.000125416
-0.00167062
-0.00029199
-0.00123332
-0.000437296
-0.000680059
-0.000553264
-5.11965e-05
-0.000628863
0.000604474
-0.000655671
0.00123215
-0.000627675
0.00177869
-0.000546543
0.00219618
-0.000417488
0.00244673
-0.000250546
0.00250766
-6.09388e-05
0.00235631
0.000151357
0.00201612
0.000340187
0.00151864
0.000497478
0.000909133
0.000609511
0.000245488
0.000663645
-0.000405047
0.000650535
-0.000976249
0.000571201
-0.00140893
0.000432686
-0.00165967
0.000250736
-0.00170482
4.51516e-05
-0.00152835
-0.000176475
-0.00116649
-0.000361859
-0.00066363
-0.000502858
-8.17871e-05
-0.000581843
0.000505852
-0.000587639
0.00102385
-0.000517998
0.00140795
-0.000384104
0.0016124
-0.000204445
0.00161306
-6.60688e-07
0.00141213
0.000200926
0.0010519
0.000360229
0.000587893
0.00046401
9.14132e-05
0.00049648
-0.000360937
0.00045235
-0.000703575
0.000342638
-0.00089171
0.000188135
-0.000908173
1.64634e-05
-0.000757655
-0.000150518
-0.000488441
-0.000269214
-0.000159505
-0.000328937
0.000159405
-0.000318909
0.000401074
-0.000241669
0.000518215
-0.000117141
0.000483161
3.50536e-05
0.000305565
0.000177597
2.20246e-05
0.00028354
-0.000315161
0.000337185
-0.000641795
0.000326634
-0.000901205
0.00025941
-0.0010509
0.000149696
-0.00106824
1.73383e-05
-0.000945317
-0.000122923
-0.000705222
-0.000240095
-0.000377098
-0.000328124
-0.000377098
0.000218902
-0.00037429
0.000449999
-0.000391775
0.00068358
-0.000396311
0.000919303
-0.000400404
0.00115691
-0.000404255
0.00139624
-0.000407899
0.00163701
-0.000411185
0.00187901
-0.000414193
0.00212195
-0.000416813
0.00236559
-0.000419112
0.00260964
-0.000421027
0.00285407
-0.0004228
0.003099
-0.000424681
0.00334422
-0.000426205
0.00358879
-0.000426784
0.00383185
-0.000426412
0.00407271
-0.000425299
0.0043109
-0.000423646
0.00454601
-0.000421518
0.00477774
-0.000418986
0.00500577
-0.000416011
0.00522983
-0.000412566
0.00544956
-0.000408527
0.00566451
-0.000403709
0.00587404
-0.000397855
0.00607754
-0.000390879
0.00627388
-0.000382212
0.00646225
-0.000371999
0.00664132
-0.000359648
0.00681051
-0.000345813
0.00696969
-0.000330885
0.00711893
-0.000315008
0.0072579
-0.000297728
0.00738622
-0.000278851
0.00750327
-0.000258217
0.00760834
-0.00023564
0.00770039
-0.000210791
0.00777803
-0.000183744
0.00783965
-0.000154381
0.0078843
-0.000122717
0.00791145
-8.8784e-05
0.00792071
-5.33035e-05
0.00791159
-1.60619e-05
0.00786862
3.91642e-05
0.00779797
9.09471e-05
0.00769946
0.000143609
0.00757297
0.000197512
0.00741835
0.000252571
0.00723545
0.00030852
0.00702418
0.000365124
0.00678462
0.000421875
0.00651697
0.000478518
0.00622153
0.000534403
0.00589907
0.000589264
0.00555021
0.000642299
0.00517611
0.000693438
0.0047783
0.000741266
0.00435809
0.000786768
0.00391771
0.000827574
0.00345922
0.000864717
0.00298547
0.000895785
0.0024994
0.000921277
0.00200481
0.00093946
0.00150576
0.000949805
0.00100632
0.000952123
0.000511071
0.000945445
2.49422e-05
0.000929357
-0.000446584
0.000903084
-0.000898563
0.000866728
-0.00132539
0.000819727
-0.00172206
0.000762982
-0.00208319
0.000695602
-0.00240356
0.000618378
-0.00267855
0.000532029
-0.00290403
0.000437536
-0.00307573
0.000335044
-0.00319085
0.000227058
-0.00324597
0.000113217
-0.00323636
-8.39662e-06
-0.00316196
-0.000136944
-0.00302459
-0.000259341
-0.00282553
-0.000378043
-0.00256735
-0.000491108
-0.00225341
-0.000597777
-0.0018885
-0.000695248
-0.00147838
-0.0007823
-0.00102995
-0.000855688
-0.000551389
-0.000913845
-5.195e-05
-0.000954465
0.000458311
-0.000975758
0.000968872
-0.0009767
0.00146811
-0.00095571
0.00194462
-0.000912549
0.00238688
-0.000847418
0.0027831
-0.000759939
0.00312303
-0.000652368
0.00339661
-0.000525767
0.00359454
-0.000381549
0.0037109
-0.00022589
0.00374022
-6.02335e-05
0.0036713
0.000130823
0.00350965
0.000310332
0.00325848
0.000482615
0.00292204
0.000645546
0.00250764
0.000794749
0.00202499
0.000925457
0.00148684
0.00103221
0.000908083
0.00111074
0.000306035
0.00115616
-0.000300867
0.00116642
-0.000893027
0.00113865
-0.00144978
0.00107211
-0.00195223
0.000968235
-0.00238053
0.000827649
-0.00271923
0.000656012
-0.0029535
0.000456661
-0.00307309
0.000237966
-0.00306643
-6.77336e-07
-0.00293307
-0.000250397
-0.00267891
-0.000482397
-0.00231338
-0.000695726
-0.00185019
-0.000882553
-0.0013077
-0.00103419
-0.00070897
-0.00114243
-8.16094e-05
-0.00119804
0.000542679
-0.00119575
0.00113492
-0.00113557
0.00166525
-0.00101731
0.00210411
-0.00084401
0.00242765
-0.000624223
0.00261615
-0.000367556
0.00265687
-8.73214e-05
0.00253696
0.00022402
0.00226832
0.000509789
0.00186597
0.00076528
0.00135137
0.000978978
0.000755569
0.00113457
0.000114308
0.00122031
-0.000526748
0.00122379
-0.0011256
0.00114318
-0.00163853
0.000980451
-0.00202791
0.000744357
-0.00226198
0.00044867
-0.00231992
0.000114151
-0.00218401
-0.000261324
-0.00186792
-0.000608083
-0.00139193
-0.000913284
-0.000789707
-0.00115548
-0.000104314
-0.00131426
0.000608306
-0.00136829
0.00128912
-0.00130848
0.00188016
-0.00113759
0.00232939
-0.000866717
0.00259511
-0.000516261
0.00265223
-0.000118059
0.00248371
0.000319871
0.00211219
0.000711711
0.00156972
0.00103994
0.00090769
0.00127154
0.00019024
0.00138109
-0.00051025
0.00135103
-0.00112106
0.00118201
-0.00157922
0.000890842
-0.00183635
0.000507869
-0.00186915
7.79485e-05
-0.00166698
-0.00037864
-0.00126579
-0.000763058
-0.000714095
-0.00105455
-8.11028e-05
-0.00121484
0.00055241
-0.00122115
0.0011059
-0.00107149
0.00151044
-0.000788649
0.00171721
-0.000411208
0.00169978
1.67629e-05
0.00147156
0.000429147
0.00107237
0.000759417
0.000564905
0.000971479
2.6401e-05
0.00103498
-0.000452631
0.000931382
-0.000809385
0.000699392
-0.000995271
0.00037402
-0.000989
1.01931e-05
-0.000808809
-0.000330709
-0.000501102
-0.000576921
-0.000132868
-0.000697171
0.00021821
-0.000669986
0.000480984
-0.000504444
0.000606051
-0.000242208
0.000566592
7.45122e-05
0.000376262
0.000367927
7.38299e-05
0.000585972
-0.000284125
0.00069514
-0.000627047
0.000669555
-0.000896106
0.00052847
-0.00104856
0.000302145
-0.00106405
3.2829e-05
-0.000939833
-0.000247135
-0.000699005
-0.000480923
-0.000372813
-0.000654316
-0.000749911
0.000116288
-0.000490577
0.000235672
-0.000511158
0.000354232
-0.00051487
0.000470995
-0.000517166
0.000584725
-0.000517985
0.000695004
-0.000518177
0.000800797
-0.000516978
0.000903259
-0.000516654
0.00100293
-0.000516485
0.00110033
-0.000516511
0.00119368
-0.000514369
0.00128279
-0.000511912
0.0013671
-0.000508998
0.00144777
-0.000506864
0.00152722
-0.000506233
0.00160799
-0.000507187
0.00169191
-0.000509212
0.00178129
-0.000513026
0.00187726
-0.000517496
0.00198148
-0.000523197
0.00209522
-0.00052976
0.00221982
-0.00053716
0.00235589
-0.000544598
0.00250439
-0.000552208
0.00266518
-0.000558644
0.00283853
-0.000564232
0.00302372
-0.000567397
0.00322049
-0.000568767
0.00342711
-0.000566273
0.00364214
-0.000560839
0.0038623
-0.000551046
0.00408502
-0.000537722
0.00430731
-0.000520025
0.00452634
-0.00049788
0.00473938
-0.000471253
0.00494627
-0.000442535
0.00514723
-0.000411743
0.00534026
-0.000376776
0.0055228
-0.000336922
0.00569225
-0.000292164
0.00584466
-0.000241198
0.00597672
-0.000185366
0.00608222
-0.000121562
0.00617514
-5.37491e-05
0.00624091
2.51706e-05
0.00627741
0.000107116
0.00628182
0.000193096
0.00625202
0.000282376
0.00618637
0.000374173
0.0060835
0.000467989
0.00594263
0.00056275
0.00576336
0.000657787
0.00554536
0.000752403
0.00528891
0.00084571
0.0049946
0.000936612
0.00466304
0.001025
0.00429554
0.00110876
0.00389451
0.0011878
0.00346218
0.0012599
0.0030021
0.0013248
0.00251752
0.00138037
0.00201315
0.00142565
0.00149318
0.00145943
0.000962819
0.00148017
0.000427501
0.00148744
-0.000106677
0.00147962
-0.000633771
0.00145645
-0.00114742
0.00141673
-0.00164088
0.00136019
-0.00210768
0.00128653
-0.0025412
0.00119651
-0.00293471
0.00108911
-0.00328224
0.000965902
-0.00357818
0.000827968
-0.00381652
0.000675875
-0.00399284
0.000511368
-0.00410178
0.000335997
-0.00414375
0.000155188
-0.00410589
-4.62565e-05
-0.0039948
-0.000248035
-0.00381045
-0.000443689
-0.00355481
-0.000633687
-0.00322997
-0.00081595
-0.00284039
-0.000987356
-0.00239037
-0.00114527
-0.00188759
-0.00128507
-0.00134041
-0.00140286
-0.000758835
-0.00149542
-0.000153562
-0.00155974
0.000463641
-0.00159296
0.00107933
-0.00159239
0.00168076
-0.00155713
0.00225306
-0.00148486
0.00278342
-0.00137778
0.00325721
-0.00123373
0.00366273
-0.00105789
0.00398712
-0.00085015
0.00422051
-0.000614946
0.00435432
-0.0003597
0.00438298
-8.88869e-05
0.00429777
0.000216026
0.00410298
0.000505123
0.00380131
0.000784288
0.00339793
0.00104893
0.00290122
0.00129146
0.00232363
0.00150304
0.00168048
0.00167536
0.000989628
0.00180159
0.000271442
0.00187434
-0.00045124
0.00188911
-0.00115448
0.00184188
-0.00181419
0.00173183
-0.00240648
0.00156052
-0.00291005
0.00133121
-0.00330245
0.00104841
-0.00357067
0.000724881
-0.0036996
0.000366897
-0.00367608
-2.41957e-05
-0.00350421
-0.000422263
-0.00318896
-0.000797653
-0.00274142
-0.00114327
-0.00217674
-0.00144724
-0.0015184
-0.00169253
-0.000795694
-0.00186514
-4.04082e-05
-0.00195333
0.000711385
-0.00194754
0.00142248
-0.00184667
0.00205511
-0.00164994
0.00257565
-0.00136456
0.00295565
-0.00100422
0.00316917
-0.000581077
0.00320668
-0.000124831
0.00305108
0.000379621
0.00271847
0.000842394
0.0022237
0.00126005
0.0015951
0.00160758
0.000868858
0.00186081
9.17087e-05
0.00199746
-0.000684493
0.00199999
-0.00140787
0.00186656
-0.00202641
0.00159899
-0.00249354
0.00121149
-0.00277344
0.00072857
-0.00283884
0.00017955
-0.00267443
-0.000425733
-0.00229582
-0.000986694
-0.00172437
-0.00148473
-0.0010017
-0.00187816
-0.000182761
-0.00213319
0.000666717
-0.00221777
0.00147522
-0.00211698
0.00217392
-0.00183629
0.00269991
-0.00139271
0.00300672
-0.000823073
0.00306337
-0.000174706
0.00285439
0.000528852
0.00240501
0.00116109
0.00175428
0.00169067
0.000962909
0.00206292
0.000109641
0.00223436
-0.000711996
0.00217266
-0.00142306
0.00189308
-0.00194838
0.00141616
-0.00223431
0.000793803
-0.00224758
9.12182e-05
-0.00199042
-0.000635803
-0.00149761
-0.00125586
-0.000831821
-0.00172034
-7.66488e-05
-0.00197001
0.000671447
-0.00196925
0.00131557
-0.00171561
0.00177575
-0.00124883
0.00199792
-0.000633379
0.00195261
6.20786e-05
0.00166229
0.000719461
0.00117415
0.00124756
0.000566202
0.00157942
-6.58991e-05
0.00166708
-0.000625632
0.00149111
-0.00102798
0.00110174
-0.00122082
0.000566855
-0.00118074
-2.9885e-05
-0.000939652
-0.000571794
-0.00055103
-0.000965543
-9.66477e-05
-0.00115155
0.000326039
-0.00109267
0.000637291
-0.000815695
0.000780497
-0.000385415
0.000728843
0.000126166
0.000502603
0.000594168
0.000148494
0.000940081
-0.000263998
0.00110763
-0.000653005
0.00105856
-0.000952342
0.000827807
-0.00111773
0.000467537
-0.00112917
4.42605e-05
-0.000992464
-0.000383837
-0.000734162
-0.000739225
-0.000390093
-0.000998385
-0.00114
0.000236656
-0.000727233
0.000490217
-0.000764717
0.000750996
-0.000775649
0.00102074
-0.000786907
0.00129908
-0.00079633
0.00158807
-0.000807158
0.00188412
-0.000813035
0.00218771
-0.000820234
0.00248948
-0.000818262
0.00278535
-0.000812381
0.00306918
-0.000798196
0.00334101
-0.000783735
0.00359825
-0.00076624
0.00384047
-0.000749087
0.00406746
-0.000733218
0.00428025
-0.00071998
0.00448076
-0.000709721
0.00467152
-0.000703784
0.00485569
-0.000701667
0.00503813
-0.00070563
0.00522184
-0.000713471
0.00541
-0.00072532
0.00560347
-0.000738071
0.00580517
-0.000753901
0.00601306
-0.000766534
0.00622889
-0.000780066
0.00644607
-0.000784579
0.00666505
-0.000787749
0.00687441
-0.000775626
0.00707556
-0.000761989
0.00726802
-0.000743503
0.00745575
-0.00072546
0.00763806
-0.00070233
0.00781554
-0.000675357
0.00798697
-0.000642681
0.00814855
-0.000604124
0.00829626
-0.000559449
0.00842772
-0.000508239
0.00854107
-0.000450274
0.00863434
-0.000385432
0.00870682
-0.000313679
0.00875585
-0.000234392
0.00878358
-0.00014929
0.00879012
-6.02892e-05
0.00874666
6.86296e-05
0.00866389
0.000189879
0.00854413
0.00031286
0.00838806
0.000438441
0.00819501
0.000567224
0.00796471
0.000698293
0.00769601
0.000831448
0.00738867
0.000965128
0.00704219
0.00109888
0.00665591
0.00123199
0.00623072
0.00136181
0.00576808
0.00148764
0.005269
0.00160784
0.00473528
0.00172153
0.00416936
0.00182582
0.00357453
0.00191963
0.00295549
0.0019994
0.00231641
0.00206473
0.00166304
0.0021128
0.00100106
0.00214215
0.000336741
0.00215176
-0.000323154
0.00213952
-0.000971671
0.00210497
-0.00160128
0.00204634
-0.0022041
0.00196301
-0.00277218
0.00185461
-0.00329792
0.00172224
-0.00377323
0.00156442
-0.00419102
0.0013837
-0.00454354
0.00118049
-0.00482464
0.00095697
-0.00502854
0.000715267
-0.00515179
0.00045925
-0.00518962
0.000193015
-0.00513369
-0.00010218
-0.0049902
-0.000391534
-0.00475788
-0.000676001
-0.00443819
-0.000953384
-0.0040338
-0.00122034
-0.0035499
-0.00147125
-0.00299384
-0.00170133
-0.00237373
-0.00190518
-0.00170043
-0.00207617
-0.000986241
-0.00220961
-0.000243986
-0.00230199
0.000511538
-0.00234849
0.00126488
-0.00234573
0.00199796
-0.00229021
0.00269584
-0.00218274
0.00333984
-0.00202178
0.00391577
-0.00180965
0.00440677
-0.00154889
0.00479763
-0.00124101
0.00507675
-0.000894065
0.00523396
-0.000516902
0.00525952
-0.000114447
0.00515216
0.000323383
0.00491145
0.000745826
0.00454016
0.00115558
0.00404403
0.00154506
0.00343528
0.00190021
0.00272844
0.00220987
0.00194285
0.00246096
0.00110004
0.0026444
0.000226968
0.00274741
-0.000648997
0.00276507
-0.00150052
0.00269341
-0.00229642
0.00252772
-0.0030096
0.0022737
-0.00361063
0.00193225
-0.00407894
0.00151672
-0.00438852
0.00103446
-0.00453107
0.000509448
-0.00448769
-6.75762e-05
-0.00426643
-0.000643521
-0.00387068
-0.0011934
-0.00331077
-0.00170318
-0.00261013
-0.00214787
-0.00179795
-0.00250471
-0.000906615
-0.00275647
2.03049e-05
-0.00288025
0.000940573
-0.00286781
0.00180717
-0.00271327
0.00257542
-0.00241818
0.00320613
-0.00199527
0.00365835
-0.00145644
0.00391058
-0.000833307
0.00393964
-0.000153884
0.00373818
0.000581076
0.00331942
0.00126115
0.00270201
0.00187747
0.00192008
0.00238951
0.00102023
0.00276066
5.97278e-05
0.00295796
-0.000897484
0.0029572
-0.00178592
0.002755
-0.00254274
0.00235581
-0.00311226
0.00178101
-0.00344988
0.0010662
-0.00352515
0.000254815
-0.00332194
-0.000628937
-0.00285524
-0.0014534
-0.00215522
-0.00218476
-0.00127184
-0.00276153
-0.000273507
-0.00313153
0.000760837
-0.00325211
0.00174128
-0.00309743
0.00258492
-0.00267994
0.00321568
-0.00202346
0.00357446
-0.00118186
0.0036277
-0.000227941
0.00336285
0.000793699
0.00280737
0.00171657
0.00201082
0.00248723
0.00105061
0.00302312
2.04885e-05
0.00326449
-0.000969478
0.00316263
-0.00181834
0.00274194
-0.00243682
0.00203464
-0.00275574
0.00111272
-0.00274706
8.25371e-05
-0.00241296
-0.000969909
-0.00179811
-0.00187071
-0.000979414
-0.00253904
-5.69366e-05
-0.00289248
0.000838099
-0.00286428
0.00160282
-0.00248033
0.00213885
-0.00178486
0.00237904
-0.000873564
0.00229805
0.000143071
0.00192268
0.00109483
0.00131405
0.0018562
0.000570072
0.0023234
-0.000192071
0.00242923
-0.000853609
0.00215265
-0.00131556
0.0015637
-0.0015162
0.000767486
-0.00143571
-0.000110367
-0.00111267
-0.00089484
-0.000616781
-0.00146143
-4.8032e-05
-0.0017203
0.000465386
-0.00160609
0.000837826
-0.00118814
0.00100178
-0.000549365
0.000932731
0.000195212
0.00065587
0.000871028
0.00023116
0.00136479
-0.000254611
0.0015934
-0.000704485
0.00150844
-0.00104312
0.00116644
-0.00122275
0.000647168
-0.00122655
4.8061e-05
-0.00107013
-0.000540256
-0.000785646
-0.00102371
-0.000415172
-0.00136886
-0.00155518
0.000283543
-0.00101078
0.000581552
-0.00106273
0.000876464
-0.00107056
0.00116544
-0.00107588
0.00144407
-0.00107496
0.00172093
-0.00108402
0.00195447
-0.00104657
0.00213526
-0.00100102
0.00220584
-0.000888849
0.0021915
-0.000798041
0.00210478
-0.000711474
0.00197338
-0.000652329
0.00180972
-0.000602583
0.00163014
-0.0005695
0.00144629
-0.000549376
0.00127076
-0.00054445
0.00111487
-0.00055383
0.000987151
-0.00057606
0.000894227
-0.000608742
0.000839784
-0.000651186
0.000824161
-0.000697848
0.000854396
-0.000755554
0.000929705
-0.00081338
0.00105614
-0.000880337
0.0012291
-0.000939495
0.00145651
-0.00100747
0.00172281
-0.00105088
0.00203455
-0.00109949
0.00236213
-0.00110321
0.00270937
-0.00110923
0.00306836
-0.00110249
0.00343554
-0.00109264
0.00380763
-0.00107442
0.00418218
-0.0010499
0.00455674
-0.00101724
0.00492826
-0.000975643
0.00529318
-0.000924371
0.00564847
-0.000863526
0.00599003
-0.000791841
0.00631149
-0.000706885
0.00660636
-0.000608547
0.00687043
-0.000498467
0.00710132
-0.00038018
0.00728159
-0.000240556
0.00744238
-9.21653e-05
0.00755988
7.23811e-05
0.00762891
0.000243828
0.00764571
0.000421642
0.00760767
0.00060527
0.00751285
0.000793112
0.00735963
0.00098467
0.00714742
0.00117733
0.00687562
0.00137068
0.00654543
0.00156218
0.00615616
0.00175107
0.00570979
0.00193401
0.00520973
0.0021079
0.00465922
0.00227203
0.004063
0.00242205
0.0034247
0.00255793
0.00275082
0.00267328
0.00204688
0.00276867
0.00131975
0.00283992
0.000577288
0.00288461
-0.000172539
0.00290159
-0.000920766
0.00288774
-0.00165849
0.00284269
-0.00237643
0.00276429
-0.00306514
0.00265171
-0.0037145
0.00250397
-0.00431529
0.00232303
-0.00485688
0.002106
-0.00533106
0.00185788
-0.00572837
0.00157779
-0.00604317
0.00127178
-0.00626714
0.000939233
-0.00639438
0.00058649
-0.00641765
0.000216293
-0.00633161
-0.000188228
-0.00614122
-0.000581924
-0.00584563
-0.00097159
-0.00544575
-0.00135326
-0.00494571
-0.00172038
-0.00435173
-0.00206522
-0.0036716
-0.00238146
-0.00291601
-0.00266078
-0.00209861
-0.00289357
-0.0012318
-0.00307642
-0.000333798
-0.00319999
0.000578485
-0.00326077
0.00148512
-0.00325237
0.00236892
-0.00317401
0.0032074
-0.00302122
0.00398031
-0.00279468
0.00466977
-0.00249912
0.00525529
-0.00213441
0.0057194
-0.00170512
0.00604826
-0.00122292
0.00622964
-0.000698282
0.0062549
-0.000139709
0.00611953
0.000458753
0.00582437
0.00104098
0.00537171
0.00160824
0.00477127
0.0021455
0.00403479
0.00263669
0.00318131
0.00306336
0.00223422
0.00340804
0.00122244
0.00365619
0.000174233
0.00379562
-0.000877439
0.00381674
-0.00189533
0.0037113
-0.00284592
0.00347831
-0.00369401
0.0031218
-0.00440685
0.00264508
-0.00495369
0.00206357
-0.00531757
0.00139834
-0.00546867
0.000660543
-0.00540366
-0.000132584
-0.00512275
-0.000924428
-0.00463029
-0.00168586
-0.00394597
-0.0023875
-0.00309273
-0.00300111
-0.00210249
-0.00349495
-0.00102427
-0.00383469
9.70059e-05
-0.00400152
0.00120578
-0.00397659
0.00224917
-0.00375665
0.00317304
-0.00334206
0.00392301
-0.00274524
0.00446081
-0.00199425
0.00475163
-0.00112412
0.00476689
-0.000169144
0.00451348
0.000834487
0.00399401
0.00178061
0.00323608
0.0026354
0.00227971
0.00334588
0.00118756
0.00385281
2.08974e-05
0.00412463
-0.00113845
0.00411655
-0.00221417
0.00383072
-0.00312892
0.00327056
-0.00381437
0.00246646
-0.00421245
0.00146428
-0.00429689
0.000339251
-0.00404597
-0.000879862
-0.00347663
-0.00202273
-0.00262809
-0.0030333
-0.00156053
-0.00382909
-0.000359443
-0.00433262
0.00088242
-0.00449397
0.00205656
-0.00427156
0.00305922
-0.0036826
0.00380484
-0.00276908
0.00422052
-0.00159755
0.00426446
-0.000271872
0.00393617
0.00112198
0.00325917
0.00239357
0.0022962
0.0034502
0.00114215
0.00417717
-8.71453e-05
0.00449378
-0.00126413
0.00433962
-0.0022643
0.00374211
-0.00298139
0.00275174
-0.0033431
0.00147443
-0.00329918
3.86203e-05
-0.00287933
-0.00138976
-0.00212462
-0.00262541
-0.00113329
-0.00353038
-3.13831e-05
-0.00399439
0.00103755
-0.00393321
0.00193575
-0.00337853
0.00255268
-0.00240179
0.00281098
-0.00113186
0.00268699
0.000267055
0.00221203
0.00156979
0.00146564
0.00260259
0.000567471
0.00322156
-0.000340316
0.00333702
-0.00111416
0.0029265
-0.00163986
0.0020894
-0.00184614
0.000973769
-0.00171819
-0.000238321
-0.00130135
-0.00131168
-0.000686462
-0.00207632
2.22655e-06
-0.00240899
0.000622306
-0.00222617
0.00106306
-0.00162889
0.00124745
-0.000733755
0.0011533
0.000289361
0.000815564
0.00120876
0.000311205
0.00186915
-0.000256018
0.00216063
-0.000771227
0.00202364
-0.00114969
0.00154491
-0.00134096
0.000838434
-0.00133345
4.05533e-05
-0.00115219
-0.000721515
-0.000838372
-0.00133754
-0.000440268
-0.00176696
-0.00199544
8.36754e-05
-0.00109445
0.000189959
-0.00116901
0.000348625
-0.00122922
0.000588352
-0.00131561
0.000927457
-0.00141407
0.00139025
-0.0015468
0.00194188
-0.00159821
0.00261446
-0.0016736
0.00322169
-0.00149607
0.00379863
-0.00137499
0.00426732
-0.00118016
0.00462229
-0.0010073
0.00486201
-0.000842298
0.00500028
-0.000707769
0.0050543
-0.000603396
0.00504218
-0.000532331
0.00497931
-0.000490959
0.00488034
-0.000477089
0.0047554
-0.000483801
0.00462221
-0.00051799
0.00450356
-0.000579205
0.00442497
-0.000676964
0.00440511
-0.000793514
0.00447638
-0.000951609
0.00462971
-0.00109282
0.00489438
-0.00127214
0.00519942
-0.00135592
0.00561859
-0.00151865
0.00598404
-0.00146866
0.0063685
-0.00149368
0.00672073
-0.00145473
0.00706689
-0.0014388
0.0073972
-0.00140473
0.00771488
-0.00136758
0.00801827
-0.00132064
0.00830586
-0.00126323
0.00857613
-0.00119464
0.00882669
-0.00111408
0.00905388
-0.00101903
0.00925721
-0.000910215
0.00943713
-0.000788467
0.00958824
-0.000649579
0.00970077
-0.000492707
0.00978425
-0.000324031
0.00983649
-0.000144413
0.00982165
8.7221e-05
0.00975488
0.000310604
0.00963925
0.00053727
0.00947308
0.000771444
0.00925374
0.00101245
0.00897873
0.00125968
0.00864592
0.00151014
0.00825359
0.00176302
0.00780148
0.00201429
0.00729057
0.00226199
0.00672142
0.00250315
0.00609632
0.002733
0.00541772
0.00295064
0.0046907
0.00314907
0.0039197
0.00332893
0.00311067
0.00348231
0.00227063
0.00360871
0.00140724
0.00370331
0.000529142
0.00376271
-0.000354867
0.0037856
-0.00123522
0.0037681
-0.0021019
0.00370937
-0.00294367
0.00360607
-0.0037484
0.00345644
-0.00450516
0.00326074
-0.00520347
0.00302134
-0.00583444
0.00273698
-0.00638288
0.00240632
-0.00684288
0.00203779
-0.0072012
0.0016301
-0.00745417
0.0011922
-0.00758912
0.000721441
-0.00760267
0.000229837
-0.00749695
-0.000293944
-0.00726715
-0.00081173
-0.00691276
-0.00132598
-0.00643556
-0.00183046
-0.00584145
-0.00231449
-0.00513717
-0.00276951
-0.00433244
-0.00318619
-0.00344083
-0.00355239
-0.00247576
-0.00385864
-0.00145697
-0.00409522
-0.000400087
-0.00425688
0.000671475
-0.00433233
0.00173655
-0.00431745
0.00277203
-0.00420949
0.00375109
-0.00400028
0.00465461
-0.0036982
0.00545805
-0.00330256
0.00613823
-0.00281459
0.00667568
-0.00224257
0.0070542
-0.00160145
0.0072585
-0.000902577
0.0072834
-0.000164613
0.00711779
0.000624364
0.00676378
0.00139499
0.00622582
0.00214621
0.00551253
0.00285878
0.00464251
0.00350671
0.00363995
0.00406593
0.00252848
0.00451951
0.00133861
0.00484605
0.000108079
0.00502615
-0.00112066
0.00504548
-0.00231001
0.00490066
-0.00341853
0.00458683
-0.00440253
0.0041058
-0.00522888
0.00347143
-0.00585884
0.00269352
-0.00626382
0.00180332
-0.00643358
0.000830307
-0.00634284
-0.00022333
-0.00599965
-0.00126762
-0.00541217
-0.00227334
-0.00459321
-0.00320646
-0.003576
-0.00401833
-0.00240987
-0.00466108
-0.00113585
-0.00510871
0.000186438
-0.00532381
0.00149236
-0.00528251
0.00271653
-0.00498082
0.00379339
-0.00441892
0.00466846
-0.0036203
0.00529143
-0.00261722
0.00561304
-0.00144572
0.00562666
-0.000182768
0.00531246
0.00114869
0.00468788
0.00240519
0.00378208
0.00354121
0.00264812
0.00447984
0.00134799
0.00515294
-3.0427e-05
0.00550304
-0.0014017
0.00548782
-0.00266673
0.00509575
-0.00373984
0.00434367
-0.00453916
0.00326578
-0.00500147
0.00192658
-0.00508838
0.000426167
-0.0047866
-0.00118164
-0.00411126
-0.00269808
-0.00310681
-0.00403774
-0.00184831
-0.0050876
-0.000433374
-0.00574755
0.00101874
-0.00594608
0.00238743
-0.00564026
0.00355636
-0.00485153
0.00441544
-0.00362816
0.00488808
-0.00207019
0.00492786
-0.000311648
0.00452609
0.00152375
0.00371817
0.00320149
0.00258196
0.0045864
0.00122873
0.00553041
-0.00020686
0.00592937
-0.00157277
0.00570553
-0.00272539
0.00489472
-0.00354487
0.00357122
-0.00393804
0.0018676
-0.00386402
-3.53983e-05
-0.00334719
-0.00190658
-0.00244803
-0.00352458
-0.00127903
-0.00469937
1.13368e-05
-0.00528476
0.0012516
-0.00517347
0.00228652
-0.00441346
0.00298103
-0.0030963
0.00325547
-0.00140631
0.00308166
0.000440861
0.00250082
0.00215064
0.0016107
0.00349271
0.000554465
0.0042778
-0.00050131
0.00439279
-0.00138852
0.0038137
-0.00197613
0.00267701
-0.00218436
0.001182
-0.00200295
-0.000419729
-0.00148674
-0.00182789
-0.000747973
-0.00281509
6.43492e-05
-0.00322131
0.000790244
-0.00295207
0.00129412
-0.00213276
0.00149456
-0.000934197
0.00137201
0.000411906
0.000969212
0.00161156
0.000381732
0.00245663
-0.000267125
0.00280948
-0.000845764
0.00260228
-0.00125985
0.00195899
-0.00145783
0.00103642
-0.00143312
1.58444e-05
-0.00122499
-0.000929644
-0.00088233
-0.0016802
-0.000459715
-0.00218958
-0.00245516
0.000505508
-0.00159996
0.00106828
-0.00173178
0.00178198
-0.00194292
0.00275729
-0.00229091
0.00413214
-0.00278892
0.00597126
-0.00338592
0.00799408
-0.00362102
0.00963514
-0.00331466
0.00952405
-0.00138499
0.00850228
-0.000353218
0.00713071
0.000191414
0.00575054
0.000372873
0.00442728
0.000480963
0.00317946
0.000540049
0.00201582
0.000560239
0.000945896
0.000537598
-2.60212e-05
0.000480958
-0.000896343
0.000393233
-0.0016673
0.000287157
-0.00229359
0.000108303
-0.0027037
-0.000169097
-0.00287286
-0.000507803
-0.00287507
-0.0007913
-0.00269236
-0.00113432
-0.00236462
-0.00142056
-0.00179377
-0.00184299
-0.00102781
-0.00212189
9.06062e-05
-0.00263707
0.00104886
-0.00242692
0.00187306
-0.00231788
0.00259417
-0.00217583
0.00324793
-0.00209256
0.0038578
-0.00201459
0.00443613
-0.00194591
0.00499518
-0.00187969
0.00553761
-0.00180566
0.00606698
-0.00172402
0.00657699
-0.00162409
0.00707151
-0.00151355
0.00753534
-0.00137405
0.00796257
-0.00121569
0.00834947
-0.00103648
0.00869088
-0.000834115
0.00897648
-0.000609633
0.00919514
-0.00036307
0.00937618
-9.38231e-05
0.00949304
0.000193747
0.00953554
0.000494768
0.00950124
0.000805743
0.00938733
0.00112636
0.00919483
0.00145218
0.0089213
0.00178367
0.00856793