/*--------------------------------*- C++ -*----------------------------------*\
  =========                 |
  \\      /  F ield         | OpenFOAM: The Open Source CFD Toolbox
   \\    /   O peration     | Website:  https://openfoam.org
    \\  /    A nd           | Version:  12
     \\/     M anipulation  |
\*---------------------------------------------------------------------------*/
FoamFile
{
    format      ascii;
    class       volVectorField;
    location    "16";
    object      U;
}
// * * * * * * * * * * * * * * * * * * * * * * * * * * * * * * * * * * * * * //

dimensions      [0 1 -1 0 0 0 0];

internalField   nonuniform List<vector> 
3829
(
(6.64008e-06 -0.000532303 0)
(1.8426e-05 -0.000559574 0)
(3.19687e-05 -0.000559337 0)
(4.47044e-05 -0.000557992 0)
(5.81049e-05 -0.000556179 0)
(7.14472e-05 -0.000553865 0)
(8.5006e-05 -0.000551045 0)
(9.86771e-05 -0.000547713 0)
(0.000112518 -0.000543855 0)
(0.00012646 -0.000539464 0)
(0.000140536 -0.000534536 0)
(0.000154743 -0.000529063 0)
(0.000169026 -0.000523045 0)
(0.000183424 -0.000516468 0)
(0.00019792 -0.000509329 0)
(0.000212519 -0.000501622 0)
(0.000227201 -0.000493363 0)
(0.000241961 -0.000484556 0)
(0.000256807 -0.000475211 0)
(0.000271729 -0.000465339 0)
(0.000286693 -0.000454965 0)
(0.000301732 -0.000444094 0)
(0.000316791 -0.000432752 0)
(0.000331864 -0.000420969 0)
(0.000346906 -0.000408748 0)
(0.000361935 -0.000396124 0)
(0.000376868 -0.000383129 0)
(0.000391518 -0.000369785 0)
(0.00040604 -0.000356101 0)
(0.000420384 -0.00034217 0)
(0.000434284 -0.000327994 0)
(0.000447833 -0.000313618 0)
(0.00046065 -0.000299068 0)
(0.000473002 -0.000284331 0)
(0.000484791 -0.000269494 0)
(0.000495574 -0.000254516 0)
(0.000505541 -0.000239436 0)
(0.000514502 -0.000224265 0)
(0.000522437 -0.000209015 0)
(0.000529251 -0.000193725 0)
(0.000534846 -0.000178452 0)
(0.000539046 -0.000163207 0)
(0.0005418 -0.000148009 0)
(0.000542972 -0.000132888 0)
(0.00054231 -0.000117966 0)
(0.000539697 -0.000103301 0)
(0.000535011 -8.89553e-05 0)
(0.000528279 -7.49658e-05 0)
(0.000519354 -6.14076e-05 0)
(0.000508191 -4.8288e-05 0)
(0.000494752 -3.57022e-05 0)
(0.000479011 -2.36194e-05 0)
(0.000460847 -1.21377e-05 0)
(0.000440732 -1.21323e-06 0)
(0.000418558 8.9496e-06 0)
(0.00039394 1.84837e-05 0)
(0.000367372 2.72276e-05 0)
(0.000339028 3.52728e-05 0)
(0.000308876 4.2395e-05 0)
(0.000277123 4.87384e-05 0)
(0.000244038 5.41543e-05 0)
(0.000209631 5.86535e-05 0)
(0.00017438 6.22378e-05 0)
(0.000138612 6.48177e-05 0)
(0.00010257 6.64494e-05 0)
(6.64929e-05 6.7042e-05 0)
(3.07259e-05 6.67001e-05 0)
(-4.22439e-06 6.53871e-05 0)
(-3.8005e-05 6.30758e-05 0)
(-7.02921e-05 5.98267e-05 0)
(-0.000100501 5.57041e-05 0)
(-0.00012849 5.069e-05 0)
(-0.000153675 4.49443e-05 0)
(-0.000175762 3.8457e-05 0)
(-0.000194535 3.13446e-05 0)
(-0.00020957 2.37667e-05 0)
(-0.000220234 1.57423e-05 0)
(-0.000227046 7.4109e-06 0)
(-0.000229435 -1.01066e-06 0)
(-0.000226832 -9.44019e-06 0)
(-0.000219485 -1.77264e-05 0)
(-0.000207442 -2.57409e-05 0)
(-0.000190937 -3.32886e-05 0)
(-0.000170221 -4.03358e-05 0)
(-0.000145737 -4.66088e-05 0)
(-0.000117493 -5.20802e-05 0)
(-8.63762e-05 -5.64845e-05 0)
(-5.26875e-05 -5.98379e-05 0)
(-1.7094e-05 -6.1981e-05 0)
(1.97007e-05 -6.28069e-05 0)
(5.69408e-05 -6.23128e-05 0)
(9.37756e-05 -6.04495e-05 0)
(0.000129416 -5.72354e-05 0)
(0.000163002 -5.26998e-05 0)
(0.000193725 -4.69065e-05 0)
(0.000220702 -3.9987e-05 0)
(0.00024322 -3.20417e-05 0)
(0.000260616 -2.32692e-05 0)
(0.000272301 -1.38572e-05 0)
(0.000277822 -4.05166e-06 0)
(0.000276553 5.91452e-06 0)
(0.000268081 1.57564e-05 0)
(0.000252834 2.52556e-05 0)
(0.000231223 3.41076e-05 0)
(0.00020361 4.20907e-05 0)
(0.000170706 4.88577e-05 0)
(0.000133157 5.42148e-05 0)
(9.2177e-05 5.79628e-05 0)
(4.8732e-05 5.9906e-05 0)
(4.19778e-06 6.00166e-05 0)
(-4.00697e-05 5.81164e-05 0)
(-8.25017e-05 5.44221e-05 0)
(-0.000121674 4.87489e-05 0)
(-0.000156292 4.15964e-05 0)
(-0.000184784 3.28394e-05 0)
(-0.000206273 2.30507e-05 0)
(-0.000219908 1.2321e-05 0)
(-0.000224718 1.37623e-06 0)
(-0.000220203 -9.66364e-06 0)
(-0.000206291 -2.00577e-05 0)
(-0.000183786 -2.97079e-05 0)
(-0.000153847 -3.80026e-05 0)
(-0.000117303 -4.4495e-05 0)
(-7.56825e-05 -4.89271e-05 0)
(-3.1043e-05 -5.11163e-05 0)
(1.48276e-05 -5.0782e-05 0)
(5.95624e-05 -4.80008e-05 0)
(0.000100679 -4.26933e-05 0)
(0.000136348 -3.53762e-05 0)
(0.000164498 -2.60994e-05 0)
(0.000183537 -1.55934e-05 0)
(0.000192388 -4.24698e-06 0)
(0.000189924 7.19907e-06 0)
(0.000175913 1.80914e-05 0)
(0.000151689 2.79773e-05 0)
(0.000118418 3.59071e-05 0)
(7.81945e-05 4.17006e-05 0)
(3.32987e-05 4.44753e-05 0)
(-1.38557e-05 4.45988e-05 0)
(-5.93797e-05 4.12777e-05 0)
(-9.97534e-05 3.53412e-05 0)
(-0.000132639 2.66101e-05 0)
(-0.00015536 1.61424e-05 0)
(-0.000165951 4.24226e-06 0)
(-0.000163 -7.78681e-06 0)
(-0.000146002 -1.94974e-05 0)
(-0.000116677 -2.96323e-05 0)
(-7.69816e-05 -3.76399e-05 0)
(-2.962e-05 -4.26151e-05 0)
(2.28718e-05 -4.42054e-05 0)
(7.52198e-05 -4.20847e-05 0)
(0.000122254 -3.64252e-05 0)
(0.00016069 -2.77315e-05 0)
(0.000187253 -1.66258e-05 0)
(0.000199488 -4.20658e-06 0)
(0.00019538 8.42749e-06 0)
(0.000175291 2.02197e-05 0)
(0.00014133 2.99698e-05 0)
(9.66409e-05 3.67438e-05 0)
(4.53698e-05 3.98522e-05 0)
(-8.07853e-06 3.88787e-05 0)
(-5.76747e-05 3.39911e-05 0)
(-9.77831e-05 2.56887e-05 0)
(-0.00012498 1.49354e-05 0)
(-0.000136498 2.93636e-06 0)
(-0.000130744 -8.88615e-06 0)
(-0.000108708 -1.93545e-05 0)
(-7.36368e-05 -2.71478e-05 0)
(-2.97238e-05 -3.14068e-05 0)
(1.83017e-05 -3.16185e-05 0)
(6.34616e-05 -2.77751e-05 0)
(9.9425e-05 -2.05947e-05 0)
(0.000122713 -1.10437e-05 0)
(0.000130415 -5.20393e-07 0)
(0.00012173 9.41953e-06 0)
(9.85773e-05 1.75795e-05 0)
(6.49784e-05 2.27764e-05 0)
(2.6009e-05 2.43713e-05 0)
(-1.27122e-05 2.21631e-05 0)
(-4.49305e-05 1.68135e-05 0)
(-6.58875e-05 9.35922e-06 0)
(-7.35507e-05 1.08998e-06 0)
(-6.74647e-05 -6.34452e-06 0)
(-4.998e-05 -1.19447e-05 0)
(-2.53682e-05 -1.46926e-05 0)
(1.59953e-06 -1.42549e-05 0)
(2.46515e-05 -1.07978e-05 0)
(3.88482e-05 -5.28483e-06 0)
(4.18756e-05 1.14673e-06 0)
(3.31866e-05 7.21662e-06 0)
(1.47045e-05 1.18391e-05 0)
(-1.18761e-05 1.41412e-05 0)
(-4.00317e-05 1.36829e-05 0)
(-6.30573e-05 1.08308e-05 0)
(-7.89699e-05 6.24191e-06 0)
(-8.51635e-05 7.47112e-07 0)
(-8.04988e-05 -4.74342e-06 0)
(-6.57599e-05 -9.52875e-06 0)
(-4.29806e-05 -1.29966e-05 0)
(-1.4954e-05 -1.48034e-05 0)
(9.45566e-06 0.000240431 0)
(3.0177e-05 0.000259844 0)
(5.11576e-05 0.000259973 0)
(7.23368e-05 0.000259576 0)
(9.36924e-05 0.00025898 0)
(0.000115231 0.000258177 0)
(0.000136901 0.000257134 0)
(0.000158664 0.00025581 0)
(0.000180595 0.000254163 0)
(0.00020254 0.00025218 0)
(0.000224537 0.000249802 0)
(0.000246566 0.000247042 0)
(0.000268598 0.000243788 0)
(0.000290702 0.000240086 0)
(0.000312814 0.000235805 0)
(0.000334787 0.00023101 0)
(0.00035653 0.000225622 0)
(0.000378093 0.000219706 0)
(0.000399431 0.000213244 0)
(0.000420433 0.000206307 0)
(0.000441126 0.000198928 0)
(0.000461539 0.00019119 0)
(0.000481447 0.000183146 0)
(0.000501018 0.000174907 0)
(0.000520177 0.000166564 0)
(0.000538758 0.000158223 0)
(0.000556773 0.000149997 0)
(0.000574193 0.00014201 0)
(0.00059073 0.000134377 0)
(0.000606363 0.000127232 0)
(0.000621162 0.000120687 0)
(0.000635075 0.000114784 0)
(0.000648098 0.000109629 0)
(0.000660104 0.000105283 0)
(0.000671155 0.000101779 0)
(0.000681142 9.90938e-05 0)
(0.000689944 9.73282e-05 0)
(0.000697596 9.64971e-05 0)
(0.000703955 9.66635e-05 0)
(0.000708692 9.78808e-05 0)
(0.000711886 0.000100172 0)
(0.00071356 0.000103562 0)
(0.000713571 0.000107988 0)
(0.000711204 0.000113389 0)
(0.000706077 0.000119829 0)
(0.000698427 0.000127272 0)
(0.000688261 0.000135631 0)
(0.000675566 0.000144821 0)
(0.000660353 0.000154698 0)
(0.0006425 0.000165168 0)
(0.000622164 0.000176036 0)
(0.000599337 0.000187209 0)
(0.000573947 0.000198351 0)
(0.000545967 0.000209565 0)
(0.000515719 0.000220291 0)
(0.00048308 0.000230675 0)
(0.000448311 0.000240176 0)
(0.000411321 0.000248947 0)
(0.000372311 0.000256355 0)
(0.000331884 0.000262633 0)
(0.00028967 0.000267133 0)
(0.000246396 0.000270094 0)
(0.000202081 0.000271085 0)
(0.000157299 0.000270089 0)
(0.000112293 0.000266906 0)
(6.75039e-05 0.000261513 0)
(2.35239e-05 0.000253756 0)
(-1.97109e-05 0.000243668 0)
(-6.14602e-05 0.000231194 0)
(-0.000101017 0.000216392 0)
(-0.000138119 0.000199343 0)
(-0.000172281 0.000180081 0)
(-0.000202886 0.000158889 0)
(-0.000229833 0.000135803 0)
(-0.000252267 0.000111272 0)
(-0.000270181 8.53434e-05 0)
(-0.000283041 5.85869e-05 0)
(-0.000290634 3.10013e-05 0)
(-0.000292665 3.32997e-06 0)
(-0.000288837 -2.42223e-05 0)
(-0.000279254 -5.0989e-05 0)
(-0.000263849 -7.68485e-05 0)
(-0.000243236 -0.000101129 0)
(-0.000217412 -0.000123646 0)
(-0.000186869 -0.0001436 0)
(-0.000151692 -0.000160942 0)
(-0.000112941 -0.000174954 0)
(-7.1309e-05 -0.000185552 0)
(-2.70581e-05 -0.000192235 0)
(1.85609e-05 -0.000194914 0)
(6.45906e-05 -0.000193357 0)
(0.000110116 -0.000187572 0)
(0.000154094 -0.000177495 0)
(0.000195528 -0.000163335 0)
(0.000233311 -0.00014524 0)
(0.000266465 -0.000123617 0)
(0.000294106 -9.88299e-05 0)
(0.000315336 -7.14742e-05 0)
(0.000329464 -4.21458e-05 0)
(0.000335961 -1.16007e-05 0)
(0.000334136 1.93998e-05 0)
(0.000323662 5.00204e-05 0)
(0.000304968 7.95214e-05 0)
(0.0002785 0.00010698 0)
(0.00024456 0.000131583 0)
(0.000203982 0.000152511 0)
(0.000157863 0.00016899 0)
(0.000107446 0.000180484 0)
(5.41824e-05 0.000186377 0)
(-4.8258e-07 0.000186483 0)
(-5.4556e-05 0.000180451 0)
(-0.000106479 0.000168585 0)
(-0.000154136 0.000150962 0)
(-0.000196096 0.000128224 0)
(-0.000230658 0.000101009 0)
(-0.00025644 7.02101e-05 0)
(-0.000272297 3.7022e-05 0)
(-0.00027725 2.51986e-06 0)
(-0.000270843 -3.16329e-05 0)
(-0.000253102 -6.42533e-05 0)
(-0.000225219 -9.41443e-05 0)
(-0.00018761 -0.000119665 0)
(-0.000141973 -0.000139757 0)
(-9.04782e-05 -0.000153527 0)
(-3.5172e-05 -0.000159862 0)
(2.15708e-05 -0.000158533 0)
(7.69324e-05 -0.0001494 0)
(0.000127508 -0.00013285 0)
(0.000171217 -0.000109529 0)
(0.000205603 -8.07157e-05 0)
(0.00022843 -4.7642e-05 0)
(0.000238682 -1.22254e-05 0)
(0.000234781 2.35365e-05 0)
(0.00021716 5.77314e-05 0)
(0.000186658 8.8171e-05 0)
(0.000145048 0.000113066 0)
(9.46454e-05 0.000130536 0)
(3.88097e-05 0.000139529 0)
(-1.98201e-05 0.000139045 0)
(-7.65073e-05 0.000129006 0)
(-0.000126587 0.000109878 0)
(-0.000167373 8.2923e-05 0)
(-0.000195364 4.98592e-05 0)
(-0.00020827 1.30606e-05 0)
(-0.000204505 -2.48865e-05 0)
(-0.000183767 -6.10083e-05 0)
(-0.000147688 -9.27958e-05 0)
(-9.89344e-05 -0.000117311 0)
(-4.0614e-05 -0.000132731 0)
(2.37072e-05 -0.00013735 0)
(8.78691e-05 -0.00013045 0)
(0.000145357 -0.000112682 0)
(0.00019221 -8.54252e-05 0)
(0.000224289 -5.09664e-05 0)
(0.000238486 -1.22626e-05 0)
(0.000232974 2.70576e-05 0)
(0.000208075 6.35952e-05 0)
(0.000166197 9.37231e-05 0)
(0.000111356 0.000114419 0)
(4.85351e-05 0.000123699 0)
(-1.65648e-05 0.000120325 0)
(-7.65889e-05 0.000104712 0)
(-0.000124812 7.86796e-05 0)
(-0.000156894 4.52235e-05 0)
(-0.000169539 7.82837e-06 0)
(-0.000161312 -2.89125e-05 0)
(-0.000133473 -6.11487e-05 0)
(-8.98076e-05 -8.50639e-05 0)
(-3.56737e-05 -9.78391e-05 0)
(2.3025e-05 -9.80189e-05 0)
(7.76995e-05 -8.56768e-05 0)
(0.000120805 -6.30106e-05 0)
(0.000148082 -3.32452e-05 0)
(0.000155989 -5.84209e-07 0)
(0.000144098 3.02785e-05 0)
(0.000114905 5.53175e-05 0)
(7.31987e-05 7.10776e-05 0)
(2.53008e-05 7.56252e-05 0)
(-2.16065e-05 6.80554e-05 0)
(-5.98453e-05 5.11851e-05 0)
(-8.4003e-05 2.78339e-05 0)
(-9.14451e-05 2.23766e-06 0)
(-8.21541e-05 -2.09122e-05 0)
(-5.929e-05 -3.80003e-05 0)
(-2.79292e-05 -4.62852e-05 0)
(5.81764e-06 -4.45403e-05 0)
(3.42831e-05 -3.35228e-05 0)
(5.15362e-05 -1.61871e-05 0)
(5.50096e-05 3.83309e-06 0)
(4.42971e-05 2.25811e-05 0)
(2.18248e-05 3.66454e-05 0)
(-9.99076e-06 4.35292e-05 0)
(-4.33396e-05 4.18667e-05 0)
(-7.04256e-05 3.29876e-05 0)
(-8.88476e-05 1.88906e-05 0)
(-9.58054e-05 2.15921e-06 0)
(-9.03423e-05 -1.44309e-05 0)
(-7.35787e-05 -2.86836e-05 0)
(-4.79245e-05 -3.89585e-05 0)
(-1.66347e-05 -4.43272e-05 0)
(5.70684e-06 -0.000795562 0)
(1.7817e-05 -0.000832047 0)
(2.9891e-05 -0.00083156 0)
(4.17716e-05 -0.000829574 0)
(5.3503e-05 -0.00082666 0)
(6.4856e-05 -0.000822834 0)
(7.58806e-05 -0.000817831 0)
(8.64222e-05 -0.000811708 0)
(9.67796e-05 -0.000804216 0)
(0.000106733 -0.000795441 0)
(0.000116521 -0.000785353 0)
(0.000125763 -0.000774162 0)
(0.000134648 -0.000761917 0)
(0.000143098 -0.000748787 0)
(0.000151272 -0.000734902 0)
(0.000159535 -0.000720417 0)
(0.000167875 -0.000705456 0)
(0.000176728 -0.000690163 0)
(0.000186101 -0.000674574 0)
(0.000196305 -0.000658799 0)
(0.000207386 -0.000642805 0)
(0.000219489 -0.000626633 0)
(0.000232676 -0.000610172 0)
(0.000247183 -0.000593393 0)
(0.0002629 -0.000576055 0)
(0.000279906 -0.000558323 0)
(0.000298212 -0.00053965 0)
(0.000317629 -0.000520463 0)
(0.000338257 -0.000500151 0)
(0.000360014 -0.000479166 0)
(0.000382103 -0.000457191 0)
(0.000404552 -0.000434466 0)
(0.000427145 -0.000410713 0)
(0.000449662 -0.000385942 0)
(0.000471595 -0.000360059 0)
(0.000492892 -0.000333012 0)
(0.000513767 -0.000304645 0)
(0.000533724 -0.000275114 0)
(0.000552807 -0.000244465 0)
(0.000570664 -0.000212774 0)
(0.000587093 -0.000180151 0)
(0.000601559 -0.00014666 0)
(0.000613605 -0.000112417 0)
(0.00062371 -7.7492e-05 0)
(0.000631763 -4.18209e-05 0)
(0.000636963 -5.78581e-06 0)
(0.000638994 3.04107e-05 0)
(0.000637652 6.65723e-05 0)
(0.000632809 0.000102496 0)
(0.000624215 0.000137999 0)
(0.000611897 0.000172844 0)
(0.000595282 0.000206846 0)
(0.000575145 0.000239727 0)
(0.000551013 0.000271275 0)
(0.00052301 0.000301096 0)
(0.000491002 0.000329071 0)
(0.000455472 0.000354694 0)
(0.000416305 0.000377877 0)
(0.000373803 0.000398136 0)
(0.000328308 0.000415336 0)
(0.000280018 0.00042908 0)
(0.000230012 0.000439195 0)
(0.000177663 0.00044537 0)
(0.000124337 0.00044744 0)
(7.02589e-05 0.000445209 0)
(1.58917e-05 0.000438569 0)
(-3.81667e-05 0.000427397 0)
(-9.10971e-05 0.000411658 0)
(-0.000142419 0.000391465 0)
(-0.000191259 0.000366816 0)
(-0.000237157 0.000337948 0)
(-0.000279274 0.000305017 0)
(-0.000317041 0.000268415 0)
(-0.000349615 0.00022839 0)
(-0.000376764 0.000185508 0)
(-0.00039779 0.000140192 0)
(-0.000412244 9.31366e-05 0)
(-0.000420097 4.48847e-05 0)
(-0.000420213 -3.78719e-06 0)
(-0.000412413 -5.22447e-05 0)
(-0.00039725 -9.94958e-05 0)
(-0.00037489 -0.000145103 0)
(-0.000345473 -0.000187978 0)
(-0.000308918 -0.00022746 0)
(-0.000266166 -0.000262644 0)
(-0.000217597 -0.00029282 0)
(-0.000164083 -0.000317396 0)
(-0.000106697 -0.000335565 0)
(-4.60848e-05 -0.000346961 0)
(1.61454e-05 -0.000351096 0)
(7.89024e-05 -0.00034775 0)
(0.00014084 -0.000336776 0)
(0.000200585 -0.000318246 0)
(0.000256675 -0.000292397 0)
(0.000307781 -0.000259626 0)
(0.000352477 -0.00022053 0)
(0.000389605 -0.000175856 0)
(0.000417946 -0.000126656 0)
(0.000436576 -7.39048e-05 0)
(0.00044476 -1.90847e-05 0)
(0.000441799 3.64347e-05 0)
(0.000427464 9.13368e-05 0)
(0.000402118 0.000144022 0)
(0.000366124 0.000193058 0)
(0.000320246 0.00023684 0)
(0.000265442 0.000273929 0)
(0.000203203 0.000303004 0)
(0.000135233 0.000323067 0)
(6.34488e-05 0.000333093 0)
(-1.00845e-05 0.000332704 0)
(-8.27835e-05 0.000321476 0)
(-0.000152119 0.000299699 0)
(-0.000215873 0.000267783 0)
(-0.000271562 0.000226659 0)
(-0.000317147 0.000177683 0)
(-0.000350602 0.000122318 0)
(-0.000370827 6.28177e-05 0)
(-0.000376056 1.14813e-06 0)
(-0.00036574 -5.99899e-05 0)
(-0.000340976 -0.000118512 0)
(-0.000301872 -0.000171597 0)
(-0.000249973 -0.000217097 0)
(-0.000187868 -0.000252614 0)
(-0.000117191 -0.000276473 0)
(-4.14123e-05 -0.000287419 0)
(3.56487e-05 -0.000284229 0)
(0.000110396 -0.000267218 0)
(0.000178786 -0.000237025 0)
(0.000237369 -0.000194669 0)
(0.000283086 -0.000142539 0)
(0.000313297 -8.28515e-05 0)
(0.000325737 -1.92072e-05 0)
(0.000319478 4.52262e-05 0)
(0.000294285 0.000106519 0)
(0.000251884 0.000161071 0)
(0.000194289 0.000205331 0)
(0.00012507 0.000236454 0)
(4.82716e-05 0.00025217 0)
(-3.19443e-05 0.000250549 0)
(-0.000109131 0.000231891 0)
(-0.000177507 0.00019708 0)
(-0.000232789 0.000148318 0)
(-0.000270619 8.87873e-05 0)
(-0.000287878 2.2535e-05 0)
(-0.000282468 -4.54978e-05 0)
(-0.000254312 -0.000110385 0)
(-0.000205484 -0.00016704 0)
(-0.000139313 -0.00021068 0)
(-6.06112e-05 -0.000237916 0)
(2.61848e-05 -0.000245575 0)
(0.000112188 -0.000232748 0)
(0.000189085 -0.000200469 0)
(0.000251321 -0.000151309 0)
(0.000293508 -8.92915e-05 0)
(0.000311526 -2.00656e-05 0)
(0.000303098 5.03428e-05 0)
(0.000268908 0.000115183 0)
(0.000211926 0.000168492 0)
(0.000137864 0.000204856 0)
(5.3499e-05 0.000220611 0)
(-3.34007e-05 0.000213467 0)
(-0.000112738 0.000184935 0)
(-0.000175617 0.000137938 0)
(-0.000216659 7.76891e-05 0)
(-0.000231362 1.10324e-05 0)
(-0.000218035 -5.44712e-05 0)
(-0.000178999 -0.000111322 0)
(-0.000119101 -0.00015316 0)
(-4.5689e-05 -0.000174923 0)
(3.2854e-05 -0.000174028 0)
(0.000105137 -0.000151097 0)
(0.000161214 -0.000109928 0)
(0.000195494 -5.64248e-05 0)
(0.00020366 1.81347e-06 0)
(0.000185485 5.65701e-05 0)
(0.000144626 0.000100469 0)
(8.7695e-05 0.000127507 0)
(2.28031e-05 0.000134399 0)
(-3.92096e-05 0.000119857 0)
(-8.8137e-05 8.87957e-05 0)
(-0.000117914 4.65839e-05 0)
(-0.0001248 8.4577e-07 0)
(-0.000109317 -4.03443e-05 0)
(-7.61135e-05 -7.03328e-05 0)
(-3.20921e-05 -8.42168e-05 0)
(1.43253e-05 -7.99679e-05 0)
(5.2719e-05 -5.95782e-05 0)
(7.54484e-05 -2.83279e-05 0)
(7.9457e-05 7.32761e-06 0)
(6.46618e-05 4.04436e-05 0)
(3.46019e-05 6.48807e-05 0)
(-6.92524e-06 7.64935e-05 0)
(-4.97406e-05 7.29765e-05 0)
(-8.4053e-05 5.69763e-05 0)
(-0.00010685 3.22305e-05 0)
(-0.000114975 3.34575e-06 0)
(-0.000107798 -2.48484e-05 0)
(-8.72392e-05 -4.87066e-05 0)
(-5.6535e-05 -6.56793e-05 0)
(-1.95696e-05 -7.44497e-05 0)
(1.27109e-05 -5.47523e-05 0)
(4.14196e-05 -4.39517e-05 0)
(7.06213e-05 -3.99513e-05 0)
(0.000100915 -3.45078e-05 0)
(0.000132074 -2.69179e-05 0)
(0.000164496 -1.81986e-05 0)
(0.000197748 -7.07603e-06 0)
(0.000231953 4.00302e-06 0)
(0.000267249 1.67584e-05 0)
(0.000302006 2.82464e-05 0)
(0.000335706 3.88929e-05 0)
(0.000367796 4.70185e-05 0)
(0.000398504 5.29416e-05 0)
(0.00042736 5.58041e-05 0)
(0.000454511 5.5881e-05 0)
(0.000479976 5.2778e-05 0)
(0.000503726 4.69996e-05 0)
(0.000526379 3.79672e-05 0)
(0.000547993 2.71071e-05 0)
(0.000568893 1.39774e-05 0)
(0.000589688 -9.14298e-07 0)
(0.000610858 -1.73836e-05 0)
(0.000632511 -3.45488e-05 0)
(0.000655482 -5.26228e-05 0)
(0.000678597 -7.01831e-05 0)
(0.000703228 -8.76657e-05 0)
(0.000728023 -0.000103592 0)
(0.000753131 -0.000118488 0)
(0.000778128 -0.000130696 0)
(0.000801459 -0.000141066 0)
(0.000824071 -0.00014846 0)
(0.00084562 -0.000153545 0)
(0.000867221 -0.000155676 0)
(0.000887795 -0.000155191 0)
(0.000907512 -0.000151841 0)
(0.000926741 -0.00014554 0)
(0.00094467 -0.000136181 0)
(0.000960533 -0.000123664 0)
(0.000974642 -0.000107846 0)
(0.00098641 -8.86401e-05 0)
(0.00099585 -6.6102e-05 0)
(0.00100285 -4.03267e-05 0)
(0.00100722 -1.1431e-05 0)
(0.00100916 2.03839e-05 0)
(0.00100698 5.46103e-05 0)
(0.000999648 9.12703e-05 0)
(0.000988019 0.000130245 0)
(0.000972116 0.000171053 0)
(0.000952034 0.000213239 0)
(0.000927567 0.000256614 0)
(0.000898884 0.000300423 0)
(0.000865823 0.000344336 0)
(0.000828353 0.000387811 0)
(0.000786 0.000430272 0)
(0.000739502 0.000470976 0)
(0.000688379 0.000509735 0)
(0.0006331 0.000545719 0)
(0.000573738 0.000578247 0)
(0.000510375 0.000607161 0)
(0.000443978 0.000631378 0)
(0.000374184 0.000651094 0)
(0.000302111 0.000665263 0)
(0.000227805 0.00067378 0)
(0.000152354 0.000676173 0)
(7.62386e-05 0.000672136 0)
(1.72739e-07 0.000661427 0)
(-7.49698e-05 0.000643929 0)
(-0.000148364 0.000619608 0)
(-0.000219244 0.000588409 0)
(-0.000286466 0.000550606 0)
(-0.00034926 0.000506247 0)
(-0.000406712 0.000455851 0)
(-0.000457967 0.000399751 0)
(-0.000502327 0.000338624 0)
(-0.000538609 0.000272987 0)
(-0.000566488 0.000203846 0)
(-0.000585127 0.000131775 0)
(-0.000594241 5.8039e-05 0)
(-0.000593357 -1.63188e-05 0)
(-0.000581677 -9.0223e-05 0)
(-0.000560039 -0.000162514 0)
(-0.000528337 -0.000231927 0)
(-0.000486632 -0.000297226 0)
(-0.000435568 -0.000357091 0)
(-0.000375687 -0.000410524 0)
(-0.000308114 -0.000456109 0)
(-0.000233766 -0.000493006 0)
(-0.000154068 -0.000520125 0)
(-7.02503e-05 -0.000536757 0)
(1.59445e-05 -0.000542431 0)
(0.000102615 -0.000536448 0)
(0.000188051 -0.000518849 0)
(0.000270213 -0.00048966 0)
(0.000347287 -0.000449186 0)
(0.000417343 -0.000398182 0)
(0.000478588 -0.000337521 0)
(0.00052916 -0.000268455 0)
(0.000567727 -0.000192448 0)
(0.000592724 -0.000111268 0)
(0.000602935 -2.68874e-05 0)
(0.000598267 5.8575e-05 0)
(0.000578084 0.000143012 0)
(0.000542785 0.000223812 0)
(0.00049301 0.000298866 0)
(0.000429337 0.000365645 0)
(0.000353461 0.000422132 0)
(0.00026763 0.000466178 0)
(0.000173925 0.000496386 0)
(7.52751e-05 0.000511146 0)
(-2.54716e-05 0.000509743 0)
(-0.000124879 0.000491802 0)
(-0.000219587 0.000457427 0)
(-0.000306276 0.000407743 0)
(-0.000381655 0.00034394 0)
(-0.000443101 0.000267935 0)
(-0.000487628 0.000182704 0)
(-0.000513411 9.06574e-05 0)
(-0.000518867 -4.10462e-06 0)
(-0.000503563 -9.82156e-05 0)
(-0.000467733 -0.000187818 0)
(-0.000412652 -0.000269091 0)
(-0.000339947 -0.000338321 0)
(-0.00025249 -0.00039227 0)
(-0.000154626 -0.000428224 0)
(-4.95312e-05 -0.000443805 0)
(5.74687e-05 -0.000438009 0)
(0.00016027 -0.000410978 0)
(0.000254298 -0.000363354 0)
(0.000334544 -0.000297385 0)
(0.000396726 -0.00021614 0)
(0.000436918 -0.000123662 0)
(0.000452733 -2.5009e-05 0)
(0.000442545 7.42657e-05 0)
(0.000406417 0.000168717 0)
(0.000346279 0.000252592 0)
(0.000265457 0.000320247 0)
(0.000168666 0.000367748 0)
(6.09409e-05 0.000390894 0)
(-5.09354e-05 0.000387575 0)
(-0.000157862 0.000358191 0)
(-0.000252407 0.000303851 0)
(-0.000328589 0.000228124 0)
(-0.000380511 0.0001356 0)
(-0.00040373 3.35932e-05 0)
(-0.000395805 -7.1679e-05 0)
(-0.000356724 -0.000171204 0)
(-0.000288853 -0.000258196 0)
(-0.000197617 -0.000324675 0)
(-8.87902e-05 -0.000365532 0)
(3.04849e-05 -0.000376706 0)
(0.00014818 -0.000355956 0)
(0.000253197 -0.00030552 0)
(0.000337838 -0.000229291 0)
(0.000394317 -0.000133713 0)
(0.000417381 -2.71791e-05 0)
(0.000404332 8.02701e-05 0)
(0.000356119 0.0001792 0)
(0.000277324 0.000259909 0)
(0.000175291 0.000314578 0)
(5.91582e-05 0.000337318 0)
(-5.90341e-05 0.000324614 0)
(-0.000165715 0.000279657 0)
(-0.000249989 0.000206738 0)
(-0.000303413 0.000113927 0)
(-0.000320455 1.15213e-05 0)
(-0.000299483 -8.81683e-05 0)
(-0.00024372 -0.000174495 0)
(-0.000160144 -0.000237004 0)
(-5.86528e-05 -0.000268736 0)
(4.8473e-05 -0.000265207 0)
(0.00014579 -0.000228378 0)
(0.000220346 -0.000164161 0)
(0.000264309 -8.15392e-05 0)
(0.000272247 7.61489e-06 0)
(0.000244506 9.09508e-05 0)
(0.000186357 0.000156817 0)
(0.000107095 0.000196391 0)
(1.7962e-05 0.000204843 0)
(-6.57397e-05 0.000180906 0)
(-0.000130058 0.000131681 0)
(-0.000167397 6.60529e-05 0)
(-0.000172989 -4.10044e-06 0)
(-0.000148216 -6.69348e-05 0)
(-9.962e-05 -0.000111721 0)
(-3.68186e-05 -0.000131851 0)
(2.77347e-05 -0.000123122 0)
(7.98996e-05 -9.09789e-05 0)
(0.000110039 -4.23641e-05 0)
(0.000114503 1.22861e-05 0)
(9.35608e-05 6.23703e-05 0)
(5.23812e-05 9.85954e-05 0)
(-3.12631e-06 0.000115106 0)
(-5.93774e-05 0.000108733 0)
(-0.000103646 8.39923e-05 0)
(-0.000132132 4.67467e-05 0)
(-0.000141392 4.19245e-06 0)
(-0.000131472 -3.66334e-05 0)
(-0.0001055 -7.05412e-05 0)
(-6.78457e-05 -9.42416e-05 0)
(-2.33715e-05 -0.000106325 0)
(1.74254e-05 -0.00111824 0)
(5.58781e-05 -0.00117128 0)
(9.39601e-05 -0.00117678 0)
(0.000132317 -0.00118327 0)
(0.00016779 -0.00118814 0)
(0.000205041 -0.00119531 0)
(0.000237818 -0.00119669 0)
(0.000265813 -0.0011991 0)
(0.000282842 -0.00118899 0)
(0.000284455 -0.00117091 0)
(0.000277895 -0.00113956 0)
(0.000262797 -0.0011049 0)
(0.000243692 -0.00106475 0)
(0.000220886 -0.00102434 0)
(0.000197187 -0.000983012 0)
(0.000174206 -0.000943598 0)
(0.000151519 -0.000906537 0)
(0.000133946 -0.000872289 0)
(0.00012135 -0.000841455 0)
(0.000111733 -0.000816454 0)
(0.00010689 -0.000795403 0)
(0.000108501 -0.000778929 0)
(0.000114734 -0.000764649 0)
(0.000128569 -0.000755228 0)
(0.000148256 -0.000745032 0)
(0.00017447 -0.000738678 0)
(0.000206061 -0.000726849 0)
(0.000243978 -0.000718385 0)
(0.000285915 -0.000700175 0)
(0.000330196 -0.000684011 0)
(0.000376373 -0.000660591 0)
(0.000422823 -0.000636146 0)
(0.000470908 -0.000606873 0)
(0.000518653 -0.000574833 0)
(0.000567233 -0.000538824 0)
(0.000615538 -0.000499356 0)
(0.000663187 -0.000456637 0)
(0.000709596 -0.000410627 0)
(0.000754778 -0.000361626 0)
(0.000797692 -0.00030979 0)
(0.000837596 -0.000255222 0)
(0.000873895 -0.000198071 0)
(0.000905873 -0.000138459 0)
(0.000932511 -7.67769e-05 0)
(0.00095454 -1.32689e-05 0)
(0.000972698 5.2445e-05 0)
(0.000984922 0.000119553 0)
(0.000989914 0.000187395 0)
(0.000988721 0.000255988 0)
(0.000980136 0.000324456 0)
(0.000963781 0.000392778 0)
(0.000940099 0.000459803 0)
(0.000908912 0.000525512 0)
(0.000869256 0.000588866 0)
(0.000822759 0.000649487 0)
(0.000769101 0.000706317 0)
(0.000707227 0.000758958 0)
(0.000639395 0.000806424 0)
(0.000564695 0.000848332 0)
(0.000484737 0.000883594 0)
(0.00039997 0.000911866 0)
(0.000310517 0.000932285 0)
(0.000217805 0.000944471 0)
(0.000122533 0.000947882 0)
(2.57612e-05 0.000942051 0)
(-7.14197e-05 0.000926816 0)
(-0.000167723 0.00090185 0)
(-0.000262152 0.000867125 0)
(-0.000353328 0.000822647 0)
(-0.00044007 0.000768756 0)
(-0.000521186 0.000705666 0)
(-0.000595169 0.000633999 0)
(-0.00066106 0.000554154 0)
(-0.00071754 0.000467141 0)
(-0.000763586 0.000373953 0)
(-0.000798572 0.000275642 0)
(-0.000821388 0.000173474 0)
(-0.000830934 6.89101e-05 0)
(-0.00082692 -3.63854e-05 0)
(-0.000808939 -0.000140906 0)
(-0.000777251 -0.00024322 0)
(-0.000732079 -0.000341312 0)
(-0.000673617 -0.000433511 0)
(-0.00060264 -0.000517955 0)
(-0.000519998 -0.000593039 0)
(-0.000426716 -0.000657041 0)
(-0.000324669 -0.000708515 0)
(-0.000215386 -0.000746143 0)
(-0.000101127 -0.000768681 0)
(1.6354e-05 -0.000775631 0)
(0.000134651 -0.000765937 0)
(0.000250732 -0.000739863 0)
(0.000362562 -0.000697157 0)
(0.000467099 -0.000638744 0)
(0.000561829 -0.000565284 0)
(0.000644345 -0.000478234 0)
(0.000712336 -0.000379281 0)
(0.000763702 -0.000270491 0)
(0.000796598 -0.000154704 0)
(0.000809859 -3.43012e-05 0)
(0.000802866 8.76161e-05 0)
(0.00077463 0.000207643 0)
(0.000725842 0.000322698 0)
(0.000657385 0.000429076 0)
(0.000570474 0.000523438 0)
(0.000467187 0.000603249 0)
(0.000350506 0.00066507 0)
(0.000223406 0.000707034 0)
(8.93444e-05 0.000726886 0)
(-4.71453e-05 0.00072367 0)
(-0.000181856 0.000696925 0)
(-0.000309516 0.000647216 0)
(-0.00042596 0.000575125 0)
(-0.000527407 0.000483589 0)
(-0.000608883 0.000374676 0)
(-0.000667672 0.000252602 0)
(-0.000701093 0.000121608 0)
(-0.00070622 -1.36033e-05 0)
(-0.000683306 -0.000147502 0)
(-0.000632995 -0.000275094 0)
(-0.000556225 -0.000390312 0)
(-0.000455885 -0.000488258 0)
(-0.000336502 -0.000564043 0)
(-0.00020167 -0.000613974 0)
(-5.76853e-05 -0.000635043 0)
(8.74769e-05 -0.000625517 0)
(0.000227459 -0.000585297 0)
(0.000355121 -0.000515908 0)
(0.000463428 -0.000420672 0)
(0.0005469 -0.00030367 0)
(0.000600296 -0.000170953 0)
(0.000619637 -2.96095e-05 0)
(0.00060389 0.000112416 0)
(0.000553134 0.000247204 0)
(0.000469361 0.00036639 0)
(0.000357726 0.000462989 0)
(0.000224284 0.000529351 0)
(7.59325e-05 0.000561804 0)
(-7.6619e-05 0.000555759 0)
(-0.000222406 0.000512434 0)
(-0.000351533 0.000433677 0)
(-0.00045536 0.000324355 0)
(-0.000525085 0.000191881 0)
(-0.000555965 4.52318e-05 0)
(-0.000544392 -0.000104553 0)
(-0.000490201 -0.000246758 0)
(-0.000397439 -0.0003699 0)
(-0.000272205 -0.000464202 0)
(-0.00012447 -0.000521134 0)
(3.73685e-05 -0.000535755 0)
(0.000196724 -0.000504876 0)
(0.000338097 -0.000432181 0)
(0.000451308 -0.000322605 0)
(0.000526176 -0.000186101 0)
(0.000555141 -3.45484e-05 0)
(0.000535457 0.000118601 0)
(0.000468902 0.000258362 0)
(0.00036102 0.000371927 0)
(0.000222273 0.000447621 0)
(6.45607e-05 0.000478083 0)
(-9.44022e-05 0.000458203 0)
(-0.000236314 0.000392461 0)
(-0.000347542 0.000287538 0)
(-0.000416939 0.000154828 0)
(-0.000436423 9.41796e-06 0)
(-0.000404708 -0.000131702 0)
(-0.000326748 -0.000252794 0)
(-0.000211737 -0.000339584 0)
(-7.33455e-05 -0.000382404 0)
(7.11552e-05 -0.000374043 0)
(0.00020049 -0.000319845 0)
(0.000298394 -0.00022675 0)
(0.000354256 -0.000108739 0)
(0.000361344 1.79526e-05 0)
(0.000320415 0.000135339 0)
(0.000239007 0.00022683 0)
(0.000130346 0.000280427 0)
(9.54967e-06 0.000289339 0)
(-0.000102112 0.000252892 0)
(-0.000185939 0.000180703 0)
(-0.000232329 8.61885e-05 0)
(-0.000235658 -1.37102e-05 0)
(-0.000198096 -0.000102107 0)
(-0.000129149 -0.000164134 0)
(-4.14873e-05 -0.000190474 0)
(4.66499e-05 -0.000175565 0)
(0.000116102 -0.0001281 0)
(0.000155657 -5.83264e-05 0)
(0.000159958 1.92375e-05 0)
(0.000130321 8.93165e-05 0)
(7.43422e-05 0.000139035 0)
(7.50043e-07 0.000160506 0)
(-7.24644e-05 0.000149969 0)
(-0.000128967 0.000114344 0)
(-0.000164086 6.23249e-05 0)
(-0.000174154 4.20555e-06 0)
(-0.000160281 -5.03186e-05 0)
(-0.000127274 -9.46268e-05 0)
(-8.11477e-05 -0.000124911 0)
(-2.78167e-05 -0.000140128 0)
(4.22892e-06 -0.000554025 0)
(1.98193e-05 -0.00056391 0)
(3.4463e-05 -0.000545357 0)
(6.58608e-05 -0.000516833 0)
(0.000101754 -0.000468948 0)
(0.000166514 -0.000409403 0)
(0.000235217 -0.000305309 0)
(0.000329516 -0.000197331 0)
(0.000428295 -1.94818e-05 0)
(0.000510233 0.000115393 0)
(0.000592803 0.000226085 0)
(0.000649805 0.000294518 0)
(0.000694929 0.000342583 0)
(0.000719749 0.000367071 0)
(0.000734653 0.000372836 0)
(0.000735346 0.000360459 0)
(0.000730519 0.000331647 0)
(0.000720424 0.000288378 0)
(0.000704423 0.000232628 0)
(0.00068647 0.000165738 0)
(0.000665904 9.12464e-05 0)
(0.000652863 4.25847e-06 0)
(0.000643661 -8.30459e-05 0)
(0.000651105 -0.000176631 0)
(0.000664181 -0.000262054 0)