/*--------------------------------*- C++ -*----------------------------------*\
  =========                 |
  \\      /  F ield         | OpenFOAM: The Open Source CFD Toolbox
   \\    /   O peration     | Website:  https://openfoam.org
    \\  /    A nd           | Version:  12
     \\/     M anipulation  |
\*---------------------------------------------------------------------------*/
FoamFile
{
    format      ascii;
    class       volVectorField;
    location    "16";
    object      zeta;
}
// * * * * * * * * * * * * * * * * * * * * * * * * * * * * * * * * * * * * * //

dimensions      [0 1 0 0 0 0 0];

internalField   uniform (0 0 0);

boundaryField
{
    freeSurface
    {
        type            calculated;
        value           nonuniform List<vector> 
181
(
(0 0.00609511 0)
(0 0.00609483 0)
(0 0.00609419 0)
(0 0.00609315 0)
(0 0.00609237 0)
(0 0.006091 0)
(0 0.00609102 0)
(0 0.00608912 0)
(0 0.000773825 0)
(0 0.000781295 0)
(0 0.000798027 0)
(0 0.000820822 0)
(0 0.000847965 0)
(0 0.000882165 0)
(0 0.000919642 0)
(0 0.000961237 0)
(0 0.00100489 0)
(0 0.0010506 0)
(0 0.00109645 0)
(0 0.00114187 0)
(0 0.00118515 0)
(0 0.00122547 0)
(0 0.0012618 0)
(0 0.00129351 0)
(0 0.00131984 0)
(0 0.00134013 0)
(0 0.00135343 0)
(0 0.001359 0)
(0 0.00135607 0)
(0 0.00134416 0)
(0 0.00132306 0)
(0 0.00129241 0)
(0 0.00125205 0)
(0 0.00120195 0)
(0 0.00114199 0)
(0 0.00107234 0)
(0 0.000993258 0)
(0 0.000905221 0)
(0 0.000808742 0)
(0 0.000704505 0)
(0 0.000593291 0)
(0 0.000475876 0)
(0 0.000353266 0)
(0 0.000226591 0)
(0 9.71928e-05 0)
(0 -3.35462e-05 0)
(0 -0.000164291 0)
(0 -0.00029349 0)
(0 -0.000419401 0)
(0 -0.000540473 0)
(0 -0.000654885 0)
(0 -0.000760949 0)
(0 -0.000856937 0)
(0 -0.000941152 0)
(0 -0.00101214 0)
(0 -0.00106856 0)
(0 -0.00110919 0)
(0 -0.00113295 0)
(0 -0.00113901 0)
(0 -0.00112672 0)
(0 -0.00109586 0)
(0 -0.0010464 0)
(0 -0.000978608 0)
(0 -0.000893133 0)
(0 -0.000790977 0)
(0 -0.000673428 0)
(0 -0.000542468 0)
(0 -0.000400083 0)
(0 -0.000248899 0)
(0 -9.17321e-05 0)
(0 6.83364e-05 0)
(0 0.000228188 0)
(0 0.000384115 0)
(0 0.000532787 0)
(0 0.000670656 0)
(0 0.000794162 0)
(0 0.000899985 0)
(0 0.000985113 0)
(0 0.00104677 0)
(0 0.00108274 0)
(0 0.00109139 0)
(0 0.0010716 0)
(0 0.00102316 0)
(0 0.000946749 0)
(0 0.000843782 0)
(0 0.000716392 0)
(0 0.000567606 0)
(0 0.000401408 0)
(0 0.0002223 0)
(0 3.58139e-05 0)
(0 -0.000152197 0)
(0 -0.000335943 0)
(0 -0.000508859 0)
(0 -0.000664766 0)
(0 -0.000797712 0)
(0 -0.000902584 0)
(0 -0.000974598 0)
(0 -0.00101043 0)
(0 -0.00100789 0)
(0 -0.000966165 0)
(0 -0.000886194 0)
(0 -0.000770355 0)
(0 -0.000622707 0)
(0 -0.000449269 0)
(0 -0.000256867 0)
(0 -5.42167e-05 0)
(0 0.000149501 0)
(0 0.000344999 0)
(0 0.000522077 0)
(0 0.000671502 0)
(0 0.000784589 0)
(0 0.000854654 0)
(0 0.000876543 0)
(0 0.000848633 0)
(0 0.000771167 0)
(0 0.000648107 0)
(0 0.000486197 0)
(0 0.000294938 0)
(0 8.64748e-05 0)
(0 -0.000125302 0)
(0 -0.00032714 0)
(0 -0.000504711 0)
(0 -0.000644887 0)
(0 -0.000737048 0)
(0 -0.00077379 0)
(0 -0.000751482 0)
(0 -0.000671408 0)
(0 -0.000539448 0)
(0 -0.000365537 0)
(0 -0.000164144 0)
(0 4.7228e-05 0)
(0 0.000251459 0)
(0 0.000430649 0)
(0 0.000567891 0)
(0 0.000649985 0)
(0 0.000668513 0)
(0 0.000621476 0)
(0 0.000512832 0)
(0 0.000353022 0)
(0 0.000158368 0)
(0 -5.06565e-05 0)
(0 -0.000252109 0)
(0 -0.000425275 0)
(0 -0.00055028 0)
(0 -0.000612601 0)
(0 -0.000604864 0)
(0 -0.000528132 0)
(0 -0.000391867 0)
(0 -0.000213208 0)
(0 -1.54125e-05 0)
(0 0.000175766 0)
(0 0.000337098 0)
(0 0.000446617 0)
(0 0.000489534 0)
(0 0.00046065 0)
(0 0.00036531 0)
(0 0.000218961 0)
(0 4.52792e-05 0)
(0 -0.000127121 0)
(0 -0.000272629 0)
(0 -0.000367645 0)
(0 -0.000397003 0)
(0 -0.000356978 0)
(0 -0.000256477 0)
(0 -0.000115523 0)
(0 3.80676e-05 0)
(0 0.000174994 0)
(0 0.000270175 0)
(0 0.000304587 0)
(0 0.000271845 0)
(0 0.000180272 0)
(0 5.10481e-05 0)
(0 -8.63296e-05 0)
(0 -0.000200783 0)
(0 -0.000266762 0)
(0 -0.000267617 0)
(0 -0.000203159 0)
(0 -8.9863e-05 0)
(0 4.31115e-05 0)
(0 0.000160467 0)
(0 0.000229609 0)
)
;
    }
    walls
    {
        type            calculated;
        value           uniform (0 0 0);
    }
    floatingObject
    {
        type            calculated;
        value           uniform (0 0 0);
    }
    frontAndBack
    {
        type            empty;
    }
}


// ************************************************************************* //
