#           v             n
     0.523599             0
     0.648652             0
     0.790112             0
     0.953116             0
      1.13449             0
      1.34047             0
      1.56672             0
      1.82069             0
      2.09677   5.92111e-05
      2.40376   0.000415209
      2.73462    0.00148154
      3.09966    0.00326407
      3.49026     0.0055302
      3.91837    0.00737756
      4.37366    0.00840433
      4.86986    0.00760266
       5.3948    0.00563666
      5.96412    0.00327572
      6.56366    0.00156865
      7.21112   0.000604327
      7.89023   0.000196845
      8.62085   5.30992e-05
      9.38447   1.24024e-05
      10.2033   2.45556e-06
      11.0564   4.28999e-07
      11.9684   6.46822e-08
      12.9159   8.73357e-09
      13.9262   1.03204e-09
      14.9731   2.55171e-10
