/*--------------------------------*- C++ -*----------------------------------*\
  =========                 |
  \\      /  F ield         | OpenFOAM: The Open Source CFD Toolbox
   \\    /   O peration     | Website:  https://openfoam.org
    \\  /    A nd           | Version:  12
     \\/     M anipulation  |
\*---------------------------------------------------------------------------*/
FoamFile
{
    format      ascii;
    class       volVectorField;
    location    "12.66";
    object      zeta;
}
// * * * * * * * * * * * * * * * * * * * * * * * * * * * * * * * * * * * * * //

dimensions      [0 1 0 0 0 0 0];

internalField   uniform (0 0 0);

boundaryField
{
    freeSurface
    {
        type            calculated;
        value           nonuniform List<vector> 
181
(
(0 -0.0034953 0)
(0 -0.00349479 0)
(0 -0.0034944 0)
(0 -0.00349466 0)
(0 -0.00349401 0)
(0 -0.0034947 0)
(0 -0.00349395 0)
(0 -0.0034949 0)
(0 0.000674925 0)
(0 0.000660704 0)
(0 0.000641565 0)
(0 0.000622318 0)
(0 0.000583199 0)
(0 0.000544021 0)
(0 0.000491918 0)
(0 0.000435288 0)
(0 0.000370047 0)
(0 0.000299854 0)
(0 0.000223671 0)
(0 0.000142624 0)
(0 5.69721e-05 0)
(0 -3.25456e-05 0)
(0 -0.000125061 0)
(0 -0.000219459 0)
(0 -0.000314804 0)
(0 -0.00041013 0)
(0 -0.000504672 0)
(0 -0.000597553 0)
(0 -0.000687897 0)
(0 -0.000774711 0)
(0 -0.000857 0)
(0 -0.000933783 0)
(0 -0.00100414 0)
(0 -0.00106726 0)
(0 -0.00112239 0)
(0 -0.0011686 0)
(0 -0.00120516 0)
(0 -0.00123135 0)
(0 -0.00124642 0)
(0 -0.00124996 0)
(0 -0.00124144 0)
(0 -0.00122048 0)
(0 -0.00118697 0)
(0 -0.0011409 0)
(0 -0.00108238 0)
(0 -0.00101168 0)
(0 -0.000929268 0)
(0 -0.000835821 0)
(0 -0.000732162 0)
(0 -0.000619476 0)
(0 -0.000498736 0)
(0 -0.000371501 0)
(0 -0.000239226 0)
(0 -0.000103522 0)
(0 3.38572e-05 0)
(0 0.000170861 0)
(0 0.000305439 0)
(0 0.000435551 0)
(0 0.000559032 0)
(0 0.000673572 0)
(0 0.000776948 0)
(0 0.000867071 0)
(0 0.00094213 0)
(0 0.00100017 0)
(0 0.00103962 0)
(0 0.00105928 0)
(0 0.00105808 0)
(0 0.0010356 0)
(0 0.000991693 0)
(0 0.000926756 0)
(0 0.000841606 0)
(0 0.000737506 0)
(0 0.000616346 0)
(0 0.000480519 0)
(0 0.000332871 0)
(0 0.000176667 0)
(0 1.58061e-05 0)
(0 -0.000146002 0)
(0 -0.000304668 0)
(0 -0.000455876 0)
(0 -0.000595406 0)
(0 -0.000719157 0)
(0 -0.000823487 0)
(0 -0.000904822 0)
(0 -0.000960373 0)
(0 -0.000988026 0)
(0 -0.000986229 0)
(0 -0.000954417 0)
(0 -0.000893124 0)
(0 -0.000803765 0)
(0 -0.000688794 0)
(0 -0.00055152 0)
(0 -0.000396267 0)
(0 -0.000228276 0)
(0 -5.32222e-05 0)
(0 0.000122473 0)
(0 0.000292613 0)
(0 0.000450337 0)
(0 0.000589455 0)
(0 0.000704132 0)
(0 0.000789372 0)
(0 0.000841054 0)
(0 0.000856547 0)
(0 0.000834824 0)
(0 0.000776676 0)
(0 0.00068396 0)
(0 0.000560729 0)
(0 0.000412719 0)
(0 0.00024688 0)
(0 7.12337e-05 0)
(0 -0.00010529 0)
(0 -0.000273749 0)
(0 -0.000425024 0)
(0 -0.000551086 0)
(0 -0.000644576 0)
(0 -0.000700182 0)
(0 -0.000714616 0)
(0 -0.00068697 0)
(0 -0.000618911 0)
(0 -0.000514836 0)
(0 -0.000381545 0)
(0 -0.000227953 0)
(0 -6.48364e-05 0)
(0 9.6798e-05 0)
(0 0.000245651 0)
(0 0.000370897 0)
(0 0.000463258 0)
(0 0.000515934 0)
(0 0.000525154 0)
(0 0.000490506 0)
(0 0.000415237 0)
(0 0.00030604 0)
(0 0.00017279 0)
(0 2.7697e-05 0)
(0 -0.000115863 0)
(0 -0.000245483 0)
(0 -0.000348665 0)
(0 -0.000415752 0)
(0 -0.000440496 0)
(0 -0.000420983 0)
(0 -0.00035982 0)
(0 -0.000264162 0)
(0 -0.000144914 0)
(0 -1.57313e-05 0)
(0 0.000108546 0)
(0 0.000214777 0)
(0 0.000290759 0)
(0 0.000328233 0)
(0 0.000323602 0)
(0 0.000278825 0)
(0 0.000200974 0)
(0 0.000101453 0)
(0 -5.44991e-06 0)
(0 -0.000105014 0)
(0 -0.000184314 0)
(0 -0.000232932 0)
(0 -0.000245505 0)
(0 -0.000222314 0)
(0 -0.000169335 0)
(0 -9.73793e-05 0)
(0 -2.00657e-05 0)
(0 5.01263e-05 0)
(0 0.000102382 0)
(0 0.000130034 0)
(0 0.000131693 0)
(0 0.000110753 0)
(0 7.39691e-05 0)
(0 3.11073e-05 0)
(0 -9.16622e-06 0)
(0 -3.96273e-05 0)
(0 -5.63774e-05 0)
(0 -5.9185e-05 0)
(0 -5.09455e-05 0)
(0 -3.61053e-05 0)
(0 -2.00572e-05 0)
(0 -7.14025e-06 0)
(0 -1.18267e-07 0)
(0 7.76077e-07 0)
(0 -2.7626e-06 0)
(0 -7.82638e-06 0)
(0 -1.13767e-05 0)
)
;
    }
    walls
    {
        type            calculated;
        value           uniform (0 0 0);
    }
    floatingObject
    {
        type            calculated;
        value           uniform (0 0 0);
    }
    frontAndBack
    {
        type            empty;
    }
}


// ************************************************************************* //
