/*--------------------------------*- C++ -*----------------------------------*\
  =========                 |
  \\      /  F ield         | OpenFOAM: The Open Source CFD Toolbox
   \\    /   O peration     | Website:  https://openfoam.org
    \\  /    A nd           | Version:  12
     \\/     M anipulation  |
\*---------------------------------------------------------------------------*/
FoamFile
{
    format      ascii;
    class       volVectorField;
    location    "18.8";
    object      zeta;
}
// * * * * * * * * * * * * * * * * * * * * * * * * * * * * * * * * * * * * * //

dimensions      [0 1 0 0 0 0 0];

internalField   uniform (0 0 0);

boundaryField
{
    freeSurface
    {
        type            calculated;
        value           nonuniform List<vector> 
181
(
(0 0.00177282 0)
(0 0.00177336 0)
(0 0.00177221 0)
(0 0.00176985 0)
(0 0.00176758 0)
(0 0.00176366 0)
(0 0.0017619 0)
(0 0.00175766 0)
(0 0.00145085 0)
(0 0.00144122 0)
(0 0.00143838 0)
(0 0.00142587 0)
(0 0.00141556 0)
(0 0.00139746 0)
(0 0.00137737 0)
(0 0.00135023 0)
(0 0.00131908 0)
(0 0.00128077 0)
(0 0.00123689 0)
(0 0.00118669 0)
(0 0.00113042 0)
(0 0.00106787 0)
(0 0.000998718 0)
(0 0.000922957 0)
(0 0.000840531 0)
(0 0.000752041 0)
(0 0.00065786 0)
(0 0.000558688 0)
(0 0.000454983 0)
(0 0.000347388 0)
(0 0.000236536 0)
(0 0.000123221 0)
(0 8.30915e-06 0)
(0 -0.000107135 0)
(0 -0.000222051 0)
(0 -0.000335428 0)
(0 -0.000446305 0)
(0 -0.000553567 0)
(0 -0.000656117 0)
(0 -0.000752742 0)
(0 -0.000842255 0)
(0 -0.000923543 0)
(0 -0.000995502 0)
(0 -0.00105705 0)
(0 -0.00110706 0)
(0 -0.00114465 0)
(0 -0.00116886 0)
(0 -0.0011791 0)
(0 -0.00117482 0)
(0 -0.00115554 0)
(0 -0.00112119 0)
(0 -0.00107183 0)
(0 -0.00100769 0)
(0 -0.000929294 0)
(0 -0.00083745 0)
(0 -0.000733032 0)
(0 -0.000617212 0)
(0 -0.000491462 0)
(0 -0.000357375 0)
(0 -0.00021685 0)
(0 -7.20573e-05 0)
(0 7.47795e-05 0)
(0 0.000221185 0)
(0 0.000364367 0)
(0 0.000501703 0)
(0 0.000630476 0)
(0 0.000748088 0)
(0 0.000851783 0)
(0 0.0009392 0)
(0 0.00100814 0)
(0 0.00105664 0)
(0 0.00108305 0)
(0 0.00108633 0)
(0 0.00106557 0)
(0 0.00102059 0)
(0 0.000951664 0)
(0 0.000859727 0)
(0 0.000746489 0)
(0 0.000614109 0)
(0 0.000465214 0)
(0 0.000303563 0)
(0 0.000132911 0)
(0 -4.24196e-05 0)
(0 -0.000217548 0)
(0 -0.00038764 0)
(0 -0.000547648 0)
(0 -0.000692492 0)
(0 -0.000817551 0)
(0 -0.000918377 0)
(0 -0.00099093 0)
(0 -0.00103202 0)
(0 -0.00103967 0)
(0 -0.00101249 0)
(0 -0.000950719 0)
(0 -0.000855688 0)
(0 -0.000729934 0)
(0 -0.000577422 0)
(0 -0.000403163 0)
(0 -0.000213582 0)
(0 -1.58667e-05 0)
(0 0.00018202 0)
(0 0.000372139 0)
(0 0.000545985 0)
(0 0.000695589 0)
(0 0.000813563 0)
(0 0.0008938 0)
(0 0.000931371 0)
(0 0.000923591 0)
(0 0.000869656 0)
(0 0.000771277 0)
(0 0.00063223 0)
(0 0.000459275 0)
(0 0.000260907 0)
(0 4.73695e-05 0)
(0 -0.00016917 0)
(0 -0.000377107 0)
(0 -0.000563879 0)
(0 -0.000717486 0)
(0 -0.000827576 0)
(0 -0.000886236 0)
(0 -0.000888229 0)
(0 -0.000832554 0)
(0 -0.000721652 0)
(0 -0.000562188 0)
(0 -0.000364629 0)
(0 -0.000142646 0)
(0 8.7511e-05 0)
(0 0.000309771 0)
(0 0.000506646 0)
(0 0.000661908 0)
(0 0.000762179 0)
(0 0.000798267 0)
(0 0.00076558 0)
(0 0.00066584 0)
(0 0.000506803 0)
(0 0.000302032 0)
(0 7.09267e-05 0)
(0 -0.000164481 0)
(0 -0.000382678 0)
(0 -0.00056037 0)
(0 -0.000678169 0)
(0 -0.000722737 0)
(0 -0.000688251 0)
(0 -0.000577838 0)
(0 -0.000403579 0)
(0 -0.000186079 0)
(0 4.72785e-05 0)
(0 0.000270363 0)
(0 0.000454669 0)
(0 0.000575884 0)
(0 0.00061819 0)
(0 0.000575845 0)
(0 0.000455139 0)
(0 0.000273725 0)
(0 6.002e-05 0)
(0 -0.000156427 0)
(0 -0.000344737 0)
(0 -0.000476075 0)
(0 -0.000531396 0)
(0 -0.000503322 0)
(0 -0.000397418 0)
(0 -0.000233394 0)
(0 -4.26644e-05 0)
(0 0.000146635 0)
(0 0.000301207 0)
(0 0.000395912 0)
(0 0.000416993 0)
(0 0.000363468 0)
(0 0.000247423 0)
(0 9.58466e-05 0)
(0 -6.68054e-05 0)
(0 -0.000208877 0)
(0 -0.00030618 0)
(0 -0.000344233 0)
(0 -0.000319762 0)
(0 -0.000241714 0)
(0 -0.00012633 0)
(0 4.83837e-06 0)
(0 0.000128316 0)
(0 0.000223796 0)
(0 0.000276026 0)
)
;
    }
    walls
    {
        type            calculated;
        value           uniform (0 0 0);
    }
    floatingObject
    {
        type            calculated;
        value           uniform (0 0 0);
    }
    frontAndBack
    {
        type            empty;
    }
}


// ************************************************************************* //
