/*--------------------------------*- C++ -*----------------------------------*\
  =========                 |
  \\      /  F ield         | OpenFOAM: The Open Source CFD Toolbox
   \\    /   O peration     | Website:  https://openfoam.org
    \\  /    A nd           | Version:  12
     \\/     M anipulation  |
\*---------------------------------------------------------------------------*/
FoamFile
{
    format      ascii;
    class       volScalarField;
    location    "0.28";
    object      epsilon;
}
// * * * * * * * * * * * * * * * * * * * * * * * * * * * * * * * * * * * * * //

dimensions      [0 2 -3 0 0 0 0];

internalField   nonuniform List<scalar> 
12225
(
278.515
263.66
249.434
236.839
226.738
219.483
215.069
213.262
213.704
215.988
219.71
224.499
230.037
236.058
242.362
248.779
255.344
264.849
61.116
86.6952
97.9911
107.207
118.464
132.555
149.408
168.607
189.57
211.672
234.322
257.009
279.327
300.978
321.87
341.837
362.387
380.912
25.2776
36.183
43.3817
48.6211
53.386
58.3356
63.7696
69.824
76.5238
83.8207
91.6244
99.8255
108.312
116.985
125.776
134.663
143.795
153.163
17.5217
21.2986
24.7145
27.6099
30.1618
32.5398
34.8663
37.2274
39.6763
42.2394
44.9242
47.7263
50.6345
53.6363
56.7229
59.9016
63.1904
66.6149
15.4878
16.7519
18.1858
19.5888
20.9094
22.1489
23.3262
24.465
25.586
26.7046
27.8305
28.9694
30.124
31.2959
32.4866
33.7009
34.9436
36.2113
14.9084
15.2396
15.7463
16.334
16.9476
17.5589
18.1557
18.7355
19.3
19.8524
20.3958
20.9331
21.4661
21.9969
22.5269
23.0586
23.5937
24.1262
14.7451
14.7391
14.8342
15.0036
15.2215
15.4679
15.7285
15.9948
16.2619
16.5273
16.79
17.0497
17.3062
17.56
17.8116
18.0616
18.3104
18.554
14.7012
14.5825
14.5116
14.4858
14.4981
14.5403
14.6043
14.6837
14.7736
14.8707
14.9724
15.0771
15.1835
15.2911
15.3994
15.5081
15.617
15.7234
14.6901
14.5373
14.407
14.3009
14.2182
14.1571
14.1145
14.0875
14.0732
14.0692
14.0735
14.0844
14.1006
14.1211
14.1451
14.1721
14.2015
14.2317
14.6874
14.5252
14.3761
14.2411
14.1204
14.0137
13.9203
13.8391
13.7688
13.7083
13.6564
13.6119
13.574
13.5418
13.5147
13.4919
13.473
13.4572
14.6868
14.5221
14.3677
14.2236
14.0896
13.9656
13.8512
13.746
13.6495
13.5611
13.4801
13.4061
13.3383
13.2764
13.2197
13.1678
13.1203
13.0771
14.6866
14.5213
14.3656
14.219
14.0812
13.9518
13.8305
13.7169
13.6105
13.5111
13.4182
13.3314
13.2504
13.1747
13.104
13.038
12.9764
12.9194
14.6865
14.521
14.3648
14.2175
14.0785
13.9473
13.8234
13.7065
13.5963
13.4922
13.3941
13.3016
13.2143
13.1319
13.0543
12.9811
12.912
12.8476
14.6864
14.5208
14.3645
14.2169
14.0774
13.9456
13.8209
13.7029
13.5913
13.4855
13.3853
13.2904
13.2005
13.1153
13.0345
12.9579
12.8853
12.8172
14.6864
14.5207
14.3643
14.2165
14.0769
13.9449
13.8199
13.7016
13.5895
13.4832
13.3824
13.2868
13.196
13.1098
13.0279
12.9501
12.8762
12.8068
14.6863
14.5206
14.3641
14.2163
14.0766
13.9444
13.8194
13.7009
13.5886
13.4822
13.3812
13.2854
13.1943
13.1079
13.0257
12.9475
12.8732
12.8034
14.6863
14.5205
14.364
14.2161
14.0763
13.9441
13.8189
13.7004
13.5881
13.4815
13.3805
13.2845
13.1934
13.1068
13.0245
12.9462
12.8718
12.8018
14.6863
14.5204
14.3639
14.216
14.0761
13.9439
13.8186
13.7001
13.5877
13.4811
13.3799
13.2839
13.1927
13.1061
13.0237
12.9454
12.8709
12.8007
14.6863
14.5204
14.3639
14.2159
14.0761
13.9438
13.8185
13.6999
13.5875
13.4809
13.3797
13.2837
13.1924
13.1057
13.0233
12.9449
12.8704
12.8002
14.6863
14.5205
14.3639
14.216
14.0762
13.9439
13.8187
13.7001
13.5877
13.4811
13.38
13.284
13.1928
13.1061
13.0237
12.9453
12.8709
12.8007
14.6863
14.5205
14.364
14.2162
14.0764
13.9443
13.8192
13.7007
13.5885
13.4821
13.3812
13.2854
13.1945
13.1082
13.0262
12.9482
12.8742
12.8046
14.6863
14.5206
14.3643
14.2167
14.0773
13.9457
13.8214
13.7039
13.5928
13.4878
13.3886
13.2947
13.2059
13.1218
13.0423
12.9669
12.8956
12.8288
14.6865
14.5212
14.3659
14.2202
14.0837
13.956
13.8368
13.7255
13.6218
13.525
13.4348
13.3506
13.272
13.1986
13.13
13.0659
13.006
12.9505
14.6876
14.5264
14.3793
14.2467
14.1282
14.0231
13.9302
13.8484
13.7762
13.7126
13.6565
13.6068
13.5628
13.5237
13.489
13.4581
13.4306
13.4066
14.6976
14.5664
14.4707
14.4075
14.3715
14.3568
14.3585
14.372
14.3941
14.4224
14.4551
14.4908
14.5287
14.5681
14.6085
14.6497
14.6914
14.7334
14.7737
14.8187
14.9603
15.1591
15.3863
15.6233
15.8598
16.0905
16.3135
16.5285
16.7359
16.9366
17.1314
17.3211
17.5066
17.6884
17.867
18.0419
15.2587
16.1151
17.0712
17.9727
18.7879
19.5239
20.1945
20.8149
21.3989
21.9574
22.4988
23.0292
23.5529
24.0728
24.5905
25.1071
25.6226
26.1345
18.0414
22.0079
24.9885
27.1533
28.8884
30.405
31.8126
33.1787
34.5441
35.9314
37.3518
38.8089
40.302
41.827
43.3784
44.9498
46.5346
48.12
34.024
45.6879
51.3769
54.9426
58.0812
61.2985
64.7516
68.4843
72.4808
76.698
81.0856
85.594
90.1767
94.7919
99.4038
103.984
108.516
112.973
163.308
157.417
151.704
146.261
141.3
136.947
133.25
130.206
127.781
125.919
124.559
123.638
123.094
122.871
122.918
123.188
123.643
124.244
0.188626
0.235784
0.392037
0.52934
0.668328
0.834678
1.02836
1.25553
1.52297
1.82994
2.15497
2.49897
2.85961
3.23375
3.61819
4.00988
4.40594
4.80364
5.2004
5.59377
5.98135
6.36076
6.72957
7.08523
7.42508
7.74636
8.04623
8.3218
8.56998
8.78754
8.97132
9.11878
9.22785
9.29558
9.321
9.32596
9.36052
9.21263
9.42509
9.29511
9.35728
40.7286
9.50168
40.2755
42.3909
45.3201
48.5029
51.868
55.4074
59.1179
62.9992
67.0519
71.2775
75.6777
80.2548
85.0108
89.9477
95.0676
100.372
105.863
111.542
117.409
123.466
129.713
136.149
142.774
149.588
156.589
163.774
171.143
178.692
186.417
194.315
202.383
210.614
219.004
227.548
236.239
245.071
254.037
263.13
272.341
281.663
291.087
300.605
310.207
319.883
329.624
339.42
349.259
359.13
369.022
378.922
388.82
398.703
408.56
418.383
428.172
437.933
447.699
457.444
467.059
476.541
485.884
495.074
504.097
512.938
521.579
530.007
538.205
546.157
553.85
561.268
568.399
575.227
581.74
587.925
593.772
599.268
604.404
609.17
613.557
617.558
621.165
624.373
627.176
629.57
631.551
633.117
634.268
635.002
635.32
635.225
634.718
633.804
632.487
630.772
628.667
626.179
623.316
620.087
616.502
612.573
608.309
603.725
598.832
593.645
588.176
582.44
576.452
570.228
563.781
557.129
550.288
543.271
536.096
528.781
521.339
513.788
506.145
498.411
490.638
482.797
474.958
467.201
460.371
457.158
454.5
451.86
449.208
446.546
443.873
441.18
438.448
435.631
432.627
429.201
424.749
417.795
401.881
0.728639
0.457682
0.472246
0.542106
0.645304
0.777318
0.936392
1.12367
1.33895
1.57995
1.84261
2.12426
2.42261
2.73559
3.06128
3.39795
3.74399
4.098
4.45875
4.82531
5.19701
5.57355
5.95504
6.34208
6.73594
7.13877
7.55391
7.98631
8.44289
8.93259
9.46568
10.0525
10.7041
11.4414
12.3112
13.3836
14.7155
16.5566
17.243
19.1245
20.3708
21.2372
23.5243
25.4966
27.1782
28.8071
30.4558
32.157
33.9168
35.7376
37.6212
39.5691
41.5826
43.6628
45.8106
48.0268
50.3122
52.6673
55.0924
57.588
60.1541
62.7908
65.498
68.2754
71.1227
74.0393
77.0246
80.0778
83.198
86.3839
89.6344
92.948
96.3233
99.7584
103.252
106.801
110.404
114.059
117.764
121.515
125.31
129.147
133.022
136.932
140.874
144.845
148.841
152.859
156.894
160.943
165.002
169.067
173.133
177.196
181.253
185.302
189.342
193.374
197.408
201.462
205.546
209.593
213.592
217.539
221.428
225.252
229.007
232.685
236.28
239.788
243.201
246.515
249.723
252.82
255.8
258.659
261.391
263.992
266.458
268.783
270.964
272.998
274.881
276.609
278.181
279.594
280.845
281.934
282.857
283.616
284.208
284.634
284.894
284.989
284.918
284.684
284.288
283.732
283.019
282.151
281.131
279.962
278.649
277.194
275.603
273.88
272.03
270.057
267.967
265.766
263.459
261.051
258.548
255.958
253.284
250.534
247.715
244.831
241.889
238.898
235.852
232.781
229.653
226.53
223.458
220.617
218.447
216.474
214.54
212.618
210.703
208.794
206.892
204.996
203.103
201.204
199.277
197.309
195.175
193.925
1.46298
0.77307
0.716357
0.765506
0.855842
0.977741
1.12855
1.30707
1.51178
1.74044
1.9904
2.25922
2.5448
2.84546
3.15985
3.48694
3.82595
4.1764
4.53807
4.91105
5.2958
5.69319
6.10452
6.53165
6.977
7.4437
7.93567
8.4577
9.01546
9.61508
10.2622
10.9609
11.7129
12.5214
13.3949
14.3405
15.345
16.4047
17.4557
18.5745
19.7279
20.9349
22.2805
23.6547
25.0086
26.3681
27.7608
29.1998
30.6891
32.2296
33.8221
35.4669
37.1646
38.9155
40.72
42.5784
44.4908
46.4577
48.479
50.5549
52.6853
54.8702
57.1094
59.4027
61.7497
64.1501
66.6032
69.1085
71.6652
74.2726
76.9297
79.6356
82.389
85.1887
88.0334
90.9217
93.8519
96.8225
99.8316
102.877
105.958
109.071
112.215
115.386
118.584
121.805
125.046
128.306
131.581
134.869
138.168
141.474
144.786
148.101
151.417
154.735
158.055
161.376
164.702
168.033
171.351
174.64
177.891
181.1
184.262
187.373
190.426
193.418
196.342
199.195
201.972
204.668
207.277
209.797
212.222
214.548
216.771
218.888
220.894
222.786
224.562
226.217
227.75
229.157
230.437
231.588
232.607
233.494
234.248
234.867
235.35
235.699
235.913
235.992
235.937
235.75
235.43
234.981
234.404
233.701
232.874
231.927
230.861
229.682
228.391
226.992
225.49
223.889
222.191
220.403
218.529
216.572
214.537
212.431
210.257
208.018
205.724
203.376
200.979
198.543
196.05
193.553
191.029
188.503
186.003
183.608
181.444
179.391
177.379
175.387
173.41
171.448
169.504
167.58
165.683
163.824
162.02
160.334
158.854
158.374
2.34692
1.14084
0.99777
1.01416
1.09125
1.20691
1.35408
1.52958
1.73114
1.95651
2.2034
2.46964
2.75338
3.05317
3.36794
3.69703
4.04007
4.39705
4.76824
5.1542
5.55582
5.9743
6.41117
6.8683
7.34788
7.85239
8.38461
8.94755
9.54435
10.178
10.851
11.5646
12.3194
13.1157
13.9555
14.8408
15.7702
16.7424
17.754
18.809
19.9102
21.0609
22.2628
23.5032
24.7736
26.0765
27.4188
28.8054
30.239
31.7207
33.2513
34.8316
36.4618
38.1426
39.8743
41.6573
43.4918
45.3783
47.317
49.3081
51.3517
53.448
55.597
57.7987
60.0529
62.3595
64.7181
67.1285
69.5901
72.1024
74.6646
77.2761
79.9358
82.6428
85.3959
88.1939
91.0354
93.9189
96.8428
99.8053
102.805
105.839
108.906
112.004
115.13
118.282
121.458
124.655
127.871
131.104
134.35
137.608
140.875
144.15
147.43
150.714
154.001
157.29
160.578
163.854
167.108
170.332
173.52
176.666
179.765
182.812
185.802
188.73
191.591
194.38
197.092
199.722
202.267
204.72
207.079
209.338
211.494
213.543
215.481
217.305
219.011
220.597
222.06
223.397
224.608
225.688
226.638
227.456
228.141
228.692
229.108
229.39
229.539
229.554
229.436
229.187
228.808
228.301
227.668
226.911
226.033
225.037
223.926
222.702
221.37
219.934
218.397
216.763
215.037
213.223
211.326
209.35
207.299
205.18
202.997
200.749
198.453
196.102
193.705
191.281
188.82
186.342
183.846
181.345
178.861
176.433
174.111
171.859
169.645
167.457
165.29
163.145
161.026
158.941
156.898
154.918
153.033
151.32
149.892
149.216
3.23536
1.52157
1.27662
1.25974
1.32325
1.43272
1.57661
1.74985
1.94941
2.17291
2.41819
2.68334
2.96672
3.26705
3.58344
3.91539
4.26274
4.62562
5.00448
5.4
5.81311
6.245
6.69703
7.17078
7.66798
8.1905
8.7403
9.31938
9.92973
10.5732
11.2515
11.9658
12.717
13.5061
14.3345
15.2037
16.1148
17.0684
18.065
19.1051
20.1895
21.3185
22.4912
23.7057
24.9611
26.2581
27.599
28.9859
30.4203
31.9036
33.4367
35.0205
36.6555
38.3426
40.0824
41.8756
43.7227
45.6243
47.581
49.5932
51.6615
53.7861
55.9674
58.2057
60.5011
62.8537
65.2636
67.7304
70.2541
72.8343
75.4704
78.1619
80.908
83.7078
86.5602
89.464
92.418
95.4205
98.47
101.565
104.703
107.882
111.1
114.355
117.644
120.965
124.315
127.692
131.093
134.514
137.954
141.41
144.879
148.358
151.845
155.337
158.832
162.327
165.811
169.276
172.714
176.12
179.485
182.806
186.076
189.289
192.44
195.524
198.535
201.468
204.317
207.077
209.743
212.31
214.774
217.129
219.372
221.499
223.505
225.387
227.142
228.766
230.257
231.613
232.83
233.909
234.846
235.641
236.292
236.8
237.165
237.385
237.462
237.397
237.191
236.845
236.362
235.742
234.989
234.106
233.095
231.959
230.703
229.33
227.843
226.247
224.547
222.748
220.852
218.865
216.794
214.643
212.412
210.116
207.755
205.323
202.85
200.33
197.769
195.176
192.552
189.909
187.25
184.585
181.931
179.31
176.747
174.233
171.755
169.305
166.882
164.489
162.132
159.818
157.562
155.387
153.331
151.469
149.894
148.867
4.0712
1.87053
1.53495
1.48773
1.53832
1.64144
1.78161
1.95203
2.14897
2.36986
2.61261
2.87547
3.15697
3.45599
3.77176
4.10387
4.4522
4.81695
5.19858
5.59776
6.01538
6.45249
6.91032
7.39023
7.89368
8.42225
8.97757
9.5613
10.1751
10.8207
11.4995
12.213
12.9627
13.7497
14.5755
15.4416
16.3494
17.3
18.2941
19.3324
20.4154
21.5433
22.7162
23.9342
25.1978
26.5078
27.8656
29.2725
30.73
32.2392
33.8013
35.4175
37.0887
38.8161
40.6007
42.4433
44.3451
46.3069
48.3297
50.4142
52.5614
54.7719
57.0465
59.3857
61.7901
64.2599
66.7955
69.397
72.0645
74.7977
77.5964
80.46
83.388
86.3794
89.4333
92.5485
95.7235
98.9567
102.246
105.591
108.987
112.434
115.928
119.467
123.048
126.669
130.326
134.016
137.736
141.483
145.253
149.043
152.85
156.67
160.5
164.335
168.172
172.005
175.821
179.612
183.371
187.092
190.768
194.393
197.961
201.466
204.9
208.258
211.533
214.72
217.812
220.804
223.689
226.464
229.121
231.656
234.065
236.343
238.486
240.489
242.349
244.063
245.628
247.041
248.301
249.405
250.353
251.142
251.772
252.243
252.555
252.709
252.704
252.543
252.226
251.757
251.137
250.369
249.455
248.399
247.204
245.875
244.416
242.83
241.123
239.297
237.362
235.321
233.177
230.934
228.606
226.194
223.694
221.129
218.502
215.812
213.072
210.287
207.461
204.603
201.715
198.808
195.886
192.959
190.038
187.139
184.278
181.454
178.665
175.907
173.182
170.495
167.852
165.264
162.748
160.327
158.041
155.954
154.135
152.728
4.7904
2.17992
1.76494
1.69025
1.72848
1.82491
1.96058
2.12719
2.32032
2.53718
2.77571
3.03426
3.31153
3.60651
3.91854
4.24727
4.59261
4.95479
5.33425
5.73165
6.14783
6.58379
7.04067
7.51976
8.02243
8.55017
9.10453
9.68711
10.2995
10.9435
11.6205
12.3323
13.0802
13.8659
14.6909
15.5567
16.4646
17.416
18.4118
19.4532
20.5407
21.6753
22.8575
24.0883
25.3686
26.6995
28.0823
29.5184
31.0094
32.5565
34.1614
35.8255
37.5501
39.3369
41.1872
43.1024
45.0839
47.1332
49.2516
51.4404
53.7008
56.034
58.4411
60.923
63.4807
66.1148
68.826
71.6147
74.4812
77.4254
80.4473
83.5465
86.7224
89.9743
93.301
96.7013
100.174
103.716
107.327
111.004
114.744
118.545
122.405
126.318
130.284
134.297
138.356
142.455
146.59
150.759
154.957
159.18
163.422
167.681
171.951
176.227
180.506
184.77
189.012
193.223
197.397
201.526
205.604
209.622
213.574
217.453
221.25
224.959
228.573
232.086
235.489
238.777
241.943
244.981
247.886
250.651
253.272
255.743
258.059
260.217
262.212
264.042
265.702
267.191
268.507
269.647
270.609
271.395
272.001
272.429
272.679
272.752
272.648
272.37
271.92
271.3
270.513
269.562
268.451
267.184
265.763
264.196
262.487
260.641
258.662
256.553
254.328
251.989
249.539
246.98
244.335
241.602
238.785
235.896
232.941
229.923
226.853
223.736
220.578
217.387
214.169
210.931
207.68
204.424
201.173
197.938
194.733
191.56
188.421
185.318
182.254
179.236
176.271
173.372
170.556
167.849
165.286
162.924
160.803
159.008
5.40497
2.44892
1.96344
1.86323
1.88921
1.97834
2.10853
2.27012
2.45806
2.66933
2.90184
3.15404
3.42473
3.71305
4.01841
4.34054
4.67942
5.03528
5.40859
5.8
6.21036
6.64066
7.09203
7.56575
8.06318
8.5858
9.13517
9.7129
10.3207
10.9601
11.633
12.3409
13.0855
13.8686
14.6916
15.5562
16.4639
17.4162
18.4144
19.4599
20.5539
21.6975
22.8921
24.1389
25.4393
26.7948
28.207
29.6776
31.2083
32.8011
34.4577
36.18
37.97
39.8296
41.7608
43.7655
45.8456
48.0031
50.2398
52.5575
54.9579
57.4428
60.0136
62.6719
65.4188
68.2555
71.1829
74.2018
77.3127
80.5159
83.8113
87.1987
90.6777
94.2473
97.9064
101.654
105.487
109.405
113.405
117.484
121.639
125.868
130.166
134.53
138.956
143.44
147.977
152.564
157.195
161.866
166.571
171.306
176.065
180.842
185.632
190.429
195.224
199.996
204.737
209.442
214.103
218.71
223.256
227.732
232.131
236.443
240.66
244.774
248.778
252.664
256.423
260.048
263.533
266.871
270.054
273.077
275.935
278.621
281.13
283.458
285.6
287.553
289.314
290.881
292.25
293.421
294.393
295.163
295.733
296.102
296.271
296.242
296.016
295.596
294.983
294.181
293.194
292.027
290.683
289.166
287.479
285.633
283.632
281.482
279.187
276.746
274.183
271.501
268.701
265.79
262.783
259.682
256.495
253.231
249.897
246.5
243.048
239.548
236.007
232.433
228.833
225.214
221.584
217.95
214.321
210.708
207.12
203.563
200.043
196.563
193.129
189.749
186.431
183.19
180.043
177.016
174.14
171.461
169.002
166.815
5.91027
2.67484
2.1283
2.00461
2.01837
2.09946
2.22312
2.37844
2.55984
2.76403
2.9889
3.23295
3.4951
3.77459
4.07095
4.38398
4.71373
5.06048
5.42473
5.80717
6.20865
6.6302
7.07296
7.53821
8.02734
8.54186
9.08333
9.65339
10.2538
10.8861
11.5523
12.2541
12.9932
13.7714
14.5905
15.4523
16.3585
17.3108
18.311
19.3607
20.4616
21.6153
22.8237
24.0884
25.4113
26.7944
28.2398
29.7495
31.3259
32.9711
34.6876
36.4779
38.3444
40.2896
42.316
44.4263
46.6229
48.9084
51.2852
53.7556
56.322
58.9866
61.7515
64.6185
67.5893
70.6656
73.8486
77.1393
80.5385
84.0467
87.664
91.3903
95.2248
99.1669
103.215
107.368
111.623
115.978
120.43
124.976
129.613
134.336
139.141
144.024
148.98
154.004
159.091
164.236
169.433
174.676
179.959
185.276
190.621
195.987
201.366
206.753
212.121
217.46
222.761
228.017
233.218
238.355
243.419
248.401
253.289
258.076
262.751
267.305
271.731
276.017
280.158
284.143
287.966
291.618
295.094
298.385
301.486
304.391
307.094
309.59
311.875
313.945
315.796
317.428
318.837
320.022
320.982
321.717
322.226
322.511
322.572
322.411
322.032
321.437
320.627
319.608
318.386
316.965
315.349
313.544
311.551
309.383
307.05
304.555
301.904
299.103
296.165
293.098
289.907
286.6
283.188
279.678
276.077
272.396
268.641
264.822
260.946
257.022
253.057
249.059
245.037
240.997
236.948
232.897
228.854
224.827
220.826
216.858
212.929
209.046
205.217
201.449
197.753
194.144
190.639
187.263
184.044
181.017
178.194
175.611
6.30616
2.85683
2.25903
2.11406
2.11571
2.1881
2.30421
2.45212
2.62573
2.82158
3.03747
3.27197
3.52409
3.79317
4.07885
4.38102
4.6998
5.03553
5.38876
5.76021
6.15077
6.56148
6.99352
7.44818
7.92688
8.43113
8.96254
9.52278
10.1136
10.7369
11.3944
12.088
12.8197
13.5915
14.4053
15.2631
16.167
17.119
18.1213
19.1758
20.2848
21.4504
22.6749
23.9606
25.3099
26.7253
28.2095
29.765
31.3948
33.1018
34.889
36.7593
38.7161
40.7625
42.9017
45.1369
47.4714
49.9082
52.4506
55.1016
57.8639
60.7405
63.7338
66.8464
70.0803
73.4375
76.9197
80.5281
84.2638
88.1272
92.1187
96.2379
100.484
104.856
109.353
113.972
118.711
123.566
128.535
133.613
138.797
144.08
149.459
154.927
160.479
166.109
171.812
177.58
183.407
189.286
195.21
201.172
207.164
213.178
219.206
225.231
231.222
237.174
243.078
248.925
254.705
260.407
266.021
271.536
276.94
282.222
287.373
292.382
297.24
301.937
306.463
310.81
314.97
318.933
322.694
326.244
329.577
332.687
335.568
338.212
340.618
342.78
344.697
346.366
347.785
348.954
349.871
350.536
350.95
351.114
351.03
350.701
350.13
349.321
348.275
346.998
345.499
343.784
341.856
339.723
337.39
334.867
332.163
329.285
326.241
323.038
319.687
316.198
312.577
308.835
304.981
301.025
296.974
292.839
288.629
284.353
280.019
275.636
271.214
266.76
262.283
257.791
253.293
248.797
244.31
239.843
235.404
231.001
226.643
222.337
218.091
213.915
209.821
205.823
201.939
198.192
194.606
191.21
188.004
185.023
6.59677
2.99599
2.35675
2.19286
2.18266
2.24581
2.35352
2.49302
2.65783
2.8443
3.05022
3.27418
3.51526
3.77292
4.04688
4.33712
4.64384
4.96742
5.30847
5.66775
6.04617
6.4448
6.86484
7.30762
7.77457
8.26725
8.7873
9.33647
9.9166
10.5296
11.1774
11.8622
12.5861
13.3511
14.1597
15.0142
15.9169
16.8702
17.8768
18.9392
20.0601
21.2422
22.4884
23.8016
25.1848
26.6413
28.1744
29.7873
31.4837
33.2672
35.1415
37.1105
39.1781
41.3482
43.6249
46.0122
48.5139
51.1341
53.8765
56.7448
59.7425
62.8729
66.1391
69.5439
73.09
76.7797
80.6147
84.5967
88.7265
93.0049
97.4319
102.007
106.729
111.597
116.608
121.761
127.051
132.475
138.028
143.707
149.505
155.416
161.435
167.554
173.766
180.065
186.444
192.895
199.411
205.983
212.604
219.264
225.956
232.668
239.391
246.079
252.724
259.317
265.849
272.309
278.685
284.966
291.139
297.194
303.115
308.892
314.513
319.968
325.246
330.337
335.231
339.919
344.391
348.639
352.655
356.433
359.964
363.245
366.265
369.02
371.505
373.719
375.658
377.32
378.705
379.811
380.639
381.189
381.461
381.457
381.18
380.636
379.826
378.757
377.432
375.857
374.04
371.988
369.708
367.206
364.492
361.573
358.46
355.162
351.686
348.043
344.244
340.297
336.213
332.002
327.674
323.24
318.708
314.09
309.396
304.634
299.815
294.948
290.042
285.108
280.153
275.186
270.216
265.251
260.301
255.375
250.48
245.627
240.824
236.079
231.403
226.805
222.298
217.897
213.619
209.485
205.516
201.735
198.136
194.754
6.79014
3.09508
2.42382
2.24348
2.22188
2.27546
2.37411
2.50446
2.65973
2.83614
3.03147
3.24433
3.47388
3.71966
3.98148
4.25938
4.55363
4.86468
5.19317
5.53989
5.90581
6.29201
6.69973
7.13035
7.58534
8.06633
8.57504
9.11332
9.68314
10.2866
10.9258
11.6031
12.3209
13.0817
13.8882
14.743
15.6491
16.6093
17.6267
18.7045
19.846
21.0547
22.3341
23.6879
25.1199
26.6339
28.2343
29.925
31.7106
33.5955
35.5843
37.6818
39.8928
42.222
44.6743
47.2546
49.9677
52.8182
55.8106
58.9493
62.2381
65.6809
69.2811
73.042
76.9664
81.0567
85.315
89.7425
94.3402
99.1085
104.047
109.155
114.43
119.871
125.474
131.237
137.154
143.221
149.433
155.784
162.268
168.876
175.601
182.434
189.367
196.393
203.504
210.69
217.944
225.256
232.617
240.018
247.448
254.897
262.311
269.676
276.984
284.223
291.382
298.448
305.41
312.255
318.97
325.542
331.954
338.194
344.251
350.113
355.77
361.211
366.425
371.403
376.136
380.614
384.83
388.777
392.448
395.84
398.941
401.744
404.247
406.449
408.347
409.94
411.228
412.21
412.888
413.261
413.332
413.104
412.581
411.767
410.667
409.287
407.632
405.709
403.527
401.093
398.415
395.503
392.364
389.01
385.449
381.692
377.75
373.633
369.351
364.917
360.34
355.632
350.803
345.865
340.828
335.704
330.503
325.235
319.912
314.542
309.136
303.704
298.255
292.798
287.343
281.897
276.471
271.074
265.714
260.401
255.145
249.954
244.84
239.812
234.885
230.072
225.391
220.86
216.498
212.324
208.327
204.546
6.89757
3.15813
2.46357
2.26927
2.23692
2.28088
2.37013
2.49092
2.63627
2.80234
2.98691
3.18862
3.40672
3.64079
3.89072
4.15661
4.43881
4.73781
5.05429
5.38911
5.74328
6.11794
6.51439
6.93409
7.37862
7.84971
8.34923
8.87921
9.44182
10.0394
10.6743
11.3494
12.0672
12.8308
13.6433
14.5079
15.428
16.4073
17.4495
18.5585
19.7384
20.9935
22.3282
23.7471
25.255
26.8567
28.5572
30.3617
32.2756
34.3045
36.4538
38.7293
41.1368
43.682
46.3707
49.2085
52.2011
55.3538
58.672
62.1602
65.8228
69.6633
73.6854
77.8925
82.2873
86.8722
91.6487
96.6179
101.78
107.135
112.681
118.417
124.339
130.445
136.731
143.191
149.82
156.613
163.561
170.659
177.899
185.272
192.765
200.369
208.075
215.875
223.76
231.72
239.745
247.826
255.953
264.116
272.304
280.455
288.547
296.571
304.515
312.369
320.117
327.747
335.246
342.602
349.802
356.836
363.672
370.306
376.725
382.918
388.875
394.585
400.037
405.222
410.129
414.751
419.079
423.107
426.828
430.237
433.327
436.092
438.53
440.637
442.414
443.859
444.972
445.754
446.207
446.332
446.132
445.612
444.776
443.628
442.176
440.426
438.384
436.059
433.46
430.594
427.473
424.104
420.499
416.669
412.623
408.374
403.932
399.31
394.518
389.57
384.475
379.247
373.897
368.437
362.879
357.234
351.512
345.727
339.887
334.005
328.09
322.153
316.204
310.252
304.306
298.376
292.471
286.601
280.774
275.001
269.291
263.654
258.101
252.644
247.295
242.069
236.983
232.054
227.297
222.729
218.337
214.162
6.93318
3.1901
2.47994
2.27417
2.23198
2.2666
2.34655
2.45784
2.59342
2.74944
2.92371
3.11493
3.3224
3.54577
3.78499
4.04026
4.31195
4.60065
4.90711
5.23228
5.57724
5.94327
6.3318
6.74443
7.18292
7.64922
8.14545
8.67393
9.23715
9.83782
10.4788
11.1633
11.8946
12.6763
13.512
14.4059
15.362
16.3848
17.479
18.6495
19.9015
21.2403
22.6715
24.2009
25.8343
27.5777
29.437
31.4187
33.5292
35.7752
38.1634
40.7005
43.3932
46.2481
49.2716
52.4703
55.8504
59.4179
63.1787
67.1378
71.2984
75.663
80.235
85.0175
90.0126
95.2219
100.646
106.285
112.138
118.203
124.477
130.957
137.64
144.518
151.588
158.841
166.271
173.871
181.63
189.543
197.601
205.799
214.108
222.521
231.031
239.629
248.305
257.049
265.852
274.703
283.59
292.503
301.364
310.154
318.863
327.476
335.982
344.366
352.615
360.715
368.652
376.412
383.982
391.348
398.492
405.401
412.063
418.469
424.605
430.462
436.029
441.297
446.256
450.9
455.22
459.209
462.863
466.175
469.141
471.755
474.017
475.924
477.475
478.67
479.511
479.999
480.135
479.925
479.37
478.477
477.25
475.696
473.823
471.636
469.146
466.36
463.288
459.94
456.326
452.458
448.346
444.002
439.437
434.665
429.696
424.543
419.22
413.737
408.109
402.347
396.464
390.473
384.385
378.212
371.967
365.661
359.305
352.911
346.489
340.05
333.605
327.162
320.731
314.323
307.946
301.61
295.325
289.1
282.945
276.871
270.889
265.01
259.248
253.616
248.131
242.809
237.663
232.709
227.93
223.372
6.91338
3.19654
2.47727
2.26255
2.2118
2.23791
2.30927
2.41185
2.53863
2.68581
2.85126
3.03375
3.23265
3.4477
3.67894
3.92665
4.19133
4.47368
4.77461
5.09522
5.43679
5.80081
6.18896
6.60316
7.04549
7.51829
8.02412
8.5658
9.14637
9.76916
10.4378
11.1561
11.9282
12.7588
13.6525
14.6144
15.6496
16.7638
17.963
19.2534
20.6416
22.1346
23.7396
25.464
27.3152
29.2996
31.4244
33.6972
36.1259
38.7182
41.4818
44.4242
47.5527
50.8743
54.3959
58.1239
62.0646
66.224
70.6083
75.2252
80.0727
85.1473
90.4536
95.9938
101.769
107.778
114.021
120.494
127.195
134.12
141.264
148.621
156.184
163.946
171.9
180.036
188.344
196.816
205.44
214.207
223.106
232.126
241.25
250.468
259.768
269.142
278.579
288.069
297.603
307.175
316.746
326.241
335.648
344.955
354.147
363.21
372.13
380.894
389.486
397.893
406.102
414.098
421.868
429.398
436.674
443.683
450.414
456.855
462.996
468.826
474.337
479.519
484.364
488.865
493.015
496.808
500.24
503.306
506.002
508.325
510.274
511.847
513.045
513.869
514.319
514.4
514.115
513.466
512.461
511.103
509.4
507.36
504.989
502.297
499.293
495.985
492.386
488.506
484.355
479.946
475.29
470.4
465.289
459.968
454.452
448.752
442.883
436.858
430.688
424.389
417.971
411.449
404.835
398.141
391.38
384.563
377.702
370.809
363.894
356.968
350.042
343.126
336.228
329.36
322.53
315.747
309.023
302.365
295.785
289.293
282.899
276.617
270.458
264.437
258.568
252.868
247.348
242.021
236.872
231.949
6.85379
3.18284
2.45972
2.23865
2.18108
2.20021
2.26458
2.36031
2.4805
2.62147
2.78119
2.95857
3.15309
3.36464
3.59343
3.83994
4.10489
4.38924
4.69421
5.02124
5.37204
5.74854
6.15296
6.5878
7.05581
7.5601
8.10403
8.69137
9.32622
10.013
10.7564
11.5618
12.4347
13.3815
14.4087
15.5228
16.7303
18.0388
19.456
20.9905
22.6507
24.4458
26.385
28.4787
30.7388
33.1667
35.7709
38.561
41.5462
44.7345
48.1339
51.7516
55.5945
59.6686
63.9796
68.5323
73.331
78.3794
83.6804
89.2359
95.045
101.105
107.416
113.974
120.779
127.825
135.108
142.623
150.363
158.321
166.49
174.861
183.424
192.17
201.088
210.167
219.396
228.764
238.259
247.87
257.583
267.388
277.272
287.224
297.232
307.288
317.381
327.509
337.651
347.726
357.7
367.56
377.291
386.882
396.317
405.582
414.666
423.553
432.23
440.685
448.903
456.873
464.581
472.016
479.165
486.016
492.559
498.784
504.68
510.239
515.453
520.314
524.815
528.949
532.712
536.097
539.102
541.723
543.958
545.805
547.262
548.331
549.013
549.309
549.221
548.754
547.913
546.701
545.125
543.192
540.909
538.284
535.326
532.044
528.449
524.551
520.36
515.889
511.15
506.154
500.914
495.443
489.755
483.862
477.778
471.516
465.09
458.513
451.799
444.961
438.012
430.966
423.834
416.631
409.367
402.055
394.706
387.333
379.946
372.555
365.172
357.805
350.466
343.162
335.904
328.702
321.563
314.499
307.519
300.634
293.854
287.192
280.66
274.272
268.042
261.984
256.11
250.432
244.934
239.666
6.78668
3.15889
2.43572
2.21198
2.15125
2.16736
2.22921
2.3232
2.44264
2.58407
2.74568
2.92661
3.1266
3.34588
3.58501
3.84494
4.12689
4.43244
4.76348
5.12227
5.51139
5.9338
6.39287
6.89235
7.43647
8.02989
8.67762
9.38538
10.1596
11.007
11.9338
12.9478
14.0578
15.2731
16.6049
18.0628
19.651
21.3814
23.265
25.3128
27.5358
29.9446
32.55
35.3626
38.392
41.6454
45.1302
48.8541
52.824
57.0459
61.5248
66.2647
71.2687
76.5387
82.0758
87.8801
93.9508
100.286
106.883
113.739
120.848
128.203
135.8
143.63
151.687
159.962
168.447
177.133
186.01
195.069
204.298
213.687
223.226
232.902
242.705
252.622
262.643
272.755
282.948
293.211
303.532
313.901
324.308
334.747
345.205
355.682
366.161
376.561
386.832
396.972
406.968
416.806
426.474
435.958
445.247
454.327
463.188
471.816
480.199
488.327
496.188
503.77
511.063
518.056
524.739
531.101
537.133
542.828
548.175
553.169
557.801
562.066
565.958
569.472
572.603
575.348
577.704
579.668
581.241
582.421
583.208
583.603
583.609
583.228
582.464
581.321
579.805
577.92
575.675
573.076
570.131
566.85
563.241
559.315
555.082
550.552
545.738
540.652
535.305
529.71
523.88
517.829
511.569
505.115
498.478
491.674
484.716
477.616
470.389
463.049
455.607
448.077
440.471
432.803
425.084
417.326
409.54
401.738
393.93
386.128
378.34
370.577
362.848
355.163
347.53
339.959
332.458
325.038
317.708
310.478
303.359
296.363
289.502
282.788
276.236
269.86
263.669
257.676
251.865
246.291
6.7347
3.13335
2.4139
2.19283
2.13501
2.15503
2.22233
2.32374
2.45295
2.60689
2.78418
2.98451
3.20826
3.45637
3.73031
4.03207
4.36407
4.72929
5.13122
5.57396
6.06209
6.60097
7.1966
7.85541
8.58507
9.39404
10.2898
11.2824
12.3836
13.6083
14.9587
16.4492
18.0934
19.9051
21.8978
24.0843
26.4759
29.0849
31.9235
35.0032
38.3343
41.9263
45.7874
49.9243
54.3422
59.0442
64.032
69.3063
74.8663
80.7101
86.8344
93.2349
99.9061
106.842
114.034
121.477
129.16
137.075
145.213
153.564
162.118
170.865
179.794
188.895
198.158
207.571
217.126
226.81
236.615
246.529
256.543
266.647
276.829
287.082
297.395
307.757
318.162
328.599
339.062
349.539
360.029
370.521
381.001
391.499
401.959
412.306
422.502
432.549
442.433
452.145
461.675
471.011
480.143
489.061
497.753
506.21
514.421
522.376
530.065
537.479
544.607
551.44
557.969
564.185
570.08
575.645
580.872
585.755
590.285
594.458
598.267
601.707
604.774
607.464
609.773
611.699
613.239
614.394