/*--------------------------------*- C++ -*----------------------------------*\
  =========                 |
  \\      /  F ield         | OpenFOAM: The Open Source CFD Toolbox
   \\    /   O peration     | Website:  https://openfoam.org
    \\  /    A nd           | Version:  12
     \\/     M anipulation  |
\*---------------------------------------------------------------------------*/
FoamFile
{
    format      ascii;
    class       volScalarField;
    location    "0.28";
    object      k;
}
// * * * * * * * * * * * * * * * * * * * * * * * * * * * * * * * * * * * * * //

dimensions      [0 2 -2 0 0 0 0];

internalField   nonuniform List<scalar> 
12225
(
0.353921
0.335043
0.316966
0.300961
0.288125
0.278906
0.273297
0.271001
0.271563
0.274465
0.279194
0.28528
0.292317
0.299969
0.307979
0.316134
0.324476
0.336554
0.436864
0.448979
0.438084
0.43306
0.438785
0.453583
0.474794
0.499971
0.527124
0.55477
0.581878
0.607783
0.632109
0.654675
0.67559
0.694746
0.714208
0.729495
0.395187
0.410874
0.410631
0.405747
0.40201
0.400923
0.402613
0.406805
0.413078
0.420973
0.430057
0.439949
0.450339
0.460983
0.47174
0.482497
0.493536
0.504226
0.379641
0.38484
0.386546
0.38573
0.383905
0.382026
0.380567
0.379738
0.379605
0.380146
0.381299
0.382981
0.385112
0.387614
0.390436
0.39354
0.396945
0.400548
0.374976
0.3759
0.376239
0.375721
0.37457
0.373084
0.371496
0.369967
0.368593
0.367426
0.366484
0.365767
0.365266
0.364965
0.364852
0.364916
0.365154
0.365533
0.373488
0.372555
0.371759
0.370807
0.369631
0.368275
0.366809
0.3653
0.363804
0.362358
0.36099
0.359714
0.358537
0.357461
0.356487
0.355615
0.354843
0.354165
0.373012
0.371296
0.369813
0.368416
0.367025
0.36561
0.364169
0.362712
0.361258
0.359824
0.358426
0.357073
0.355774
0.354533
0.353354
0.35224
0.351191
0.350215
0.372865
0.370838
0.369004
0.367311
0.365711
0.364174
0.362679
0.361216
0.359783
0.358382
0.357015
0.355688
0.354402
0.353161
0.351968
0.350822
0.349729
0.348696
0.37282
0.37068
0.368691
0.366836
0.365095
0.363449
0.36188
0.360376
0.358928
0.357532
0.356183
0.35488
0.353622
0.352409
0.351241
0.350119
0.349042
0.348023
0.372806
0.370628
0.368578
0.366648
0.364829
0.36311
0.361482
0.359934
0.358457
0.357046
0.355694
0.354397
0.353153
0.351959
0.350812
0.349713
0.34866
0.347664
0.372801
0.370609
0.368537
0.366576
0.36472
0.362964
0.361299
0.359719
0.358216
0.356785
0.355421
0.354118
0.352874
0.351685
0.350547
0.34946
0.348421
0.34744
0.372799
0.370602
0.368522
0.36655
0.36468
0.362907
0.361225
0.359627
0.358109
0.356664
0.355289
0.353978
0.352729
0.351537
0.3504
0.349315
0.34828
0.347304
0.372797
0.370599
0.368514
0.366537
0.364661
0.36288
0.361188
0.359581
0.358053
0.3566
0.355216
0.353899
0.352644
0.351448
0.350308
0.349221
0.348185
0.34721
0.372796
0.370596
0.368509
0.366528
0.364649
0.362864
0.361168
0.359555
0.358022
0.356563
0.355174
0.353852
0.352592
0.351392
0.350248
0.349157
0.348119
0.347141
0.372795
0.370593
0.368505
0.366523
0.364641
0.362853
0.361154
0.359539
0.358003
0.35654
0.355148
0.353823
0.35256
0.351357
0.35021
0.349116
0.348074
0.347094
0.372794
0.370592
0.368502
0.366518
0.364634
0.362845
0.361145
0.359527
0.357989
0.356525
0.355131
0.353803
0.352538
0.351333
0.350184
0.349088
0.348044
0.347061
0.372794
0.37059
0.368499
0.366515
0.36463
0.362839
0.361137
0.359519
0.357979
0.356514
0.355118
0.353789
0.352523
0.351316
0.350165
0.349067
0.348021
0.347037
0.372794
0.370589
0.368498
0.366512
0.364627
0.362835
0.361132
0.359513
0.357972
0.356506
0.355109
0.353779
0.352511
0.351303
0.350151
0.349052
0.348005
0.347019
0.372793
0.370589
0.368497
0.366512
0.364626
0.362834
0.361131
0.359511
0.357969
0.356502
0.355105
0.353774
0.352506
0.351297
0.350144
0.349044
0.347996
0.34701
0.372794
0.37059
0.368498
0.366513
0.364628
0.362836
0.361133
0.359514
0.357973
0.356506
0.355109
0.353779
0.352511
0.351302
0.350149
0.349049
0.348001
0.347015
0.372794
0.370591
0.3685
0.366516
0.364632
0.362841
0.36114
0.359522
0.357982
0.356517
0.355122
0.353793
0.352526
0.351319
0.350167
0.349069
0.348022
0.347037
0.372795
0.370593
0.368504
0.366522
0.364641
0.362855
0.361158
0.359546
0.358012
0.356552
0.355163
0.353839
0.352578
0.351375
0.350228
0.349134
0.348091
0.347108
0.372796
0.370598
0.368518
0.366547
0.364681
0.362912
0.361235
0.359641
0.358127
0.356685
0.355311
0.354001
0.35275
0.351556
0.350415
0.349324
0.348281
0.347298
0.372804
0.370631
0.368592
0.366676
0.364872
0.363166
0.361548
0.360006
0.358532
0.35712
0.355767
0.354467
0.353219
0.352019
0.350867
0.349761
0.348701
0.347697
0.372856
0.370818
0.368973
0.367264
0.365645
0.364085
0.362567
0.361083
0.359631
0.358213
0.356833
0.355493
0.354196
0.352946
0.351743
0.35059
0.349486
0.348445
0.373166
0.37177
0.370579
0.369371
0.368049
0.366605
0.365072
0.363492
0.361905
0.360342
0.358826
0.357372
0.355991
0.354688
0.353468
0.352329
0.351272
0.350303
0.374797
0.375829
0.376175
0.375401
0.373834
0.371876
0.369792
0.36774
0.365814
0.364067
0.362524
0.361195
0.360076
0.359157
0.358425
0.357864
0.357457
0.35719
0.382729
0.39167
0.392375
0.388805
0.384384
0.380403
0.377247
0.374998
0.373621
0.373039
0.373153
0.373867
0.375084
0.376717
0.378687
0.380923
0.383366
0.385947
0.407499
0.414514
0.405423
0.395992
0.390555
0.389292
0.391457
0.396217
0.402839
0.410729
0.419437
0.428624
0.438034
0.447479
0.456824
0.465974
0.474884
0.483467
0.360554
0.347547
0.334933
0.322917
0.311965
0.302353
0.29419
0.287471
0.282115
0.278005
0.275002
0.272968
0.271768
0.271277
0.27138
0.271976
0.272979
0.274307
0.000658193
0.00375119
0.00623168
0.00840685
0.0106049
0.0132328
0.0162887
0.0198692
0.0240795
0.0289065
0.0340093
0.0394016
0.0450454
0.0508907
0.0568864
0.062984
0.0691378
0.0753047
0.0814442
0.0875176
0.0934876
0.0993173
0.104969
0.110403
0.115578
0.120453
0.124984
0.129127
0.132836
0.136061
0.138755
0.140881
0.142408
0.143293
0.143523
0.143436
0.143803
0.141368
0.144459
0.1423
0.143082
0.146662
0.144942
0.145455
0.150443
0.157231
0.16444
0.171889
0.179546
0.187396
0.195427
0.203632
0.212007
0.220548
0.229252
0.238115
0.247135
0.25631
0.265636
0.27511
0.28473
0.29449
0.304388
0.31442
0.32458
0.334863
0.345264
0.355777
0.366397
0.377116
0.387928
0.398825
0.4098
0.420846
0.431954
0.443116
0.454324
0.465569
0.476842
0.488134
0.499437
0.51074
0.522035
0.533313
0.544563
0.555777
0.566945
0.578058
0.589104
0.600075
0.61096
0.62175
0.632433
0.643
0.653442
0.663749
0.673919
0.68395
0.693858
0.703676
0.71338
0.722861
0.732122
0.741159
0.749964
0.758527
0.766838
0.774884
0.782656
0.790142
0.797334
0.80422
0.810792
0.817041
0.822959
0.828537
0.833767
0.838644
0.843161
0.847312
0.851092
0.854496
0.857521
0.860163
0.862419
0.864288
0.865768
0.866859
0.867559
0.867871
0.867794
0.867332
0.866487
0.865262
0.863661
0.86169
0.859352
0.856654
0.853604
0.850206
0.846471
0.842405
0.838019
0.83332
0.828319
0.823027
0.817453
0.81161
0.805509
0.799161
0.79258
0.785777
0.778764
0.771557
0.764166
0.756604
0.748888
0.741029
0.73304
0.724939
0.716722
0.70844
0.700063
0.691658
0.683302
0.675823
0.671868
0.668452
0.665047
0.661625
0.658188
0.654734
0.651256
0.647733
0.644121
0.640317
0.636092
0.630844
0.6231
0.60635
0.00254252
0.0107969
0.0163181
0.0207154
0.0248586
0.0289349
0.0331691
0.037728
0.042678
0.0480099
0.0536652
0.0595934
0.0657465
0.0720796
0.0785514
0.0851239
0.0917622
0.0984343
0.10511
0.111763
0.118365
0.124894
0.131324
0.137633
0.1438
0.149805
0.155635
0.161278
0.166729
0.171991
0.177083
0.182044
0.186944
0.191888
0.197017
0.20248
0.208429
0.215738
0.222842
0.231446
0.241216
0.250796
0.261326
0.272891
0.284546
0.296012
0.307972
0.320374
0.333164
0.346312
0.359803
0.373625
0.387773
0.402244
0.417033
0.432139
0.447561
0.463295
0.479341
0.495695
0.512356
0.529319
0.546581
0.564138
0.581985
0.600116
0.618525
0.637206
0.656151
0.675351
0.694798
0.714482
0.734392
0.754519
0.77485
0.795373
0.816075
0.836945
0.857967
0.879129
0.900415
0.921811
0.943302
0.964873
0.986508
1.00819
1.02991
1.05164
1.07338
1.09509
1.11678
1.13841
1.15998
1.18146
1.20284
1.2241
1.24522
1.26618
1.28695
1.30745
1.32751
1.34727
1.36674
1.38591
1.40476
1.42326
1.4414
1.45916
1.4765
1.49342
1.50988
1.52587
1.54137
1.55636
1.57082
1.58473
1.59808
1.61084
1.62301
1.63456
1.64549
1.65577
1.66541
1.67438
1.68268
1.6903
1.69724
1.70347
1.70901
1.71385
1.71797
1.72139
1.7241
1.7261
1.7274
1.72799
1.72788
1.72708
1.7256
1.72344
1.72062
1.71713
1.71301
1.70825
1.70287
1.69689
1.69033
1.6832
1.67551
1.6673
1.65857
1.64935
1.63966
1.62952
1.61896
1.60799
1.59664
1.58494
1.57291
1.56058
1.54793
1.53508
1.52193
1.50865
1.49531
1.48207
1.46939
1.4568
1.44416
1.43147
1.41875
1.40602
1.39327
1.38051
1.36773
1.35487
1.3418
1.32838
1.31337
1.29394
0.00510495
0.0179544
0.0254926
0.0312756
0.036372
0.041308
0.0463427
0.0516193
0.0572032
0.0631042
0.069298
0.0757469
0.0824102
0.0892496
0.0962305
0.103323
0.1105
0.11774
0.125024
0.132334
0.139658
0.146984
0.154304
0.161612
0.168908
0.176198
0.183495
0.190819
0.198204
0.205694
0.213348
0.221233
0.22943
0.238028
0.247128
0.256824
0.267191
0.278286
0.289937
0.302307
0.315444
0.329094
0.343277
0.358046
0.373207
0.388651
0.404506
0.420811
0.43756
0.45474
0.472343
0.490359
0.508781
0.527605
0.546827
0.566442
0.586447
0.606839
0.627615
0.64877
0.6703
0.6922
0.714466
0.737092
0.76007
0.783393
0.807054
0.831043
0.85535
0.879966
0.904878
0.930074
0.955542
0.981268
1.00724
1.03343
1.05984
1.08645
1.11323
1.14018
1.16726
1.19447
1.22179
1.2492
1.27667
1.30419
1.33174
1.35929
1.38683
1.41434
1.4418
1.46918
1.49647
1.52364
1.55068
1.57756
1.60427
1.63079
1.65709
1.68302
1.7086
1.73384
1.75871
1.7832
1.80728
1.83092
1.85409
1.87676
1.89891
1.9205
1.94152
1.96193
1.9817
2.00082
2.01926
2.037
2.054
2.07026
2.08575
2.10045
2.11434
2.12742
2.13965
2.15103
2.16155
2.1712
2.17996
2.18782
2.19479
2.20085
2.20601
2.21025
2.21358
2.21601
2.21753
2.21814
2.21786
2.21669
2.21465
2.21173
2.20796
2.20335
2.19791
2.19166
2.18462
2.17681
2.16825
2.15895
2.14896
2.13827
2.12694
2.11497
2.10239
2.08925
2.07556
2.06133
2.04664
2.03148
2.0159
1.99994
1.98353
1.96694
1.95006
1.93297
1.91575
1.89851
1.88148
1.86448
1.84743
1.83033
1.81322
1.7961
1.779
1.76196
1.74498
1.72809
1.71127
1.69459
1.6775
1.65961
0.00818937
0.0247803
0.0340243
0.040765
0.0466509
0.0522651
0.0578936
0.0636936
0.0697447
0.0760747
0.0826782
0.0895314
0.0966037
0.103864
0.111283
0.118838
0.12651
0.134282
0.142144
0.150089
0.158113
0.166216
0.174401
0.182677
0.191056
0.19956
0.208216
0.217059
0.226136
0.235498
0.245207
0.255325
0.265913
0.277034
0.288747
0.301102
0.314134
0.32785
0.342217
0.357241
0.372924
0.389194
0.406013
0.423372
0.441206
0.459467
0.478171
0.497336
0.516969
0.53707
0.557637
0.578666
0.600154
0.622099
0.644498
0.667347
0.690645
0.714388
0.738574
0.763198
0.788257
0.813747
0.839662
0.865996
0.892742
0.919892
0.947438
0.975371
1.00368
1.03235
1.06137
1.09073
1.12042
1.15041
1.18069
1.21124
1.24205
1.27309
1.30435
1.3358
1.36742
1.3992
1.4311
1.46312
1.49521
1.52736
1.55955
1.59175
1.62394
1.6561
1.68819
1.7202
1.75211
1.78388
1.8155
1.84695
1.87819
1.90922
1.93995
1.97029
2.00024
2.0298
2.05893
2.0876
2.11578
2.14344
2.17055
2.19706
2.22295
2.24818
2.27272
2.29655
2.31962
2.34191
2.36339
2.38404
2.40382
2.42271
2.44069
2.45773
2.47382
2.48894
2.50306
2.51617
2.52826
2.53932
2.54933
2.55828
2.56617
2.57299
2.57874
2.58342
2.58702
2.58955
2.59101
2.59141
2.59076
2.58906
2.58633
2.58258
2.57782
2.57208
2.56537
2.5577
2.54911
2.53961
2.52924
2.51801
2.50596
2.4931
2.47948
2.46513
2.45006
2.43433
2.41796
2.40097
2.38344
2.36535
2.34676
2.32779
2.3084
2.2887
2.26869
2.24842
2.22798
2.20745
2.18696
2.16646
2.14592
2.12534
2.10475
2.08419
2.0637
2.04333
2.02314
2.00321
1.98364
1.96465
1.94604
1.928
0.0112895
0.0311327
0.0416916
0.0493385
0.0559281
0.0621177
0.068228
0.0744372
0.0808433
0.0874924
0.0943963
0.101546
0.108923
0.116504
0.124268
0.132196
0.140275
0.148497
0.156856
0.165352
0.173988
0.182773
0.191718
0.20084
0.210162
0.219712
0.229525
0.239643
0.250111
0.260983
0.272312
0.284149
0.296543
0.309536
0.323164
0.337456
0.352426
0.368076
0.38439
0.401355
0.418955
0.437157
0.455933
0.475266
0.495127
0.515492
0.536359
0.557732
0.579615
0.602009
0.624917
0.648338
0.672273
0.69672
0.72168
0.747152
0.773134
0.799625
0.826623
0.854125
0.88213
0.910632
0.939628
0.969111
0.999075
1.02951
1.06041
1.09177
1.12357
1.1558
1.18845
1.2215
1.25494
1.28874
1.32289
1.35737
1.39216
1.42724
1.46258
1.49815
1.53394
1.56992
1.60606
1.64233
1.67871
1.71517
1.75168
1.78821
1.82475
1.86125
1.89769
1.93404
1.97027
2.00637
2.04229
2.07801
2.11351
2.14876
2.18361
2.21804
2.25204
2.28559
2.31864
2.35117
2.38313
2.41449
2.44521
2.47524
2.50456
2.53312
2.56088
2.58781
2.61388
2.63905
2.66328
2.68655
2.70883
2.73009
2.75029
2.76942
2.78745
2.80436
2.82013
2.83475
2.84819
2.86045
2.8715
2.88135
2.88999
2.8974
2.90359
2.90855
2.91228
2.91479
2.91609
2.91618
2.91506
2.91276
2.90929
2.90465
2.89888
2.89198
2.88399
2.87492
2.8648
2.85365
2.84151
2.82841
2.81438
2.79943
2.78364
2.76701
2.74957
2.73139
2.71251
2.69287
2.67269
2.65193
2.63063
2.60887
2.58665
2.56406
2.54113
2.51791
2.49446
2.47088
2.44724
2.42356
2.39982
2.37606
2.35231
2.32863
2.30506
2.28169
2.25862
2.23598
2.21395
2.19281
2.17254
2.15333
0.0142061
0.0366214
0.0484353
0.0569239
0.0641521
0.0708488
0.0773693
0.0839136
0.090598
0.0974859
0.104606
0.111964
0.119554
0.127362
0.135374
0.14358
0.151971
0.160543
0.169297
0.178238
0.187374
0.19672
0.206293
0.216117
0.226218
0.23663
0.247389
0.258538
0.270121
0.282186
0.294777
0.307936
0.3217
0.336099
0.351156
0.366889
0.383304
0.4004
0.418168
0.436594
0.455664
0.475358
0.495658
0.51655
0.538018
0.560052
0.582646
0.6058
0.629518
0.653801
0.678654
0.704078
0.730076
0.75665
0.783803
0.811534
0.839846
0.868738
0.898211
0.928263
0.958893
0.990099
1.02188
1.05422
1.08713
1.12058
1.15459
1.18912
1.22419
1.25976
1.29582
1.33236
1.36937
1.40681
1.44467
1.48293
1.52156
1.56053
1.59983
1.63941
1.67926
1.71934
1.75962
1.80007
1.84065
1.88134
1.92211
1.96292
2.00373
2.04452
2.08525
2.12589
2.1664
2.20676
2.24693
2.28687
2.32655
2.36592
2.40484
2.44328
2.48125
2.51869
2.55558
2.59187
2.62751
2.66247
2.6967
2.73015
2.76279
2.79456
2.82544
2.85537
2.88432
2.91224
2.93912
2.9649
2.98955
3.01305
3.03536
3.05646
3.07631
3.0949
3.1122
3.1282
3.14288
3.15623
3.16822
3.17886
3.18813
3.19603
3.20256
3.20771
3.21148
3.21389
3.21494
3.21464
3.213
3.21003
3.20575
3.20018
3.19333
3.18525
3.17594
3.16543
3.15376
3.14095
3.12704
3.11207
3.09606
3.07903
3.06108
3.04221
3.02241
3.00184
2.9805
2.95841
2.93566
2.91229
2.88833
2.86385
2.83888
2.81349
2.78772
2.76162
2.73526
2.70872
2.68207
2.65534
2.62855
2.60175
2.57498
2.54831
2.52181
2.49558
2.46976
2.44453
2.42009
2.39678
2.37457
2.35358
0.0167157
0.0413432
0.0542431
0.0634723
0.0712629
0.0784019
0.0852726
0.0920937
0.0989971
0.106062
0.113332
0.120826
0.128552
0.136505
0.144681
0.153075
0.161684
0.17051
0.179557
0.188836
0.198359
0.208145
0.218215
0.228595
0.239316
0.250412
0.261919
0.273877
0.286327
0.29931
0.312862
0.327019
0.341808
0.357253
0.373371
0.390173
0.407664
0.425844
0.444709
0.464248
0.484453
0.505311
0.526813
0.54895
0.571714
0.595099
0.619104
0.64373
0.668979
0.694855
0.721365
0.748512
0.776301
0.804738
0.833826
0.863569
0.893971
0.925033
0.95676
0.98915
1.0222
1.05592
1.0903
1.12533
1.16102
1.19735
1.23432
1.27191
1.31011
1.34892
1.38831
1.42826
1.46875
1.50977
1.55129
1.59328
1.63571
1.67856
1.72179
1.76537
1.80927
1.85346
1.89788
1.94252
1.98733
2.03227
2.07731
2.1224
2.16752
2.21262
2.25766
2.30261
2.34743
2.39207
2.4365
2.48068
2.52458
2.56803
2.611
2.65345
2.69536
2.73669
2.77738
2.8174
2.8567
2.89522
2.93292
2.96975
3.00565
3.04059
3.07451
3.10738
3.13914
3.16976
3.1992
3.22742
3.25437
3.28003
3.30437
3.32734
3.34893
3.36911
3.38786
3.40516
3.42098
3.43533
3.44817
3.45951
3.46933
3.47763
3.48441
3.48967
3.49341
3.49563
3.49636
3.49559
3.49335
3.48965
3.48451
3.47794
3.46998
3.46065
3.44999
3.43801
3.42476
3.41024
3.39454
3.37768
3.35969
3.34056
3.32045
3.29936
3.27731
3.25439
3.23063
3.20608
3.18081
3.15485
3.12826
3.1011
3.07341
3.04526
3.01669
2.98777
2.95855
2.92911
2.89952
2.86982
2.84007
2.8103
2.78059
2.75101
2.72165
2.69265
2.66414
2.63634
2.60949
2.58388
2.55949
2.53636
0.0188602
0.0453157
0.0591162
0.0689669
0.0772317
0.084742
0.0919026
0.098946
0.106017
0.113206
0.120571
0.128143
0.135941
0.143971
0.152237
0.16074
0.169485
0.178477
0.187726
0.197244
0.207048
0.217159
0.227602
0.238403
0.249593
0.261206
0.273277
0.285842
0.298937
0.312597
0.326854
0.341737
0.35727
0.373472
0.390356
0.407935
0.426213
0.445193
0.464874
0.485253
0.506326
0.528088
0.550534
0.573662
0.59747
0.621958
0.647126
0.672979
0.699521
0.72676
0.754703
0.783356
0.812728
0.842827
0.873659
0.90523
0.937548
0.970616
1.00444
1.03902
1.07436
1.11047
1.14733
1.18495
1.22332
1.26244
1.30229
1.34287
1.38417
1.42616
1.46884
1.51217
1.55614
1.60073
1.6459
1.69162
1.73787
1.78461
1.8318
1.87941
1.92739
1.97571
2.02433
2.07319
2.12226
2.17149
2.22084
2.27027
2.31973
2.36918
2.41857
2.46786
2.517
2.56596
2.61467
2.6631
2.71119
2.75875
2.80577
2.85223
2.89807
2.94326
2.98774
3.03147
3.07438
3.11642
3.15754
3.19769
3.23681
3.27484
3.31175
3.34748
3.38198
3.41521
3.44713
3.47769
3.50686
3.5346
3.56086
3.58563
3.60886
3.63053
3.65062
3.66912
3.68599
3.70123
3.71483
3.72678
3.73705
3.74567
3.75261
3.75788
3.7615
3.76347
3.76379
3.76249
3.75958
3.75508
3.74901
3.7414
3.73226
3.72165
3.70958
3.6961
3.68124
3.66498
3.64747
3.62871
3.60875
3.5876
3.56537
3.54208
3.51777
3.49252
3.46637
3.43938
3.4116
3.38308
3.3539
3.32409
3.29372
3.26285
3.23153
3.19982
3.1678
3.13551
3.10305
3.07046
3.0378
3.00515
2.97256
2.94014
2.908
2.87626
2.8451
2.81475
2.78543
2.75743
2.73067
2.70518
0.0206234
0.0485506
0.0630691
0.0734178
0.0820624
0.0898683
0.0972555
0.104467
0.111655
0.118922
0.126334
0.133935
0.141752
0.149802
0.158097
0.166644
0.175453
0.184534
0.193901
0.20357
0.213558
0.22389
0.234589
0.245683
0.257202
0.269179
0.281644
0.294632
0.308175
0.322302
0.337044
0.352424
0.368464
0.385183
0.402595
0.420712
0.439541
0.459089
0.47936
0.500355
0.522077
0.544527
0.567706
0.591618
0.616264
0.64165
0.667782
0.694667
0.722314
0.750732
0.779931
0.809923
0.840717
0.872325
0.904757
0.938022
0.972129
1.00709
1.0429
1.07958
1.11712
1.15553
1.19481
1.23495
1.27596
1.31782
1.36053
1.40408
1.44845
1.49362
1.53958
1.5863
1.63376
1.68193
1.73078
1.78027
1.83036
1.88103
1.93222
1.98389
2.036
2.08849
2.14133
2.19445
2.24782
2.30137
2.35507
2.40885
2.46267
2.51649
2.57024
2.62387
2.67735
2.73062
2.78362
2.83631
2.88851
2.94014
2.99118
3.04158
3.09131
3.1403
3.18851
3.23586
3.28231
3.32779
3.37224
3.41561
3.45783
3.49886
3.53864
3.57711
3.61424
3.64996
3.68423
3.71702
3.74827
3.77795
3.80602
3.83244
3.85718
3.88022
3.90153
3.9211
3.9389
3.95492
3.96915
3.98159
3.99221
4.00103
4.00803
4.01322
4.01663
4.01824
4.01808
4.01617
4.01252
4.00715
4.0001
3.99139
3.98103
3.96907
3.95558
3.94057
3.92408
3.90615
3.88684
3.86621
3.84429
3.82112
3.79679
3.77133
3.74479
3.71725
3.68875
3.65935
3.62911
3.59809
3.56636
3.53397
3.50097
3.46744
3.43343
3.39901
3.36424
3.32919
3.29392
3.25852
3.22305
3.18759
3.15221
3.11702
3.08215
3.04774
3.01397
2.98107
2.94927
2.91879
2.88955
2.86157
0.0220048
0.0510776
0.066139
0.0768636
0.0857922
0.0938154
0.101364
0.108687
0.115944
0.123244
0.130661
0.138247
0.146039
0.154061
0.162332
0.170867
0.179679
0.188783
0.198195
0.207933
0.218018
0.228472
0.23932
0.25059
0.262309
0.274507
0.287215
0.300462
0.314279
0.328692
0.343729
0.359412
0.375764
0.392802
0.410544
0.429002
0.448189
0.468114
0.488788
0.510217
0.532409
0.555371
0.579111
0.603637
0.628958
0.655083
0.682022
0.709789
0.738394
0.767853
0.798178
0.829384
0.861486
0.894498
0.928432
0.963303
0.999122
1.0359
1.07364
1.11236
1.15206
1.19275
1.23442
1.27707
1.3207
1.36531
1.41088
1.45741
1.50486
1.55324
1.60251
1.65265
1.70363
1.75542
1.80798
1.86126
1.91524
1.96987
2.02509
2.08085
2.13711
2.1938
2.25088
2.30828
2.36594
2.42382
2.48185
2.53997
2.59813
2.65628
2.71435
2.7723
2.83006
2.88758
2.94481
3.00162
3.05784
3.11345
3.16839
3.22264
3.27612
3.32879
3.38058
3.43143
3.48126
3.53002
3.57764
3.62406
3.66921
3.71306
3.75552
3.79656
3.83612
3.87414
3.91059
3.94541
3.97856
4.01001
4.0397
4.0676
4.09367
4.1179
4.14026
4.16073
4.17929
4.19594
4.21066
4.22344
4.23428
4.24316
4.2501
4.25511
4.25818
4.25935
4.25862
4.256
4.25154
4.24524
4.23715
4.2273
4.2157
4.20242
4.18749
4.17096
4.15286
4.13324
4.11217
4.08968
4.06584
4.04069
4.0143
3.98672
3.95801
3.92823
3.89745
3.86571
3.8331
3.79966
3.76546
3.73056
3.69504
3.65894
3.62234
3.58529
3.54787
3.51015
3.4722
3.4341
3.39592
3.35775
3.31968
3.28183
3.24431
3.2073
3.17098
3.13557
3.10127
3.06831
3.03653
3.00602
0.0230189
0.0529442
0.0683853
0.079369
0.0884881
0.0966506
0.104294
0.111672
0.118949
0.126238
0.13362
0.141153
0.14888
0.156834
0.165037
0.173511
0.182273
0.191341
0.200732
0.210468
0.220568
0.231055
0.241955
0.253292
0.265094
0.277389
0.290204
0.303569
0.31751
0.332054
0.347227
0.363053
0.379553
0.396749
0.414659
0.433301
0.452691
0.472843
0.493771
0.515491
0.538014
0.561354
0.585525
0.610541
0.636416
0.663165
0.690804
0.719351
0.748821
0.779233
0.810607
0.842958
0.876308
0.910672
0.946068
0.982513
1.02002
1.05861
1.09828
1.13905
1.18092
1.2239
1.26798
1.31318
1.35948
1.40687
1.45535
1.50489
1.55549
1.60712
1.65975
1.71336
1.7679
1.82335
1.87966
1.93678
1.99467
2.05327
2.11253
2.1724
2.2328
2.29368
2.35498
2.41662
2.47854
2.54067
2.60296
2.66534
2.72776
2.79014
2.85242
2.91455
2.97647
3.03811
3.09941
3.1601
3.22016
3.27954
3.33819
3.39606
3.45308
3.5092
3.56434
3.61844
3.67141
3.72319
3.77372
3.82293
3.87075
3.91714
3.96203
4.00536
4.04708
4.08714
4.12549
4.16208
4.19688
4.22984
4.26091
4.29005
4.31722
4.34241
4.36559
4.38675
4.40588
4.42295
4.43797
4.45094
4.46182
4.47062
4.47735
4.48203
4.48466
4.48527
4.48387
4.48049
4.47514
4.46788
4.45871
4.44769
4.43485
4.42022
4.40387
4.38583
4.36614
4.34487
4.32207
4.29779
4.27208
4.24501
4.21664
4.18703
4.15623
4.12431
4.09134
4.05738
4.0225
3.98675
3.95021
3.91294
3.875
3.83647
3.79741
3.75788
3.71795
3.6777
3.63721
3.59655
3.5558
3.51507
3.47444
3.43404
3.39401
3.3545
3.31571
3.27785
3.24111
3.20568
3.17139
3.13836
0.0236936
0.0542127
0.0698853
0.0810197
0.0902405
0.0984667
0.10614
0.113517
0.120764
0.127999
0.135307
0.142751
0.150379
0.158227
0.166324
0.174695
0.18336
0.192339
0.201652
0.21132
0.221363
0.231805
0.242668
0.253979
0.265762
0.278044
0.290852
0.304214
0.318156
0.332705
0.347887
0.363727
0.380251
0.39748
0.415437
0.434145
0.453624
0.473894
0.494975
0.516888
0.539651
0.563285
0.58781
0.613246
0.639613
0.666932
0.695225
0.724514
0.754821
0.786169
0.818582
0.852081
0.88669
0.92243
0.959321
0.997382
1.03663
1.07709
1.11875
1.16165
1.20578
1.25114
1.29773
1.34556
1.39462
1.44489
1.49637
1.54903
1.60285
1.65781
1.71388
1.77101
1.82917
1.88832
1.94841
2.00938
2.07118
2.13375
2.19703
2.26095
2.32545
2.39045
2.45587
2.52164
2.58769
2.65394
2.72034
2.7868
2.85327
2.91968
2.98596
3.05206
3.1179
3.18342
3.24837
3.31266
3.37625
3.43909
3.50112
3.56227
3.62248
3.68169
3.73982
3.79682
3.85256
3.90699
3.96004
4.01166
4.06178
4.11033
4.15726
4.20252
4.24603
4.28776
4.32766
4.36568
4.40178
4.43594
4.46808
4.49813
4.5261
4.55196
4.57569
4.59728
4.61671
4.63398
4.64907
4.66199
4.67272
4.68127
4.68764
4.69186
4.69393
4.69388
4.69173
4.6875
4.68123
4.67294
4.66268
4.65047
4.63637
4.62041
4.60265
4.58314
4.56192
4.53905
4.51458
4.48858
4.46111
4.43222
4.40198
4.37044
4.33769
4.30377
4.26876
4.23272
4.19572
4.15783
4.11911
4.07964
4.03947
3.99868
3.95733
3.9155
3.87325
3.83066
3.7878
3.74477
3.70164
3.65852
3.61551
3.57273
3.53033
3.48847
3.44734
3.40714
3.36804
3.33022
3.29349
3.25803
0.0240685
0.0549568
0.0707289
0.0819158
0.0911564
0.0993748
0.107015
0.114336
0.121507
0.128646
0.135842
0.143162
0.150658
0.158368
0.166325
0.174555
0.183082
0.191927
0.201111
0.210654
0.220579
0.230906
0.241659
0.252863
0.264543
0.276725
0.289435
0.302701
0.316551
0.331012
0.346113
0.36188
0.378341
0.395524
0.413455
0.432161
0.451669
0.472005
0.493195
0.515265
0.538244
0.562157
0.587031
0.612894
0.639772
0.667692
0.696681
0.726767
0.757978
0.790341
0.823884
0.858634
0.894618
0.931859
0.970381
1.01021
1.05135
1.09384
1.13768
1.18287
1.22943
1.27736
1.32664
1.37727
1.42925
1.48255
1.53717
1.59307
1.65024
1.70863
1.76821
1.82894
1.89077
1.95364
2.0175
2.0823
2.14796
2.21443
2.28162
2.34948
2.41793
2.48689
2.55625
2.62593
2.69586
2.76597
2.83617
2.90641
2.97662
3.04671
3.11664
3.18632
3.25571
3.32454
3.39269
3.46013
3.52679
3.5926
3.65751
3.72144
3.78434
3.84612
3.90675
3.96615
4.02414
4.0807
4.13577
4.18928
4.24118
4.2914
4.33988
4.38657
4.43141
4.47434
4.51533
4.55432
4.59129
4.62618
4.65894
4.68954
4.71795
4.74414
4.76811
4.78983
4.80929
4.82649
4.84141
4.85407
4.86445
4.87256
4.87841
4.88202
4.8834
4.88258
4.87959
4.87444
4.86718
4.85784
4.84645
4.83306
4.81771
4.80045
4.78133
4.7604
4.73772
4.71334
4.68732
4.65972
4.6306
4.60003
4.56807
4.53479
4.50024
4.4645
4.42764
4.38972
4.35082
4.31099
4.27031
4.22885
4.18668
4.14386
4.10046
4.05655
4.01221
3.96751
3.92253
3.87735
3.83207
3.78679
3.74161
3.69667
3.6521
3.60807
3.56476
3.52238
3.48107
3.44099
3.40196
3.36418
0.0241928
0.0552585
0.0710147
0.0821667
0.0913523
0.0994967
0.107046
0.114258
0.121306
0.12831
0.135359
0.142524
0.149857
0.1574
0.165186
0.173244
0.181599
0.190271
0.199283
0.208656
0.218411
0.228571
0.239158
0.250197
0.261714
0.273736
0.286289
0.299403
0.313107
0.327431
0.342407
0.358064
0.374437
0.391555
0.409453
0.428161
0.447714
0.468144
0.489485
0.511772
0.535038
0.559319
0.584649
0.611064
0.638597
0.667279
0.697141
0.728218
0.760542
0.794145
0.82906
0.865316
0.902941
0.941962
0.982403
1.02429
1.06763
1.11245
1.15877
1.20658
1.25588
1.30665
1.35889
1.41258
1.46772
1.52427
1.58222
1.64154
1.70218
1.76411
1.82728
1.89163
1.95712
2.02368
2.09125
2.15976
2.22913
2.2993
2.37019
2.44172
2.51382
2.58646
2.6594
2.7326
2.80599
2.87949
2.95304
3.02656
3.09997
3.17323
3.24625
3.31897
3.3911
3.46256
3.53329
3.60321
3.67226
3.74037
3.80747
3.8735
3.93837
4.00203
4.0644
4.1254
4.18495
4.24296
4.29937
4.35413
4.40717
4.45843
4.50786
4.55539
4.60097
4.64455
4.68609
4.72554
4.76287
4.79802
4.83097
4.86167
4.8901
4.91624
4.94006
4.96157
4.98074
4.99757
5.01205
5.02419
5.03399
5.04146
5.04661
5.04946
5.05002
5.04833
5.0444
5.03827
5.02997
5.01955
5.00704
4.99248
4.97593
4.95742
4.93702
4.91477
4.89074
4.86498
4.83754
4.80851
4.77792
4.74586
4.71238
4.67755
4.64144
4.60411
4.56564
4.5261
4.48554
4.44404
4.40168
4.35851
4.3146
4.27004
4.22487
4.17918
4.13304
4.08652
4.0397
3.99266
3.94551
3.89834
3.85127
3.80441
3.75792
3.71196
3.6667
3.62233
3.57901
3.53686
3.49571
3.45579
0.0241237
0.0552045
0.0708447
0.0818848
0.0909483
0.0989584
0.106361
0.113418
0.120301
0.127132
0.134003
0.140984
0.148129
0.15548
0.163071
0.170932
0.179087
0.187559
0.19637
0.205542
0.215096
0.225057
0.235448
0.246296
0.257626
0.269469
0.281853
0.294811
0.308375
0.32258
0.33746
0.353053
0.369397
0.38653
0.404492
0.423322
0.44306
0.463745
0.485422
0.508133
0.531921
0.556831
0.582907
0.610195
0.638735
0.668555
0.699689
0.732175
0.766052
0.801354
0.838116
0.876366
0.916132
0.957439
1.00031
1.04475
1.0908
1.13845
1.18772
1.23863
1.29114
1.34518
1.40075
1.45784
1.51643
1.57648
1.63797
1.70084
1.76506
1.83056
1.8973
1.96522
2.03424
2.10431
2.17534
2.24727
2.32
2.39348
2.4676
2.54229
2.61747
2.69304
2.7689
2.84494
2.92109
2.99728
3.07343
3.14947
3.22533
3.30097
3.37624
3.45089
3.52486
3.59809
3.67048
3.74198
3.81252
3.88201
3.9504
4.01761
4.08356
4.1482
4.21144
4.27322
4.33346
4.39208
4.44903
4.50423
4.55764
4.60918
4.65881
4.70647
4.7521
4.79567
4.83712
4.87642
4.91352
4.94839
4.981
5.0113
5.03928
5.06492
5.0882
5.1091
5.12762
5.14376
5.15751
5.16887
5.17786
5.18448
5.18874
5.19067
5.19029
5.18762
5.18269
5.17553
5.16618
5.15468
5.14108
5.12541
5.10772
5.08806
5.0665
5.04307
5.01785
4.99088
4.96223
4.93196
4.90014
4.86682
4.83208
4.79598
4.75858
4.71996
4.68019
4.63932
4.59744
4.5546
4.51088
4.46634
4.42105
4.37508
4.3285
4.28137
4.23377
4.18578
4.13746
4.08892
4.04023
3.9915
3.94285
3.8944
3.84629
3.79868
3.75174
3.70566
3.66056
3.61659
3.57357
3.53174
0.0239147
0.0548714
0.0703043
0.0811595
0.0900354
0.097851
0.105053
0.111905
0.11858
0.125202
0.131863
0.138631
0.145562
0.152698
0.160072
0.167715
0.175652
0.183907
0.192503
0.201463
0.210813
0.220577
0.230783
0.241459
0.252637
0.26435
0.276631
0.289519
0.303053
0.317272
0.33222
0.347939
0.364479
0.381889
0.40022
0.419518
0.439825
0.461194
0.483676
0.507327
0.532199
0.558347
0.585828
0.614701
0.645044
0.676817
0.710057
0.744817
0.781135
0.819045
0.858576
0.899749
0.942585
0.987096
1.03329
1.08118
1.13075
1.18202
1.23496
1.28956
1.34579
1.40361
1.46297
1.52385
1.5862
1.64999
1.71516
1.78165
1.84942
1.9184
1.98852
2.05972
2.13192
2.20506
2.27904
2.3538
2.42925
2.50531
2.58189
2.65892
2.73629
2.81393
2.89174
2.96963
3.04752
3.12535
3.20303
3.28052
3.35773
3.43443
3.5105
3.58588
3.66048
3.73424
3.80709
3.87895
3.94975
4.01942
4.0879
4.15512
4.221
4.28548
4.34849
4.40996
4.46983
4.52802
4.58448
4.63914
4.69195
4.74285
4.79179
4.83872
4.88358
4.92634
4.96694
5.00536
5.04155
5.07548
5.10713
5.13645
5.16343
5.18806
5.21031
5.23017
5.24764
5.26271
5.27539
5.28568
5.29358
5.29912
5.3023
5.30314
5.30167
5.29792
5.29191
5.28368
5.27327
5.26071
5.24604
5.22932
5.2106
5.18991
5.16732
5.14288
5.11664
5.08868
5.05903
5.02778
4.99497
4.96068
4.92497
4.8879
4.84954
4.80996
4.76922
4.72739
4.68453
4.64071
4.59601
4.55047
4.50418
4.45719
4.40957
4.36139
4.31273
4.26364
4.21421
4.16452
4.11467
4.06475
4.01488
3.96517
3.91577
3.86683
3.81852
3.77101
3.72443
3.67891
3.63427
3.59081
0.0236824
0.0544022
0.0695578
0.0801702
0.0888069
0.0963827
0.103346
0.109963
0.116408
0.122805
0.129245
0.135798
0.142516
0.149442
0.156611
0.164054
0.171799
0.179873
0.188302
0.197114
0.206338
0.216006
0.22615
0.236807
0.248015
0.259817
0.272255
0.285378
0.299236
0.313886
0.329368
0.345743
0.363073
0.381428
0.40089
0.421517
0.443307
0.46634
0.490686
0.516407
0.543563
0.572211
0.602406
0.634198
0.667628
0.702713
0.739474
0.777936
0.81812
0.860039
0.903702
0.949111
0.996261
1.04514
1.09574
1.14804
1.20201
1.25763
1.31486