/*--------------------------------*- C++ -*----------------------------------*\
  =========                 |
  \\      /  F ield         | OpenFOAM: The Open Source CFD Toolbox
   \\    /   O peration     | Website:  https://openfoam.org
    \\  /    A nd           | Version:  12
     \\/     M anipulation  |
\*---------------------------------------------------------------------------*/
FoamFile
{
    format      ascii;
    class       volScalarField;
    location    "0.28";
    object      nut;
}
// * * * * * * * * * * * * * * * * * * * * * * * * * * * * * * * * * * * * * //

dimensions      [0 2 -1 0 0 0 0];

internalField   nonuniform List<scalar> 
12225
(
4.04768e-05
3.83178e-05
3.62504e-05
3.44199e-05
3.29519e-05
3.18976e-05
3.12561e-05
3.09935e-05
3.10578e-05
3.13897e-05
3.19305e-05
3.26266e-05
3.34314e-05
3.43065e-05
3.52226e-05
3.61552e-05
3.71093e-05
3.84906e-05
0.000281048
0.000209266
0.000176267
0.00015744
0.000146272
0.000139688
0.000135794
0.000133431
0.000131916
0.000130859
0.000130045
0.000129358
0.00012874
0.000128162
0.000127623
0.00012708
0.000126683
0.000125737
0.000556048
0.000419908
0.000349817
0.000304738
0.000272452
0.000247988
0.000228773
0.00021331
0.000200683
0.000190283
0.00018167
0.000174504
0.000168517
0.000163487
0.00015924
0.000155591
0.000152453
0.000149397
0.000740308
0.000625822
0.000544118
0.000485002
0.000439776
0.000403658
0.000373851
0.000348617
0.00032687
0.000307911
0.000291267
0.000276592
0.000263615
0.000252106
0.000241871
0.000232692
0.000224415
0.000216761
0.000817069
0.000759142
0.000700547
0.00064858
0.000603902
0.000565591
0.000532484
0.000503527
0.000477896
0.000454983
0.000434341
0.000415636
0.00039861
0.000383052
0.000368784
0.000355621
0.00034342
0.000332087
0.0008421
0.000819688
0.000789925
0.000757608
0.000725557
0.00069517
0.000666974
0.000641029
0.000617191
0.00059526
0.000575031
0.000556319
0.000538959
0.000522804
0.000507725
0.000493594
0.000480308
0.000467915
0.000849261
0.000841808
0.000829742
0.000814189
0.000796483
0.000777765
0.000758855
0.000740265
0.000722281
0.000705051
0.000688634
0.00067304
0.000658246
0.000644216
0.000630901
0.00061825
0.000606221
0.000594941
0.00085112
0.000848748
0.000844481
0.000838237
0.000830247
0.000820898
0.000810603
0.000799728
0.000788563
0.000777324
0.000766169
0.000755203
0.000744496
0.000734091
0.000724011
0.000714265
0.000704867
0.00069597
0.00085156
0.000850665
0.00084917
0.000846887
0.000843742
0.00083976
0.000835036
0.000829697
0.00082388
0.000817712
0.000811308
0.000804762
0.00079815
0.000791534
0.000784959
0.000778464
0.000772084
0.000765956
0.000851652
0.000851133
0.000850468
0.000849564
0.000848347
0.000846773
0.000844827
0.000842521
0.000839886
0.000836962
0.000833794
0.00083043
0.000826912
0.000823281
0.000819572
0.000815817
0.000812048
0.000808364
0.000851668
0.00085123
0.000850778
0.000850278
0.000849698
0.000849007
0.000848183
0.000847212
0.000846089
0.000844816
0.000843401
0.000841856
0.000840197
0.000838438
0.000836596
0.000834688
0.000832733
0.000830788
0.000851669
0.000851245
0.000850835
0.000850429
0.000850014
0.000849575
0.000849101
0.00084858
0.000848003
0.000847366
0.000846665
0.000845903
0.000845079
0.0008442
0.00084327
0.000842295
0.000841285
0.000840274
0.000851668
0.000851244
0.000850843
0.000850459
0.000850088
0.000849726
0.000849365
0.000849001
0.000848629
0.000848243
0.000847841
0.000847421
0.00084698
0.000846519
0.000846038
0.000845538
0.000845024
0.000844514
0.000851667
0.000851242
0.000850839
0.000850458
0.000850096
0.000849751
0.000849421
0.000849102
0.000848793
0.000848491
0.000848195
0.000847902
0.000847611
0.000847321
0.000847032
0.000846742
0.000846454
0.000846181
0.000851666
0.000851239
0.000850835
0.000850452
0.00085009
0.000849746
0.000849419
0.000849108
0.000848812
0.000848528
0.000848257
0.000847996
0.000847746
0.000847505
0.000847272
0.000847048
0.000846833
0.000846638
0.000851665
0.000851236
0.000850831
0.000850447
0.000850083
0.000849737
0.000849409
0.000849098
0.000848801
0.000848519
0.000848251
0.000847994
0.00084775
0.000847517
0.000847294
0.000847082
0.000846881
0.000846703
0.000851664
0.000851235
0.000850828
0.000850442
0.000850077
0.00084973
0.000849401
0.000849088
0.00084879
0.000848507
0.000848237
0.00084798
0.000847735
0.000847502
0.000847279
0.000847066
0.000846866
0.000846688
0.000851663
0.000851234
0.000850826
0.00085044
0.000850073
0.000849725
0.000849395
0.000849081
0.000848782
0.000848498
0.000848227
0.000847969
0.000847722
0.000847488
0.000847264
0.00084705
0.000846848
0.000846669
0.000851663
0.000851233
0.000850825
0.000850439
0.000850072
0.000849724
0.000849393
0.000849078
0.000848779
0.000848494
0.000848222
0.000847963
0.000847716
0.000847481
0.000847255
0.000847041
0.000846838
0.000846658
0.000851664
0.000851234
0.000850826
0.00085044
0.000850074
0.000849726
0.000849396
0.000849081
0.000848782
0.000848497
0.000848225
0.000847965
0.000847717
0.00084748
0.000847253
0.000847037
0.000846831
0.000846648
0.000851664
0.000851235
0.000850829
0.000850443
0.000850078
0.00084973
0.000849399
0.000849082
0.000848779
0.000848489
0.000848209
0.00084794
0.000847679
0.000847427
0.000847182
0.000846944
0.000846715
0.000846505
0.000851665
0.000851237
0.00085083
0.000850442
0.000850068
0.000849706
0.000849351
0.000848999
0.000848647
0.000848293
0.000847934
0.000847569
0.000847198
0.000846818
0.000846432
0.000846038
0.00084564
0.00084525
0.000851664
0.000851228
0.000850794
0.000850348
0.00084987
0.000849345
0.000848761
0.00084811
0.000847388
0.000846592
0.000845727
0.000844795
0.000843804
0.000842759
0.000841669
0.00084054
0.000839384
0.000838222
0.000851634
0.000851073
0.000850343
0.000849363
0.000848079
0.000846467
0.00084453
0.000842291
0.000839784
0.00083705
0.000834132
0.000831071
0.000827905
0.000824667
0.000821387
0.000818091
0.000814801
0.000811566
0.000851287
0.000849596
0.000846721
0.000842577
0.000837262
0.000830978
0.00082397
0.000816468
0.00080867
0.000800732
0.000792777
0.000784894
0.000777148
0.000769584
0.000762233
0.000755113
0.00074824
0.000741666
0.000848318
0.000839425
0.00082616
0.000810016
0.000792355
0.000774221
0.000756314
0.000739034
0.000722581
0.000707035
0.000692406
0.000678669
0.000665776
0.000653673
0.000642303
0.000631613
0.000621553
0.000612136
0.000828548
0.000788842
0.000746032
0.000705698
0.000669456
0.000637491
0.000609431
0.000584721
0.000562822
0.00054328
0.000525723
0.000509855
0.000495433
0.000482264
0.000470187
0.000459073
0.000448816
0.000439367
0.000730725
0.000627344
0.000554503
0.000501053
0.00046031
0.000428336
0.00040262
0.000381453
0.000363691
0.000348558
0.000335511
0.00032415
0.000314177
0.000305363
0.000297529
0.00029053
0.000284246
0.000278594
0.000439249
0.00033847
0.000287933
0.000256866
0.000236359
0.000222507
0.00021299
0.000206309
0.000201503
0.000197956
0.000195269
0.000193175
0.000191498
0.000190115
0.000188946
0.000187932
0.000187036
0.000186209
7.16431e-05
6.90587e-05
6.65522e-05
6.41646e-05
6.19883e-05
6.00784e-05
5.84565e-05
5.71213e-05
5.60572e-05
5.52404e-05
5.46438e-05
5.42396e-05
5.40012e-05
5.39035e-05
5.3924e-05
5.40425e-05
5.42418e-05
5.45056e-05
2.06704e-07
5.37113e-06
8.91509e-06
1.20164e-05
1.51449e-05
1.8881e-05
2.32206e-05
2.82991e-05
3.42646e-05
4.10956e-05
4.83055e-05
5.59124e-05
6.38612e-05
7.20797e-05
8.04949e-05
8.90373e-05
9.76417e-05
0.000106247
0.000114796
0.000123234
0.000131508
0.000139567
0.000147358
0.000154828
0.000161918
0.000168571
0.000174727
0.000180328
0.000185308
0.000189601
0.000193145
0.000195889
0.000197793
0.0001988
0.000198895
0.000198549
0.000198828
0.000195235
0.000199273
0.000196064
0.000196908
4.75309e-05
0.00019899
4.72777e-05
4.80521e-05
4.90938e-05
5.01755e-05
5.12672e-05
5.23635e-05
5.34617e-05
5.45601e-05
5.56576e-05
5.67534e-05
5.78471e-05
5.89382e-05
6.00264e-05
6.11114e-05
6.21929e-05
6.32707e-05
6.43444e-05
6.54138e-05
6.64786e-05
6.75384e-05
6.8593e-05
6.96419e-05
7.06848e-05
7.17213e-05
7.2751e-05
7.37735e-05
7.47883e-05
7.57949e-05
7.67931e-05
7.77822e-05
7.87619e-05
7.97316e-05
8.0691e-05
8.16395e-05
8.25768e-05
8.35023e-05
8.44157e-05
8.53166e-05
8.62044e-05
8.70788e-05
8.79394e-05
8.87858e-05
8.96176e-05
9.04344e-05
9.12358e-05
9.20215e-05
9.27911e-05
9.35443e-05
9.42805e-05
9.49995e-05
9.5701e-05
9.63845e-05
9.705e-05
9.76974e-05
9.83272e-05
9.89408e-05
9.95408e-05
0.000100126
0.000100689
0.00010123
0.00010175
0.000102248
0.000102724
0.000103177
0.000103609
0.000104017
0.000104401
0.000104762
0.000105099
0.000105412
0.000105701
0.000105964
0.000106203
0.000106417
0.000106605
0.000106768
0.000106906
0.000107018
0.000107104
0.000107165
0.0001072
0.00010721
0.000107194
0.000107152
0.000107085
0.000106993
0.000106876
0.000106734
0.000106566
0.000106375
0.000106159
0.000105919
0.000105656
0.000105369
0.000105059
0.000104726
0.000104372
0.000103995
0.000103598
0.000103179
0.00010274
0.000102282
0.000101804
0.000101308
0.000100793
0.000100261
9.97122e-05
9.91472e-05
9.85667e-05
9.79713e-05
9.73618e-05
9.67388e-05
9.6103e-05
9.54554e-05
9.47964e-05
9.4127e-05
9.34479e-05
9.27591e-05
9.20635e-05
9.13592e-05
9.06505e-05
8.99423e-05
8.92895e-05
8.88678e-05
8.84807e-05
8.80934e-05
8.7704e-05
8.73125e-05
8.69189e-05
8.65226e-05
8.61224e-05
8.57152e-05
8.52943e-05
8.48442e-05
8.43246e-05
8.36363e-05
8.23364e-05
7.98473e-07
2.29234e-05
5.07475e-05
7.12431e-05
8.61846e-05
9.69365e-05
0.000105743
0.000114007
0.000122429
0.000131299
0.000140668
0.000150463
0.000160585
0.000170929
0.000181404
0.000191924
0.000202412
0.000212796
0.000223008
0.000232976
0.000242627
0.000251879
0.000260643
0.000268816
0.000276287
0.000282927
0.000288594
0.000293122
0.000296329
0.000298042
0.000298156
0.000296703
0.000293842
0.000289639
0.000283759
0.0002757
0.000265697
0.000253002
0.000259193
0.000252089
0.000257066
0.000266554
0.000261271
0.000262868
0.000268118
0.000273755
0.000280282
0.000287265
0.00029454
0.000302032
0.000309698
0.00031751
0.000325452
0.00033351
0.000341678
0.00034995
0.000358322
0.00036679
0.000375353
0.000384008
0.000392754
0.000401588
0.00041051
0.000419516
0.000428605
0.000437774
0.000447021
0.000456342
0.000465733
0.000475192
0.000484713
0.000494293
0.000503927
0.000513609
0.000523335
0.0005331
0.000542896
0.00055272
0.000562565
0.000572424
0.000582293
0.000592166
0.000602036
0.000611898
0.000621746
0.000631576
0.000641382
0.00065116
0.000660905
0.000670612
0.000680277
0.000689895
0.000699463
0.000708972
0.000718415
0.000727778
0.00073704
0.000746164
0.000755094
0.000763666
0.000771632
0.000779428
0.0007871
0.00079465
0.000802074
0.000809365
0.000816519
0.00082353
0.000830392
0.0008371
0.000843649
0.000850033
0.000856248
0.000862289
0.000868151
0.00087383
0.000879321
0.00088462
0.000889723
0.000894627
0.000899329
0.000903825
0.000908112
0.000912188
0.00091605
0.000919696
0.000923124
0.000926333
0.00092932
0.000932085
0.000934627
0.000936945
0.000939038
0.000940908
0.000942553
0.000943975
0.000945174
0.000946151
0.000946909
0.000947447
0.000947769
0.000947876
0.000947772
0.000947459
0.00094694
0.000946218
0.000945299
0.000944184
0.000942879
0.000941389
0.000939718
0.000937871
0.000935854
0.000933673
0.000931334
0.000928839
0.000926203
0.000923426
0.000920517
0.00091749
0.000914333
0.000911084
0.000907736
0.000904257
0.000900552
0.00089607
0.000889551
0.000882339
0.000874909
0.000867375
0.000859775
0.000852127
0.00084444
0.000836715
0.000828945
0.000821109
0.000813129
0.000804895
0.000795416
0.000777031
1.6032e-06
3.75287e-05
8.16471e-05
0.000115002
0.000139118
0.000157068
0.000171271
0.00018347
0.000194802
0.000205921
0.000217142
0.000228567
0.000240188
0.000251943
0.000263755
0.000275544
0.000287229
0.000298738
0.000309997
0.000320932
0.000331469
0.000341529
0.000351029
0.000359887
0.000368024
0.000375368
0.000381862
0.000387466
0.000392175
0.000396036
0.000399186
0.00040188
0.00040446
0.000407233
0.000410346
0.000413952
0.000418715
0.000424869
0.000433424
0.000442815
0.000453949
0.000465597
0.000476001
0.000487758
0.000501249
0.000515565
0.00053047
0.000545803
0.000561479
0.000577451
0.000593686
0.000610164
0.000626866
0.00064378
0.000660898
0.00067821
0.000695712
0.000713399
0.000731266
0.000749308
0.000767522
0.000785904
0.000804448
0.00082315
0.000842004
0.000861003
0.000880141
0.00089941
0.000918802
0.000938307
0.000957917
0.000977621
0.000997409
0.00101727
0.00103719
0.00105716
0.00107716
0.00109719
0.00111724
0.00113727
0.0011573
0.0011773
0.00119726
0.00121717
0.00123701
0.00125678
0.00127646
0.00129605
0.00131552
0.00133487
0.00135408
0.00137314
0.00139204
0.00141075
0.00142925
0.00144752
0.00146551
0.00148319
0.00150051
0.00151715
0.00153334
0.00154923
0.00156487
0.00158024
0.00159535
0.00161017
0.00162471
0.00163894
0.00165286
0.00166645
0.00167971
0.00169262
0.00170517
0.00171736
0.00172917
0.0017406
0.00175163
0.00176226
0.00177248
0.00178229
0.00179167
0.00180062
0.00180913
0.0018172
0.00182482
0.001832
0.00183872
0.00184498
0.00185077
0.00185611
0.00186098
0.00186538
0.00186932
0.00187278
0.00187579
0.00187832
0.0018804
0.00188201
0.00188316
0.00188386
0.0018841
0.0018839
0.00188327
0.00188219
0.00188069
0.00187877
0.00187643
0.00187369
0.00187055
0.00186703
0.00186313
0.00185887
0.00185425
0.00184929
0.001844
0.00183839
0.00183248
0.00182629
0.00181982
0.0018131
0.00180615
0.00179897
0.00179159
0.00178392
0.00177582
0.00176676
0.00175589
0.00174404
0.00173171
0.00171912
0.00170635
0.00169344
0.00168042
0.00166729
0.00165403
0.00164057
0.00162671
0.00161193
0.0015943
0.00156521
2.57185e-06
4.84428e-05
0.000104422
0.000147472
0.00017949
0.000203699
0.000222772
0.000238706
0.000252891
0.00026622
0.00027921
0.000292119
0.000305045
0.000317995
0.000330932
0.000343798
0.000356533
0.000369075
0.000381365
0.00039335
0.000404977
0.000416199
0.000426976
0.00043728
0.000447099
0.000456445
0.000465357
0.000473909
0.000482208
0.000490407
0.000498702
0.000507337
0.000516576
0.000526646
0.00053769
0.000549808
0.000563163
0.000577799
0.000593675
0.00061066
0.000628648
0.000647288
0.000666411
0.000686373
0.000707191
0.000728621
0.000750517
0.000772802
0.000795436
0.000818394
0.000841659
0.000865217
0.000889057
0.000913169
0.000937545
0.000962178
0.000987062
0.00101219
0.00103756
0.00106316
0.00108899
0.00111504
0.0011413
0.00116777
0.00119443
0.00122128
0.0012483
0.00127548
0.00130282
0.00133029
0.00135789
0.00138559
0.00141338
0.00144125
0.00146918
0.00149714
0.00152513
0.00155313
0.00158111
0.00160905
0.00163695
0.00166478
0.00169252
0.00172015
0.00174767
0.00177504
0.00180225
0.00182929
0.00185614
0.00188278
0.00190919
0.00193535
0.00196124
0.00198683
0.0020121
0.00203703
0.00206157
0.0020857
0.0021093
0.00213229
0.00215482
0.00217696
0.00219874
0.00222016
0.0022412
0.00226184
0.00228208
0.0023019
0.00232128
0.00234021
0.00235867
0.00237666
0.00239415
0.00241114
0.0024276
0.00244354
0.00245893
0.00247377
0.00248805
0.00250174
0.00251486
0.00252738
0.0025393
0.00255061
0.00256131
0.00257138
0.00258083
0.00258965
0.00259783
0.00260537
0.00261227
0.00261853
0.00262414
0.0026291
0.00263342
0.0026371
0.00264013
0.00264253
0.00264429
0.00264542
0.00264592
0.0026458
0.00264507
0.00264374
0.0026418
0.00263928
0.00263619
0.00263252
0.00262831
0.00262354
0.00261825
0.00261245
0.00260615
0.00259936
0.00259211
0.0025844
0.00257627
0.00256774
0.00255882
0.00254953
0.00253991
0.00252994
0.00251964
0.00250896
0.00249775
0.00248568
0.00247229
0.00245795
0.00244302
0.00242771
0.00241212
0.00239632
0.00238034
0.0023642
0.00234788
0.00233127
0.00231411
0.0022957
0.00227388
0.00224202
3.54544e-06
5.73305e-05
0.00012254
0.000173914
0.000212746
0.000242388
0.000265731
0.000284985
0.000301736
0.00031706
0.000331636
0.000345855
0.000359919
0.000373911
0.000387845
0.000401702
0.000415449
0.000429049
0.000442471
0.000455686
0.000468675
0.00048143
0.000493953
0.000506265
0.000518408
0.000530446
0.000542472
0.000554604
0.000566985
0.000579776
0.000593151
0.000607287
0.000622348
0.000638462
0.000655704
0.000674105
0.000693674
0.000714373
0.000736122
0.000758841
0.000782441
0.000806791
0.000831827
0.000857557
0.000883919
0.000910802
0.000938126
0.000965846
0.000993933
0.00102237
0.00105115
0.00108025
0.00110967
0.0011394
0.00116944
0.00119977
0.0012304
0.0012613
0.00129248
0.00132392
0.00135563
0.00138758
0.00141977
0.00145219
0.00148483
0.00151766
0.00155068
0.00158388
0.00161723
0.00165072
0.00168433
0.00171805
0.00175184
0.0017857
0.00181959
0.0018535
0.00188741
0.0019213
0.00195513
0.0019889
0.00202257
0.00205612
0.00208954
0.0021228
0.00215587
0.00218875
0.0022214
0.00225381
0.00228596
0.00231783
0.00234939
0.00238063
0.00241152
0.00244204
0.00247216
0.00250187
0.00253113
0.00255993
0.00258809
0.00261569
0.00264282
0.0026695
0.00269575
0.00272157
0.00274694
0.00277184
0.00279626
0.00282019
0.0028436
0.00286647
0.0028888
0.00291057
0.00293175
0.00295235
0.00297233
0.00299168
0.0030104
0.00302847
0.00304588
0.00306261
0.00307865
0.00309399
0.00310863
0.00312255
0.00313575
0.00314821
0.00315994
0.00317092
0.00318116
0.00319063
0.00319935
0.00320731
0.00321451
0.00322094
0.00322661
0.00323151
0.00323565
0.00323903
0.00324166
0.00324354
0.00324467
0.00324506
0.00324471
0.00324364
0.00324186
0.00323937
0.00323619
0.00323232
0.00322779
0.0032226
0.00321677
0.00321031
0.00320325
0.0031956
0.00318737
0.00317861
0.00316931
0.00315951
0.00314922
0.00313848
0.00312731
0.0031157
0.00310367
0.00309119
0.00307815
0.00306436
0.0030496
0.00303401
0.00301781
0.00300116
0.00298417
0.00296691
0.00294944
0.00293178
0.00291391
0.00289576
0.00287705
0.00285709
0.00283397
0.00280326
4.4614e-06
6.45281e-05
0.000137554
0.000196023
0.000240778
0.000275221
0.000302391
0.000324655
0.000343755
0.000360914
0.000376947
0.000392367
0.000407472
0.000422423
0.000437292
0.000452106
0.000466865
0.000481565
0.000496201
0.000510772
0.000525289
0.000539774
0.000554262
0.000568804
0.000583469
0.000598346
0.000613542
0.000629178
0.000645388
0.000662306
0.000680065
0.000698778
0.000718539
0.00073941
0.000761414
0.000784546
0.000808772
0.000834037
0.000860266
0.000887387
0.000915326
0.000944003
0.000973357
0.00100334
0.00103389
0.00106494
0.00109644
0.00112834
0.00116064
0.0011933
0.00122632
0.0012597
0.00129341
0.00132746
0.00136183
0.00139652
0.00143152
0.00146681
0.0015024
0.00153827
0.0015744
0.0016108
0.00164744
0.00168432
0.00172141
0.0017587
0.00179618
0.00183382
0.00187161
0.00190953
0.00194756
0.00198567
0.00202385
0.00206206
0.00210029
0.00213852
0.00217671
0.00221484
0.00225289
0.00229083
0.00232864
0.00236629
0.00240376
0.00244102
0.00247805
0.00251484
0.00255134
0.00258756
0.00262345
0.00265902
0.00269422
0.00272904
0.00276347
0.00279748
0.00283105
0.00286416
0.00289678
0.00292888
0.00296035
0.00299128
0.00302171
0.00305167
0.00308117
0.00311018
0.00313871
0.00316673
0.00319422
0.00322118
0.00324758
0.00327339
0.00329862
0.00332323
0.00334721
0.00337054
0.00339321
0.00341521
0.00343651
0.0034571
0.00347697
0.0034961
0.00351449
0.00353211
0.00354896
0.00356503
0.00358031
0.00359479
0.00360846
0.00362132
0.00363336
0.00364456
0.00365494
0.00366448
0.00367318
0.00368104
0.00368806
0.00369424
0.00369958
0.00370408
0.00370774
0.00371057
0.00371258
0.00371376
0.00371413
0.00371369
0.00371246
0.00371045
0.00370765
0.00370409
0.00369978
0.00369473
0.00368896
0.00368249
0.00367534
0.00366751
0.00365903
0.00364992
0.00364022
0.00362993
0.00361909
0.00360771
0.00359582
0.00358344
0.00357056
0.00355718
0.00354325
0.00352864
0.00351326
0.00349716
0.00348047
0.00346331
0.00344578
0.00342795
0.00340988
0.00339162
0.00337317
0.00335448
0.00333533
0.00331512
0.00329238
0.00326423
5.24953e-06
7.05683e-05
0.000150038
0.000214517
0.000264427
0.000303147
0.000333793
0.000358837
0.000380137
0.000399033
0.000416457
0.000433025
0.000449127
0.000464999
0.000480774
0.000496525
0.000512292
0.0005281
0.000543971
0.000559928
0.000576004
0.00059224
0.000608691
0.000625422
0.000642512
0.00066005
0.000678138
0.000696882
0.00071639
0.000736764
0.000758094
0.00078045
0.000803882
0.00082841
0.000854033
0.000880723
0.000908439
0.000937123
0.00096671
0.000997132
0.00102832
0.00106022
0.00109277
0.00112591
0.00115959
0.00119377
0.00122839
0.00126344
0.00129889
0.00133473
0.00137093
0.0014075
0.00144441
0.00148167
0.00151926
0.00155717
0.00159539
0.00163392
0.00167274
0.00171184
0.00175121
0.00179083
0.00183069
0.00187078
0.00191109
0.00195158
0.00199225
0.00203307
0.00207403
0.0021151
0.00215626
0.00219749
0.00223877
0.00228007
0.00232136
0.00236262
0.00240382
0.00244495
0.00248596
0.00252684
0.00256756
0.00260808
0.0026484
0.00268848
0.00272829
0.00276782
0.00280703
0.00284592
0.00288446
0.00292262
0.00296039
0.00299776
0.00303469
0.00307118
0.00310721
0.00314276
0.00317781
0.00321226
0.00324613
0.00327949
0.00331235
0.00334473
0.00337663
0.00340803
0.00343893
0.0034693
0.00349913
0.0035284
0.00355709
0.00358518
0.00361265
0.00363948
0.00366566
0.00369117
0.00371599
0.0037401
0.00376348
0.00378613
0.00380803
0.00382915
0.00384948
0.00386902
0.00388775
0.00390566
0.00392274
0.00393898
0.00395437
0.0039689
0.00398257
0.00399536
0.00400727
0.0040183
0.00402845
0.0040377
0.00404607
0.00405355
0.00406013
0.00406581
0.00407061
0.00407453
0.00407757
0.00407973
0.00408102
0.00408145
0.00408102
0.00407977
0.00407766
0.00407474
0.004071
0.00406649
0.00406118
0.0040551
0.00404829
0.00404074
0.00403249
0.00402355
0.00401396
0.00400372
0.00399287
0.00398143
0.00396942
0.00395686
0.00394375
0.00393011
0.0039159
0.00390107
0.00388557
0.00386944
0.00385275
0.00383558
0.00381803
0.00380016
0.00378206
0.00376377
0.00374533
0.00372673
0.0037078
0.00368811
0.00366652
0.00364119
5.923e-06
7.54683e-05
0.000160191
0.000229751
0.000284153
0.000326693
0.00036051
0.000388142
0.000411526
0.000432095
0.000450871
0.000468563
0.000485642
0.000502414
0.000519071
0.000535734
0.000552477
0.000569357
0.000586416
0.000603699
0.000621253
0.00063913
0.000657391
0.000676105
0.000695348
0.000715203
0.000735754
0.000757087
0.000779282
0.000802411
0.000826534
0.000851689
0.000877898
0.000905161
0.000933463
0.000962768
0.000993033
0.0010242
0.00105622
0.00108902
0.00112256
0.00115676
0.00119159
0.00122698
0.0012629
0.00129931
0.00133617
0.00137346
0.00141115
0.00144923
0.00148768
0.00152649
0.00156564
0.00160514
0.00164497
0.00168511
0.00172556
0.00176631
0.00180735
0.00184866
0.00189023
0.00193205
0.0019741
0.00201636
0.00205883
0.00210148
0.00214429
0.00218725
0.00223033
0.00227352
0.00231679
0.00236012
0.00240348
0.00244685
0.00249021
0.00253353
0.00257679
0.00261995
0.00266298
0.00270588
0.00274859
0.00279111
0.00283339
0.00287542
0.00291717
0.00295862
0.00299974
0.00304051
0.00308091
0.00312092
0.00316053
0.00319971
0.00323845
0.00327673
0.00331454
0.00335186
0.00338867
0.0034249
0.00346059
0.0034958
0.00353052
0.00356477
0.00359854
0.00363182
0.00366459
0.00369683
0.00372853
0.00375966
0.00379021
0.00382015
0.00384947
0.00387815
0.00390616
0.00393348
0.00396011
0.00398602
0.00401119
0.0040356
0.00405925
0.0040821
0.00410415
0.00412538
0.00414578
0.00416534
0.00418404
0.00420188
0.00421885
0.00423493
0.00425012
0.00426441
0.00427778
0.00429024
0.00430179
0.00431242
0.00432213
0.00433091
0.00433876
0.00434569
0.00435168
0.00435677
0.00436094
0.0043642
0.00436654
0.00436798
0.00436853
0.00436822
0.00436701
0.00436493
0.004362
0.00435825
0.00435366
0.00434827
0.00434209
0.00433514
0.00432744
0.00431902
0.00430988
0.00430007
0.00428959
0.00427848
0.00426675
0.00425442
0.00424152
0.00422804
0.00421398
0.00419933
0.00418406
0.00416821
0.00415182
0.00413496
0.00411771
0.00410015
0.00408235
0.00406439
0.00404633
0.00402819
0.00400987
0.00399105
0.00397091
0.0039482
6.47673e-06
7.93111e-05
0.000168207
0.000242001
0.000300283
0.000346216
0.00038292
0.000412956
0.000438315
0.000460493
0.000480588
0.000499383
0.00051742
0.000535069
0.000552575
0.0005701
0.000587758
0.000605627
0.000623772
0.00064225
0.000661117
0.000680431
0.000700254
0.000720649
0.000741686
0.000763433
0.000785958
0.000809324
0.000833591
0.000858806
0.000885002
0.000912202
0.000940409
0.000969613
0.00099979
0.0010309
0.00106291
0.00109577
0.00112941
0.0011638
0.00119887
0.00123458
0.00127088
0.00130773
0.00134508
0.00138291
0.00142119
0.00145988
0.00149896
0.00153843
0.00157827
0.00161845
0.00165898
0.00169983
0.00174101
0.00178249
0.00182428
0.00186635
0.00190869
0.00195131
0.00199417
0.00203728
0.00208061
0.00212415
0.00216789
0.00221181
0.00225589
0.00230011
0.00234447
0.00238892
0.00243347
0.00247808
0.00252273
0.00256739
0.00261205
0.00265668
0.00270125
0.00274573
0.0027901
0.00283432
0.00287838
0.00292224
0.00296588
0.00300926
0.00305237
0.00309517
0.00313764
0.00317976
0.0032215
0.00326286
0.00330381
0.00334433
0.00338441
0.00342403
0.00346319
0.00350186
0.00354001
0.00357766
0.00361482
0.00365153
0.00368778
0.00372358
0.00375891
0.00379376
0.00382811
0.00386195
0.00389525
0.00392799
0.00396016
0.00399172
0.00402266
0.00405295
0.00408258
0.00411153
0.00413978
0.0041673
0.00419408
0.0042201
0.00424534
0.00426979
0.00429341
0.00431621
0.00433816
0.00435926
0.00437949
0.00439884
0.0044173
0.00443487
0.00445153
0.00446726
0.00448206
0.00449592
0.00450885
0.00452084
0.0045319
0.00454201
0.00455116
0.00455936
0.0045666
0.00457291
0.00457829
0.00458273
0.00458621
0.00458876
0.0045904
0.00459113
0.00459095
0.00458987
0.00458792
0.0045851
0.00458143
0.00457692
0.00457159
0.00456546
0.00455855
0.00455088
0.00454247
0.00453333
0.0045235
0.00451299
0.00450183
0.00449003
0.00447762
0.0044646
0.004451
0.0044368
0.00442201
0.00440666
0.00439079
0.00437445
0.00435773
0.00434069
0.00432342
0.004306
0.00428853
0.00427106
0.00425353
0.00423574
0.00421707
0.00419662
6.91056e-06
8.21901e-05
0.000174275
0.000251516
0.000313099
0.000362012
0.000401315
0.000433563
0.000460772
0.000484483
0.000505849
0.000525712
0.000544673
0.000563156
0.000581453
0.000599768
0.000618241
0.000636977
0.000656055
0.000675542
0.000695501
0.000715989
0.000737064
0.000758784
0.000781206
0.000804385
0.000828373
0.000853216
0.000878954
0.000905616
0.000933221
0.000961775
0.000991273
0.0010217
0.00105303
0.00108522
0.00111824
0.00115204
0.00118657
0.00122179
0.00125766
0.00129412
0.00133113
0.00136866
0.00140668
0.00144515
0.00148404
0.00152333
0.00156301
0.00160305
0.00164344
0.00168417
0.00172523
0.00176661
0.00180829
0.00185028
0.00189255
0.00193511
0.00197794
0.00202103
0.00206437
0.00210796
0.00215177
0.00219581
0.00224005
0.00228448
0.00232909
0.00237386
0.00241878
0.00246383
0.00250898
0.00255423
0.00259954
0.0026449
0.00269028
0.00273565
0.002781
0.00282629
0.00287149
0.00291659
0.00296154
0.00300631
0.00305088
0.00309522
0.0031393
0.00318309
0.00322656
0.00326969
0.00331246
0.00335484
0.00339682
0.00343839
0.00347952
0.00352021
0.00356044
0.00360021
0.00363952
0.0036784
0.00371685
0.00375488
0.00379249
0.00382968
0.00386642
0.00390269
0.00393849
0.00397379
0.00400856
0.00404279
0.00407645
0.00410951
0.00414196
0.00417377
0.00420492
0.00423539
0.00426516
0.00429421
0.00432252
0.00435007
0.00437684
0.0044028
0.00442794
0.00445224
0.00447569
0.00449827
0.00451998
0.0045408
0.00456073
0.00457976
0.00459786
0.00461502
0.00463124
0.0046465
0.00466081
0.00467418
0.0046866
0.00469807
0.00470855
0.00471805
0.00472659
0.00473416
0.00474078
0.00474645
0.00475115
0.0047549
0.00475772
0.00475961
0.00476057
0.00476062
0.00475977
0.00475803
0.00475542
0.00475195
0.00474764
0.0047425
0.00473656
0.00472982
0.00472231
0.00471406
0.00470507
0.00469538
0.004685
0.00467395
0.00466226
0.00464994
0.004637
0.00462347
0.00460935
0.00459467
0.00457948
0.00456382
0.00454777
0.0045314
0.00451481
0.00449809
0.00448135
0.00446465
0.00444801
0.00443128
0.00441398
0.00439544
7.22903e-06
8.42051e-05
0.000178589
0.000258543
0.000322868
0.00037435
0.000415953
0.000450201
0.00047911
0.000504249
0.000526807
0.000547671
0.000567492
0.000586736
0.000605738
0.000624732
0.000643886
0.000663324
0.000683137
0.000703402
0.000724181
0.000745531
0.000767504
0.000790151
0.000813516
0.000837644
0.00086257
0.000888328
0.000914942
0.000942428
0.000970793
0.00100004
0.00103014
0.0010611
0.00109287
0.00112544
0.00115875
0.00119277
0.00122745
0.00126277
0.00129866
0.00133511
0.00137207
0.00140951
0.00144739
0.0014857
0.0015244
0.00156348
0.00160292
0.00164271
0.00168284
0.00172329
0.00176406
0.00180514
0.00184652
0.0018882
0.00193017
0.00197242
0.00201496
0.00205778
0.00210087
0.00214422
0.00218782
0.00223167
0.00227576
0.00232008
0.00236462
0.00240935
0.00245429
0.00249939
0.00254466
0.00259006
0.00263559
0.00268121
0.00272691
0.00277265
0.00281843
0.00286419
0.00290992
0.00295558
0.00300115
0.00304658
0.00309185
0.00313692
0.00318176
0.00322633
0.00327061
0.00331457
0.00335818
0.00340143
0.00344428
0.00348673
0.00352876
0.00357037
0.00361153
0.00365234
0.00369277
0.00373282
0.00377251
0.00381181
0.00385073
0.00388925
0.00392735
0.00396502
0.00400222
0.00403894
0.00407514
0.00411081
0.00414592
0.00418045
0.00421437
0.00424766
0.0042803
0.00431226
0.00434352
0.00437407
0.00440388
0.00443293
0.0044612
0.00448866
0.00451529
0.00454107
0.004566
0.00459006
0.00461324
0.00463553
0.00465692
0.00467741
0.00469697
0.00471556
0.0047332
0.00474987
0.00476559
0.00478035
0.00479414
0.00480696
0.0048188
0.00482965
0.00483953
0.00484844
0.00485637
0.00486334
0.00486934
0.00487438
0.00487847
0.00488161
0.00488382
0.00488511
0.00488548
0.00488495
0.00488352
0.00488123
0.00487807
0.00487406
0.00486923
0.00486358
0.00485714
0.00484993
0.00484196
0.00483325
0.00482383
0.00481372
0.00480293
0.00479148
0.0047794
0.00476671
0.00475342
0.00473956
0.00472519
0.00471034
0.00469509
0.00467952
0.00466372
0.0046478
0.00463187
0.00461602
0.0046003
0.0045846
0.00456855
0.0045516
7.44092e-06
8.54617e-05
0.000181348
0.000263331
0.000329856
0.000383488
0.000427071
0.000463073
0.000493495
0.000519913
0.00054354
0.000565297
0.000585868
0.000605756
0.000625328
0.000644845
0.000664496
0.00068442
0.00070472
0.000725475
0.00074675
0.000768597
0.000791064
0.000814192
0.000838015
0.000862567
0.000887873
0.000913952
0.000940818
0.000968479
0.000996933
0.00102617
0.00105618
0.00108694
0.00111843
0.0011506
0.00118344
0.0012169
0.00125095
0.00128555
0.00132067
0.00135628
0.00139235
0.00142885
0.00146575
0.00150304
0.0015407
0.00157871
0.00161706
0.00165575
0.00169476