/*--------------------------------*- C++ -*----------------------------------*\
  =========                 |
  \\      /  F ield         | OpenFOAM: The Open Source CFD Toolbox
   \\    /   O peration     | Website:  https://openfoam.org
    \\  /    A nd           | Version:  12
     \\/     M anipulation  |
\*---------------------------------------------------------------------------*/
FoamFile
{
    format      ascii;
    class       volScalarField;
    location    "0.28";
    object      p;
}
// * * * * * * * * * * * * * * * * * * * * * * * * * * * * * * * * * * * * * //

dimensions      [0 2 -2 0 0 0 0];

internalField   nonuniform List<scalar> 
12225
(
-1.11252
-3.39554
-4.55807
-4.86636
-5.03476
-5.19465
-5.31945
-5.40811
-5.47802
-5.53938
-5.594
-5.64171
-5.68284
-5.71672
-5.74226
-5.7492
-5.74723
-5.64075
-4.58002
-5.28216
-5.37245
-5.2375
-5.19758
-5.26504
-5.34601
-5.41213
-5.46944
-5.5232
-5.57319
-5.61827
-5.65815
-5.69197
-5.71934
-5.73327
-5.74656
-5.73234
-4.78477
-4.68184
-4.83868
-4.96091
-5.06843
-5.19093
-5.29945
-5.38239
-5.44992
-5.51014
-5.56474
-5.61349
-5.65656
-5.6937
-5.72534
-5.74842
-5.77716
-5.81047
-4.64747
-4.56937
-4.8455
-5.02434
-5.11894
-5.21627
-5.31162
-5.38945
-5.45438
-5.51298
-5.56673
-5.61527
-5.65876
-5.69735
-5.73208
-5.76301
-5.80181
-5.85471
-4.65443
-4.67172
-4.91186
-5.06188
-5.13807
-5.22297
-5.31282
-5.38918
-5.45348
-5.51161
-5.56524
-5.61417
-5.65868
-5.69934
-5.73761
-5.77521
-5.82071
-5.88083
-4.71611
-4.7586
-4.93645
-5.0673
-5.14544
-5.22817
-5.31472
-5.38986
-5.45383
-5.51171
-5.56536
-5.61479
-5.66039
-5.70304
-5.74441
-5.78679
-5.83627
-5.89821
-4.77584
-4.81539
-4.95185
-5.07418
-5.15672
-5.23664
-5.31856
-5.3917
-5.45512
-5.5127
-5.56631
-5.61618
-5.6628
-5.70718
-5.75103
-5.79659
-5.84806
-5.90893
-4.82898
-4.8639
-4.97426
-5.087
-5.16971
-5.2458
-5.32299
-5.39395
-5.45669
-5.51393
-5.56746
-5.61771
-5.66522
-5.71103
-5.7567
-5.80414
-5.85611
-5.91448
-4.87875
-4.91051
-5.00136
-5.10226
-5.18248
-5.25514
-5.32812
-5.39675
-5.45859
-5.51538
-5.56873
-5.61924
-5.66744
-5.71428
-5.7611
-5.80936
-5.86079
-5.91613
-4.92609
-4.95474
-5.02997
-5.11897
-5.19549
-5.26505
-5.3342
-5.40027
-5.46094
-5.51712
-5.57017
-5.62074
-5.66934
-5.71679
-5.76413
-5.81241
-5.86262
-5.91488
-4.97084
-4.99614
-5.05899
-5.13714
-5.20916
-5.2756
-5.34115
-5.40454
-5.46378
-5.51918
-5.57178
-5.62219
-5.6709
-5.71853
-5.76585
-5.81357
-5.8622
-5.91151
-5.00932
-5.03167
-5.08556
-5.15491
-5.22229
-5.28571
-5.34817
-5.40908
-5.46684
-5.52136
-5.57339
-5.62345
-5.67197
-5.71941
-5.76634
-5.81319
-5.86021
-5.90704
-5.04499
-5.0648
-5.11137
-5.17297
-5.23564
-5.296
-5.35554
-5.41403
-5.4702
-5.52373
-5.57505
-5.6246
-5.67271
-5.71973
-5.766
-5.81179
-5.85718
-5.90176
-5.08247
-5.09979
-5.13961
-5.19367
-5.2511
-5.3079
-5.3643
-5.42012
-5.47438
-5.52662
-5.57697
-5.62574
-5.67314
-5.71939
-5.76467
-5.80908
-5.85262
-5.89492
-5.12053
-5.13545
-5.16932
-5.21638
-5.26836
-5.32121
-5.37429
-5.42726
-5.47933
-5.52995
-5.57903
-5.62669
-5.67304
-5.71816
-5.76211
-5.8049
-5.84645
-5.88648
-5.15723
-5.16998
-5.19887
-5.23982
-5.28653
-5.33531
-5.38501
-5.43505
-5.48473
-5.53345
-5.58096
-5.6272
-5.67216
-5.71583
-5.75818
-5.79915
-5.83867
-5.87654
-5.18967
-5.20068
-5.22567
-5.2617
-5.30383
-5.34883
-5.39534
-5.44259
-5.48986
-5.53654
-5.58227
-5.62685
-5.67018
-5.71218
-5.75276
-5.79186
-5.82939
-5.86524
-5.2135
-5.2233
-5.24568
-5.27836
-5.3172
-5.35933
-5.4033
-5.44825
-5.49343
-5.53823
-5.58221
-5.62511
-5.66677
-5.70707
-5.7459
-5.7832
-5.81891
-5.85296
-5.22175
-5.2311
-5.25256
-5.28408
-5.32174
-5.36271
-5.40549
-5.44922
-5.49318
-5.53675
-5.57945
-5.62103
-5.6613
-5.70014
-5.73749
-5.77327
-5.80748
-5.84008
-5.20666
-5.2167
-5.23967
-5.27328
-5.31303
-5.35558
-5.39939
-5.44379
-5.48814
-5.53181
-5.57435
-5.61555
-5.65528
-5.69346
-5.73004
-5.76499
-5.79832
-5.83006
-5.18037
-5.19155
-5.21731
-5.255
-5.29871
-5.34421
-5.39019
-5.43632
-5.48197
-5.52645
-5.56942
-5.61078
-5.65048
-5.68848
-5.72476
-5.75934
-5.79225
-5.82355
-5.14535
-5.15772
-5.18773
-5.23216
-5.2816
-5.33066
-5.37932
-5.42793
-5.47555
-5.52129
-5.56498
-5.60676
-5.64666
-5.68468
-5.72086
-5.75525
-5.78792
-5.81895
-5.10468
-5.11727
-5.15261
-5.20715
-5.26421
-5.31714
-5.36863
-5.41993
-5.46961
-5.51667
-5.56123
-5.60359
-5.64383
-5.68199
-5.71817
-5.75248
-5.78501
-5.8159
-5.06081
-5.07236
-5.11471
-5.18127
-5.2459
-5.30347
-5.35928
-5.41386
-5.46527
-5.51322
-5.55843
-5.60128
-5.6418
-5.68006
-5.71621
-5.75044
-5.78287
-5.81362
-5.01392
-5.02167
-5.08267
-5.16241
-5.22747
-5.28705
-5.34885
-5.40832
-5.46196
-5.51088
-5.55678
-5.60011
-5.64085
-5.67914
-5.71523
-5.74935
-5.78168
-5.81236
-4.96596
-4.94229
-5.05305
-5.16192
-5.22242
-5.27642
-5.33974
-5.40198
-5.45713
-5.507
-5.55371
-5.59764
-5.6387
-5.67714
-5.71328
-5.74739
-5.77969
-5.81031
-4.95663
-4.81228
-4.97127
-5.13741
-5.22182
-5.28273
-5.34741
-5.40843
-5.46203
-5.51101
-5.55724
-5.60073
-5.64134
-5.67933
-5.71505
-5.74878
-5.78076
-5.81118
-5.10203
-4.81821
-4.85291
-4.98328
-5.10277
-5.20966
-5.30359
-5.37921
-5.44129
-5.49634
-5.54689
-5.59327
-5.63584
-5.6752
-5.71189
-5.74628
-5.7789
-5.81037
-5.03883
-5.5385
-5.54857
-5.38923
-5.30815
-5.33224
-5.38625
-5.4355
-5.48043
-5.5248
-5.56823
-5.60945
-5.64807
-5.68432
-5.71838
-5.75036
-5.78052
-5.81071
-1.70014
-3.57068
-4.64191
-4.93488
-5.06962
-5.20624
-5.31802
-5.39785
-5.46063
-5.51646
-5.56755
-5.61399
-5.65636
-5.69539
-5.73149
-5.76469
-5.79465
-5.81958
-6.71846
-6.71842
-6.71873
-6.71934
-6.72015
-6.72111
-6.72224
-6.72355
-6.72506
-6.72678
-6.72876
-6.73102
-6.73359
-6.73652
-6.73984
-6.74359
-6.74781
-6.75254
-6.75783
-6.7637
-6.77021
-6.77738
-6.78527
-6.79392
-6.80337
-6.81367
-6.82488
-6.83706
-6.85026
-6.86454
-6.87998
-6.89669
-6.91482
-6.93471
-6.9576
-6.98428
-7.00874
-7.02611
-7.0521
-7.06965
-7.08399
-7.12692
-7.1548
-7.16772
-7.19422
-7.22227
-7.25057
-7.28004
-7.31023
-7.34104
-7.37233
-7.40397
-7.43584
-7.46782
-7.49979
-7.53166
-7.5633
-7.5946
-7.62544
-7.65571
-7.68527
-7.71399
-7.74174
-7.76837
-7.79374
-7.81769
-7.84008
-7.86072
-7.87946
-7.89613
-7.91054
-7.92253
-7.93189
-7.93846
-7.94204
-7.94244
-7.93948
-7.93296
-7.92269
-7.90849
-7.89017
-7.86754
-7.84041
-7.80863
-7.77199
-7.73035
-7.68352
-7.63135
-7.57368
-7.51036
-7.44126
-7.36623
-7.28514
-7.19789
-7.10436
-7.00446
-6.89816
-6.78547
-6.66637
-6.54062
-6.40804
-6.26836
-6.12175
-5.96828
-5.80796
-5.64083
-5.46692
-5.28627
-5.09893
-4.90498
-4.70452
-4.49764
-4.28447
-4.06515
-3.83983
-3.60868
-3.37187
-3.12961
-2.88211
-2.62958
-2.37226
-2.1104
-1.84426
-1.57411
-1.30021
-1.02287
-0.742362
-0.458998
-0.173079
0.115084
0.405177
0.696885
0.98989
1.28387
1.57852
1.87351
2.16854
2.46329
2.75746
3.05075
3.34288
3.63355
3.92249
4.20943
4.49412
4.77631
5.05576
5.33225
5.60557
5.87552
6.1419
6.40455
6.66329
6.91799
7.1685
7.4147
7.65646
7.89369
8.1263
8.3542
8.57733
8.79562
9.00904
9.21755
9.42113
9.61975
9.81324
10.0015
10.1844
10.3621
10.5345
10.7017
10.8636
11.0203
11.172
11.3189
11.4618
11.6022
11.7491
11.903
-6.7175
-6.71768
-6.71803
-6.71854
-6.71908
-6.7196
-6.72016
-6.72085
-6.72176
-6.72294
-6.72442
-6.72621
-6.72835
-6.73086
-6.73377
-6.73709
-6.74088
-6.74515
-6.74996
-6.75532
-6.76128
-6.76788
-6.77516
-6.78316
-6.79191
-6.80145
-6.81183
-6.82305
-6.83512
-6.84804
-6.86181
-6.87642
-6.89184
-6.90808
-6.92439
-6.9385
-6.95303
-6.97896
-6.99653
-7.01919
-7.05916
-7.07233
-7.09031
-7.13198
-7.16698
-7.19707
-7.22746
-7.25807
-7.28894
-7.3201
-7.35154
-7.3832
-7.41502
-7.4469
-7.47876
-7.5105
-7.54203
-7.57322
-7.60397
-7.63416
-7.66367
-7.69237
-7.72012
-7.7468
-7.77224
-7.7963
-7.81883
-7.83966
-7.85862
-7.87555
-7.89027
-7.9026
-7.91236
-7.91936
-7.92341
-7.92433
-7.92193
-7.91602
-7.90641
-7.89291
-7.87533
-7.85349
-7.82721
-7.7963
-7.7606
-7.71994
-7.67414
-7.62305
-7.56652
-7.50439
-7.43653
-7.36281
-7.28309
-7.19725
-7.1052
-7.00681
-6.90198
-6.79059
-6.67253
-6.54755
-6.41567
-6.27728
-6.13217
-5.98029
-5.8216
-5.65611
-5.48385
-5.30486
-5.11919
-4.92691
-4.72811
-4.52289
-4.31137
-4.09368
-3.86997
-3.64041
-3.40518
-3.16446
-2.91846
-2.6674
-2.41153
-2.15107
-1.88628
-1.61744
-1.34481
-1.06867
-0.789327
-0.507068
-0.222197
0.0649767
0.354141
0.64498
0.937179
1.23042
1.52439
1.81877
2.11324
2.40751
2.70126
2.9942
3.28603
3.57647
3.86524
4.15208
4.43672
4.71892
4.99844
5.27505
5.54853
5.8187
6.08535
6.3483
6.6074
6.86248
7.11341
7.36006
7.6023
7.84005
8.07319
8.30164
8.52535
8.74424
8.95827
9.1674
9.37162
9.57086
9.76497
9.95384
10.1374
10.3158
10.4889
10.6568
10.8196
10.9772
11.1298
11.278
11.4228
11.5652
11.7156
11.8635
-6.7145
-6.71534
-6.71625
-6.7171
-6.71773
-6.71819
-6.71862
-6.71915
-6.71988
-6.72085
-6.72212
-6.72372
-6.72566
-6.72799
-6.73071
-6.73387
-6.7375
-6.74163
-6.74628
-6.7515
-6.75733
-6.76379
-6.77093
-6.77878
-6.78738
-6.79676
-6.80696
-6.818
-6.8299
-6.84269
-6.85639
-6.87104
-6.88667
-6.90332
-6.92083
-6.93858
-6.95732
-6.97924
-7.00085
-7.02371
-7.05171
-7.07519
-7.09778
-7.12635
-7.1557
-7.18475
-7.21435
-7.2444
-7.27479
-7.30549
-7.33645
-7.36761
-7.3989
-7.43026
-7.4616
-7.49282
-7.52384
-7.55455
-7.58485
-7.61462
-7.64373
-7.67208
-7.69952
-7.72592
-7.75113
-7.775
-7.79739
-7.81813
-7.83705
-7.85399
-7.86877
-7.88122
-7.89115
-7.89838
-7.90272
-7.90399
-7.902
-7.89656
-7.88747
-7.87456
-7.85763
-7.83651
-7.811
-7.78093
-7.74613
-7.70643
-7.66165
-7.61165
-7.55626
-7.49533
-7.42873
-7.35631
-7.27796
-7.19353
-7.10293
-7.00604
-6.90276
-6.79293
-6.67641
-6.55331
-6.42341
-6.28684
-6.14356
-5.99351
-5.8367
-5.67311
-5.50277
-5.32571
-5.14198
-4.95165
-4.75479
-4.55151
-4.34193
-4.12617
-3.90438
-3.67671
-3.44334
-3.20447
-2.96029
-2.71102
-2.45688
-2.19813
-1.935
-1.66777
-1.39669
-1.12206
-0.844164
-0.563291
-0.279743
0.00617246
0.294146
0.583864
0.875013
1.16728
1.46034
1.75389
2.04761
2.3412
2.63435
2.92676
3.21815
3.50821
3.79668
4.08329
4.36778
4.64989
4.92939
5.20605
5.47965
5.74999
6.01687
6.28012
6.53955
6.79503
7.04639
7.29352
7.53628
7.77458
8.00831
8.23738
8.46171
8.68125
8.89592
9.1057
9.31053
9.51035
9.70512
9.89475
10.0792
10.2584
10.4324
10.6012
10.7649
10.9235
11.0774
11.227
11.3737
11.5179
11.6709
11.8087
-6.70975
-6.71125
-6.71303
-6.71458
-6.71567
-6.71645
-6.7171
-6.71777
-6.71857
-6.71958
-6.72085
-6.72242
-6.72434
-6.72663
-6.72932
-6.73244
-6.73603
-6.74011
-6.74473
-6.7499
-6.75567
-6.76208
-6.76915
-6.77692
-6.78543
-6.7947
-6.80478
-6.8157
-6.82747
-6.84012
-6.8537
-6.86822
-6.88371
-6.90018
-6.9176
-6.93593
-6.95542
-6.97627
-6.99834
-7.0216
-7.04621
-7.07118
-7.09668
-7.12351
-7.15123
-7.17956
-7.20849
-7.23792
-7.26775
-7.29792
-7.32838
-7.35905
-7.38988
-7.42078
-7.45167
-7.48248
-7.5131
-7.54345
-7.5734
-7.60286
-7.6317
-7.65981
-7.68704
-7.71327
-7.73835
-7.76213
-7.78447
-7.8052
-7.82415
-7.84116
-7.85606
-7.86866
-7.87879
-7.88627
-7.8909
-7.89251
-7.89089
-7.88587
-7.87726
-7.86486
-7.84849
-7.82797
-7.80311
-7.77374
-7.73967
-7.70075
-7.6568
-7.60767
-7.55319
-7.49321
-7.4276
-7.35621
-7.27891
-7.19558
-7.10609
-7.01033
-6.9082
-6.79957
-6.68434
-6.56251
-6.43404
-6.29889
-6.15703
-6.00843
-5.85308
-5.69097
-5.52211
-5.34655
-5.16432
-4.97549
-4.78014
-4.57837
-4.37029
-4.15602
-3.93571
-3.70951
-3.4776
-3.24016
-2.99739
-2.7495
-2.49672
-2.23929
-1.97746
-1.71148
-1.44162
-1.16817
-0.891404
-0.611619
-0.329111
-0.0441864
0.242848
0.531679
0.821996
1.11348
1.40582
1.69871
1.99183
2.28487
2.57753
2.86952
3.16053
3.45028
3.7385
4.02491
4.30926
4.59129
4.87076
5.14744
5.42111
5.69157
5.95862
6.22207
6.48177
6.73754
6.98923
7.23673
7.47989
7.71861
7.95279
8.18233
8.40716
8.62721
8.84243
9.05275
9.2581
9.4584
9.65363
9.84377
10.0288
10.2086
10.3832
10.5526
10.717
10.8764
11.0311
11.1816
11.3292
11.4735
11.6255
11.7511
-6.70429
-6.70652
-6.70934
-6.71176
-6.71348
-6.71473
-6.71576
-6.71674
-6.71778
-6.71898
-6.72041
-6.72212
-6.72415
-6.72655
-6.72935
-6.73257
-6.73625
-6.74043
-6.74513
-6.7504
-6.75626
-6.76275
-6.76991
-6.77777
-6.78637
-6.79574
-6.80592
-6.81694
-6.82884
-6.84163
-6.85536
-6.87004
-6.8857
-6.90234
-6.91997
-6.93859
-6.9583
-6.97914
-7.00107
-7.02411
-7.04811
-7.07283
-7.09841
-7.12496
-7.15225
-7.18015
-7.20861
-7.23755
-7.26693
-7.29666
-7.3267
-7.35698
-7.38742
-7.41797
-7.44853
-7.47902
-7.50935
-7.53942
-7.56914
-7.59838
-7.62704
-7.65498
-7.68209
-7.70822
-7.73323
-7.75698
-7.77931
-7.80006
-7.81906
-7.83616
-7.85117
-7.86392
-7.87423
-7.88191
-7.88678
-7.88865
-7.88733
-7.88263
-7.87438
-7.86236
-7.84641
-7.82633
-7.80195
-7.77308
-7.73955
-7.70119
-7.65784
-7.60932
-7.55549
-7.49619
-7.43128
-7.36062
-7.28407
-7.20152
-7.11283
-7.01789
-6.9166
-6.80885
-6.69458
-6.57372
-6.44623
-6.31207
-6.17121
-6.02361
-5.86927
-5.70816
-5.54033
-5.36578
-5.18458
-4.99677
-4.80245
-4.6017
-4.39463
-4.18138
-3.96207
-3.73687
-3.50594
-3.26947
-3.02765
-2.7807
-2.52885
-2.27231
-2.01136
-1.74623
-1.47721
-1.20456
-0.928563
-0.649521
-0.367725
-0.0834793
0.202909
0.491131
0.780872
1.07182
1.36366
1.65609
1.94878
2.24144
2.53376
2.82544
3.11618
3.40571
3.69375
3.98001
4.26425
4.54621
4.82564
5.10233
5.37604
5.64658
5.91373
6.17733
6.43719
6.69316
6.94508
7.19282
7.43625
7.67527
7.90976
8.13965
8.36483
8.58525
8.80084
9.01152
9.21721
9.41782
9.61334
9.80378
9.98909
10.1692
10.3442
10.5141
10.6788
10.8387
10.9938
11.1446
11.2922
11.4353
11.5845
11.6985
-6.6991
-6.70206
-6.70585
-6.70915
-6.71156
-6.71338
-6.71488
-6.71626
-6.71765
-6.71915
-6.72086
-6.72282
-6.7251
-6.72772
-6.73074
-6.73417
-6.73807
-6.74246
-6.74738
-6.75286
-6.75894
-6.76566
-6.77305
-6.78115
-6.78999
-6.79962
-6.81007
-6.82136
-6.83353
-6.84662
-6.86064
-6.87561
-6.89155
-6.90847
-6.92637
-6.94526
-6.96516
-6.98607
-7.00796
-7.0308
-7.05453
-7.07904
-7.10435
-7.13047
-7.1573
-7.18477
-7.2128
-7.24135
-7.27034
-7.29972
-7.32942
-7.35938
-7.38954
-7.41981
-7.45012
-7.48039
-7.51052
-7.54042
-7.56998
-7.59909
-7.62764
-7.6555
-7.68255
-7.70865
-7.73365
-7.75741
-7.77977
-7.80058
-7.81967
-7.83687
-7.852
-7.8649
-7.87536
-7.88323
-7.8883
-7.89039
-7.88931
-7.88487
-7.87689
-7.86517
-7.84953
-7.82978
-7.80574
-7.77723
-7.74409
-7.70612
-7.66318
-7.6151
-7.56172
-7.50289
-7.43847
-7.36832
-7.2923
-7.21028
-7.12215
-7.0278
-6.92711
-6.82
-6.70639
-6.5862
-6.45939
-6.32591
-6.18572
-6.03879
-5.88511
-5.72469
-5.55752
-5.38365
-5.20312
-5.01599
-4.82234
-4.62226
-4.41587
-4.20328
-3.98463
-3.76008
-3.52981
-3.29398
-3.0528
-2.80647
-2.55523
-2.2993
-2.03893
-1.77438
-1.50591
-1.23381
-0.95834
-0.679805
-0.398497
-0.114719
0.171222
0.459018
0.748357
1.03893
1.33041
1.62251
1.9149
2.20727
2.49934
2.79079
3.08133
3.37069
3.65857
3.94471
4.22885
4.51074
4.79014
5.0668
5.34052
5.61108
5.8783
6.14197
6.40193
6.65801
6.91007
7.15797
7.40158
7.64079
7.8755
8.10561
8.33103
8.55168
8.7675
8.9784
9.1843
9.38513
9.58086
9.77149
9.95701
10.1374
10.3126
10.4827
10.6477
10.8077
10.9629
11.1136
11.2606
11.4021
11.5482
11.6518
-6.69517
-6.69869
-6.70328
-6.70734
-6.71041
-6.71278
-6.71477
-6.71658
-6.71837
-6.72024
-6.72228
-6.72456
-6.72714
-6.73006
-6.73337
-6.7371
-6.74129
-6.74598
-6.75119
-6.75697
-6.76336
-6.77038
-6.77809
-6.78651
-6.79567
-6.80563
-6.8164
-6.82801
-6.84051
-6.8539
-6.86822
-6.88347
-6.89966
-6.9168
-6.93489
-6.95393
-6.97391
-6.99484
-7.01667
-7.03939
-7.06295
-7.08729
-7.1124
-7.13824
-7.16477
-7.19192
-7.21965
-7.2479
-7.27662
-7.30574
-7.33521
-7.36496
-7.39492
-7.42502
-7.45518
-7.48532
-7.51534
-7.54515
-7.57464
-7.60371
-7.63223
-7.66009
-7.68715
-7.71328
-7.73833
-7.76216
-7.7846
-7.8055
-7.8247
-7.84202
-7.85728
-7.87032
-7.88094
-7.88897
-7.89421
-7.89648
-7.89559
-7.89135
-7.88357
-7.87206
-7.85664
-7.83712
-7.81332
-7.78506
-7.75216
-7.71446
-7.67179
-7.62399
-7.57091
-7.51238
-7.44828
-7.37845
-7.30277
-7.22111
-7.13335
-7.03937
-6.93908
-6.83239
-6.7192
-6.59945
-6.47306
-6.34001
-6.20023
-6.05372
-5.90046
-5.74045
-5.57369
-5.40024
-5.22012
-5.0334
-4.84017
-4.64051
-4.43452
-4.22235
-4.00412
-3.77998
-3.55012
-3.3147
-3.07392
-2.828
-2.57716
-2.32162
-2.06164
-1.79747
-1.52938
-1.25764
-0.982529
-0.704343
-0.423375
-0.139924
0.145701
0.433192
0.722239
1.01253
1.30375
1.59559
1.88775
2.17991
2.47177
2.76303
3.0534
3.3426
3.63035
3.91638
4.20042
4.48222
4.76155
5.03817
5.31186
5.5824
5.84961
6.1133
6.3733
6.62943
6.88157
7.12955
7.37326
7.61259
7.84742
8.07766
8.30321
8.52401
8.73997
8.95101
9.15705
9.35802
9.55389
9.74466
9.93032
10.1108
10.2862
10.4564
10.6215
10.7816
10.9367
11.087
11.2332
11.3727
11.516
11.6105
-6.6929
-6.69684
-6.70205
-6.70673
-6.71035
-6.71323
-6.71567
-6.71791
-6.72009
-6.72233
-6.72473
-6.72735
-6.73026
-6.73352
-6.73715
-6.7412
-6.74572
-6.75073
-6.75627
-6.76239
-6.76911
-6.77647
-6.78451
-6.79327
-6.80278
-6.81306
-6.82416
-6.83609
-6.84888
-6.86256
-6.87713
-6.89261
-6.90901
-6.92632
-6.94454
-6.96367
-6.98371
-7.00463
-7.02641
-7.04904
-7.07248
-7.09669
-7.12164
-7.14731
-7.17365
-7.20061
-7.22815
-7.25623
-7.28477
-7.31375
-7.34308
-7.37272
-7.40258
-7.43261
-7.46272
-7.49282
-7.52282
-7.55263
-7.58215
-7.61125
-7.63982
-7.66774
-7.69488
-7.72109
-7.74624
-7.77017
-7.79273
-7.81375
-7.83307
-7.85052
-7.86592
-7.8791
-7.88986
-7.89802
-7.9034
-7.90581
-7.90506
-7.90096
-7.89332
-7.88195
-7.86666
-7.84728
-7.82361
-7.79549
-7.76274
-7.72518
-7.68266
-7.63501
-7.58208
-7.52372
-7.45978
-7.39013
-7.31464
-7.23317
-7.14562
-7.05186
-6.95179
-6.84533
-6.73237
-6.61284
-6.48669
-6.35385
-6.21429
-6.06799
-5.91494
-5.75513
-5.58859
-5.41534
-5.23544
-5.04893
-4.85591
-4.65647
-4.45071
-4.23876
-4.02076
-3.79686
-3.56722
-3.33204
-3.0915
-2.84582
-2.59521
-2.33992
-2.08018
-1.81626
-1.54841
-1.27691
-1.00204
-0.72409
-0.443355
-0.160136
0.125263
0.412531
0.70136
0.991437
1.28245
1.5741
1.86606
2.15804
2.44972
2.74082
3.03104
3.32009
3.6077
3.8936
4.17753
4.45923
4.73847
5.015
5.28862
5.55912
5.82629
6.08995
6.34993
6.60607
6.85821
7.10622
7.34997
7.58933
7.82422
8.05452
8.28015
8.50102
8.71705
8.92817
9.13429
9.33535
9.53132
9.72219
9.90793
10.0885
10.264
10.4342
10.5993
10.7593
10.9142
11.064
11.2091
11.3466
11.4873
11.5739
-6.6926
-6.6968
-6.70243
-6.70756
-6.71162
-6.7149
-6.71775
-6.72037
-6.72291
-6.72549
-6.72822
-6.73117
-6.7344
-6.73797
-6.74191
-6.74628
-6.75111
-6.75644
-6.7623
-6.76874
-6.77577
-6.78345
-6.79181
-6.80088
-6.81069
-6.82127
-6.83264
-6.84485
-6.85789
-6.87179
-6.88657
-6.90223
-6.91878
-6.93622
-6.95453
-6.97373
-6.99379
-7.01471
-7.03647
-7.05905
-7.08241
-7.10654
-7.13141
-7.15698
-7.18322
-7.21008
-7.23753
-7.26552
-7.29401
-7.32293
-7.35223
-7.38185
-7.41172
-7.44176
-7.4719
-7.50205
-7.53212
-7.56201
-7.59161
-7.62081
-7.6495
-7.67754
-7.7048
-7.73114
-7.75642
-7.78049
-7.80318
-7.82434
-7.84379
-7.86137
-7.87689
-7.89018
-7.90105
-7.90932
-7.9148
-7.9173
-7.91663
-7.9126
-7.90502
-7.89371
-7.87848
-7.85915
-7.83553
-7.80745
-7.77473
-7.73721
-7.69472
-7.64711
-7.59421
-7.53589
-7.472
-7.4024
-7.32697
-7.24557
-7.15808
-7.06439
-6.96441
-6.85802
-6.74513
-6.62566
-6.49956
-6.36678
-6.22728
-6.08103
-5.92802
-5.76827
-5.60177
-5.42858
-5.24873
-5.06229
-4.86934
-4.66997
-4.46429
-4.25242
-4.03451
-3.81071
-3.58118
-3.34611
-3.10569
-2.86013
-2.60966
-2.3545
-2.09491
-1.83113
-1.56343
-1.29209
-1.01738
-0.7396
-0.459032
-0.175983
0.109244
0.396339
0.684994
0.974898
1.26574
1.55721
1.84901
2.14081
2.43233
2.72327
3.01333
3.30223
3.5897
3.87546
4.15925
4.44082
4.71994
4.99637
5.26989
5.54029
5.80738
6.07097
6.33089
6.58698
6.83908
7.08706
7.33078
7.57014
7.80503
8.03533
8.26098
8.48187
8.69793
8.90908
9.11524
9.31635
9.51237
9.70329
9.88908
10.0697
10.2452
10.4154
10.5804
10.7402
10.8948
11.0439
11.1878
11.3233
11.4616
11.5414
-6.69433
-6.69866
-6.70451
-6.70991
-6.71427
-6.71787
-6.72103
-6.72395
-6.72679
-6.72967
-6.73268
-6.73591
-6.73941
-6.74325
-6.74746
-6.7521
-6.7572
-6.76279
-6.76892
-6.77562
-6.78292
-6.79086
-6.79948
-6.80879
-6.81884
-6.82965
-6.84125
-6.85365
-6.86688
-6.88096
-6.89588
-6.91167
-6.92832
-6.94584
-6.96423
-6.98347
-7.00356
-7.02449
-7.04624
-7.0688
-7.09215
-7.11625
-7.14109
-7.16664
-7.19285
-7.21971
-7.24716
-7.27516
-7.30367
-7.33263
-7.36198
-7.39167
-7.42162
-7.45176
-7.48201
-7.51228
-7.54248
-7.57251
-7.60225
-7.6316
-7.66044
-7.68863
-7.71605
-7.74254
-7.76797
-7.79217
-7.815
-7.83628
-7.85585
-7.87353
-7.88914
-7.90251
-7.91345
-7.92177
-7.92729
-7.92981
-7.92916
-7.92513
-7.91755
-7.90621
-7.89095
-7.87158
-7.84791
-7.81977
-7.78699
-7.74941
-7.70686
-7.65918
-7.60622
-7.54783
-7.48388
-7.41423
-7.33874
-7.25729
-7.16976
-7.07604
-6.976
-6.86955
-6.7566
-6.63707
-6.5109
-6.37804
-6.23846
-6.09214
-5.93906
-5.77923
-5.61267
-5.43942
-5.25951
-5.07303
-4.88004
-4.68064
-4.47494
-4.26306
-4.04515
-3.82136
-3.59186
-3.35682
-3.11644
-2.87094
-2.62053
-2.36544
-2.10593
-1.84225
-1.57465
-1.30342
-1.02883
-0.75118
-0.470747
-0.18784
0.0972381
0.38418
0.672677
0.962419
1.25309
1.54439
1.83601
2.12764
2.41899
2.70975
2.99964
3.28837
3.57566
3.86125
4.14488
4.4263
4.70527
4.98155
5.25493
5.5252
5.79217
6.05564
6.31545
6.57144
6.82346
7.07136
7.31502
7.55432
7.78915
8.01942
8.24503
8.4659
8.68195
8.89309
9.09925
9.30037
9.49642
9.68736
9.87316
10.0538
10.2292
10.3994
10.5643
10.7238
10.8779
11.0262
11.169
11.3025
11.4386
11.5126
-6.69803
-6.70236
-6.70824
-6.71375
-6.71828
-6.72208
-6.72545
-6.7286
-6.73165
-6.73474
-6.73796
-6.74139
-6.7451
-6.74913
-6.75354
-6.75837
-6.76366
-6.76945
-6.77576
-6.78265
-6.79014
-6.79826
-6.80705
-6.81654
-6.82675
-6.83772
-6.84946
-6.86199
-6.87534
-6.88952
-6.90454
-6.92041
-6.93713
-6.95471
-6.97314
-6.99242
-7.01254
-7.03349
-7.05527
-7.07785
-7.10121
-7.12535
-7.15022
-7.1758
-7.20207
-7.22899
-7.25651
-7.2846
-7.31321
-7.34228
-7.37176
-7.40158
-7.43168
-7.46198
-7.49239
-7.52283
-7.55319
-7.58339
-7.61331
-7.64283
-7.67184
-7.70019
-7.72775
-7.75439
-7.77994
-7.80427
-7.8272
-7.84856
-7.8682
-7.88593
-7.90158
-7.91497
-7.92591
-7.93421
-7.93969
-7.94217
-7.94144
-7.93733
-7.92965
-7.9182
-7.90282
-7.88331
-7.85951
-7.83122
-7.7983
-7.76056
-7.71785
-7.67002
-7.6169
-7.55837
-7.49427
-7.42447
-7.34885
-7.26727
-7.17961
-7.08574
-6.98554
-6.87893
-6.76581
-6.64611
-6.51977
-6.38674
-6.24699
-6.10051
-5.94727
-5.78728
-5.62058
-5.44719
-5.26716
-5.08056
-4.88746
-4.68797
-4.4822
-4.27026
-4.0523
-3.82847
-3.59894
-3.3639
-3.12353
-2.87805
-2.62767
-2.37264
-2.11319
-1.84958
-1.58207
-1.31094
-1.03647
-0.758934
-0.47864
-0.195883
0.0890373
0.375813
0.664137
0.953699
1.24419
1.5353
1.82672
2.11815
2.40929
2.69985
2.98953
3.27805
3.56513
3.85052
4.13395
4.41517
4.69394
4.97003
5.24322
5.51332
5.78011
6.04342
6.30308
6.55893
6.8108
7.05858
7.30213
7.54133
7.77607
8.00626
8.2318
8.45261
8.6686
8.8797
9.08583
9.28694
9.48298
9.67391
9.8597
10.0403
10.2157
10.3857
10.5504
10.7096
10.8632
11.0107
11.1521
11.2837
11.4179
11.487
-6.7035
-6.70772
-6.71349
-6.71896
-6.72353
-6.72742
-6.7309
-6.73415
-6.73733
-6.74053
-6.74387
-6.74741
-6.75122
-6.75536
-6.75987
-6.76479
-6.77018
-6.77606
-6.78247
-6.78945
-6.79703
-6.80525
-6.81413
-6.8237
-6.83399
-6.84503
-6.85684
-6.86944
-6.88285
-6.89708
-6.91215
-6.92806
-6.94482
-6.96243
-6.98089
-7.00021
-7.02037
-7.04136
-7.06318
-7.08581
-7.10924
-7.13345
-7.1584
-7.18408
-7.21046
-7.23749
-7.26514
-7.29338
-7.32214
-7.35137
-7.38102
-7.41102
-7.44129
-7.47177
-7.50236
-7.53298
-7.56353
-7.5939
-7.62398
-7.65366
-7.6828
-7.71128
-7.73895
-7.76568
-7.79132
-7.81569
-7.83866
-7.86004
-7.87967
-7.89738
-7.91298
-7.92629
-7.93714
-7.94533
-7.95068
-7.953
-7.95211
-7.94782
-7.93994
-7.9283
-7.9127
-7.89297
-7.86894
-7.84043
-7.80727
-7.7693
-7.72637
-7.6783
-7.62497
-7.56622
-7.5019
-7.4319
-7.35608
-7.27431
-7.18643
-7.09232
-6.99189
-6.88503
-6.77167
-6.65172
-6.52515
-6.39189
-6.25191
-6.10521
-5.95176
-5.79158
-5.62468
-5.45112
-5.27093
-5.08418
-4.89096
-4.69136
-4.48548
-4.27347
-4.05544
-3.83157
-3.60201
-3.36696
-3.12661
-2.88115
-2.63083
-2.37586
-2.11649
-1.85297
-1.58557
-1.31457
-1.04023
-0.762851
-0.482724
-0.200146
0.0845841
0.37116
0.659273
0.948616
1.23888
1.52975
1.82093
2.11211
2.403
2.6933
2.98272
3.27099
3.55781
3.84294
4.12611
4.40708
4.6856
4.96144
5.2344
5.50426
5.77084
6.03393
6.29339
6.54904
6.80074
7.04834
7.29173
7.53078
7.76539
7.99546
8.2209
8.44161
8.65752
8.86855
9.07463
9.2757
9.4717
9.66261
9.84835
10.0289
10.2042
10.3741
10.5385
10.6973
10.8503
10.9969
11.1372
11.267
11.3993
11.4643
-6.71051
-6.71454
-6.72009
-6.7254
-6.72989
-6.73374
-6.73721
-6.74046
-6.74363
-6.74684
-6.75017
-6.75371
-6.75751
-6.76164
-6.76614
-6.77105
-6.77643
-6.7823
-6.78871
-6.79568
-6.80326
-6.81147
-6.82035
-6.82992
-6.84021
-6.85125
-6.86307
-6.87567
-6.88908
-6.90332
-6.91839
-6.93431
-6.95108
-6.96871
-6.9872
-7.00655
-7.02675
-7.0478
-7.06969
-7.0924
-7.11592
-7.14022
-7.16529
-7.1911
-7.21761
-7.2448
-7.27261
-7.30101
-7.32994
-7.35934
-7.38917
-7.41934
-7.44978
-7.48043
-7.51118
-7.54194
-7.57262
-7.60311
-7.6333
-7.66305
-7.69226
-7.72078
-7.74848
-7.77521
-7.80082
-7.82515
-7.84804
-7.86932
-7.88883
-7.90639
-7.92183
-7.93496
-7.94559
-7.95356
-7.95867
-7.96073
-7.95957
-7.955
-7.94684
-7.9349
-7.91901
-7.89898
-7.87465
-7.84584
-7.81239
-7.77413
-7.73091
-7.68257
-7.62897
-7.56996
-7.50541
-7.43517
-7.35911
-7.27706
-7.1889
-7.0945
-6.99378
-6.88663
-6.77298
-6.65275
-6.52591
-6.39239
-6.25217
-6.10523
-5.95156
-5.79118
-5.6241
-5.45037
-5.27003
-5.08315
-4.88982
-4.69012
-4.48417
-4.2721
-4.05404
-3.83016
-3.60061
-3.36558
-3.12527
-2.87989
-2.62965
-2.37479
-2.11555
-1.85217
-1.58494
-1.31411
-1.03996
-0.762792
-0.482889
-0.200549
0.083929
0.370241
0.65808
0.947137
1.23711
1.52768
1.81855
2.10941
2.39998
2.68996
2.97906
3.26699
3.5535
3.8383
4.12115
4.4018
4.68
4.95555
5.2282
5.49778
5.76407
6.0269
6.2861
6.5415
6.79296
7.04035
7.28354
7.5224
7.75684
7.98675
8.21204
8.43263
8.64843
8.85936
9.06537
9.26637
9.46233
9.65318
9.83887
10.0193
10.1945
10.3642
10.5284
10.6868
10.8392
10.9849
11.1238
11.252
11.3825
11.4442
-6.71882
-6.72262
-6.72787
-6.73292
-6.73721
-6.7409
-6.74422
-6.74733
-6.75037
-6.75344
-6.75663
-6.76003
-6.7637
-6.76769
-6.77206
-6.77685
-6.7821
-6.78786
-6.79415
-6.80102
-6.8085
-6.81662
-6.82541
-6.83491
-6.84513
-6.8561
-6.86785
-6.8804
-6.89377
-6.90797
-6.92301
-6.93891
-6.95567
-6.9733
-6.99181
-7.01119
-7.03143
-7.05253
-7.07449
-7.09728
-7.12089
-7.14531
-7.17049
-7.19643
-7.22307
-7.25039
-7.27834
-7.30687
-7.33594
-7.36547
-7.39541
-7.42569
-7.45624
-7.48696
-7.51777
-7.54858
-7.57928
-7.60977
-7.63993
-7.66964
-7.69878
-7.7272
-7.75478
-7.78136
-7.80679
-7.83092
-7.85359
-7.87464
-7.89388
-7.91116
-7.92629
-7.9391
-7.94941
-7.95703
-7.96178
-7.96348
-7.96196
-7.95702
-7.94848
-7.93617
-7.91991
-7.89953
-7.87485
-7.84571
-7.81194
-7.77337
-7.72985
-7.68123
-7.62736
-7.5681
-7.50331
-7.43282
-7.35647
-7.27411
-7.18563
-7.09092
-6.98989
-6.88245
-6.76851
-6.64802
-6.52092
-6.38716
-6.24671
-6.09957
-5.94571
-5.78516
-5.61794
-5.44408
-5.26363
-5.07667
-4.88327
-4.68354
-4.47757
-4.26551
-4.04748
-3.82365
-3.59418
-3.35925
-3.11906
-2.87382
-2.62375
-2.36907
-2.11004
-1.84689
-1.5799
-1.30933
-1.03546
-0.758589
-0.478997
-0.196982
0.0871576
0.373118
0.660594
0.949279
1.23887
1.52905
1.81952
2.10999
2.40016
2.68973
2.97842
3.26595
3.55205
3.83645
4.1189
4.39915
4.67698
4.95214
5.22443
5.49365
5.7596
6.0221
6.28098
6.53609
6.78727
7.03439
7.27733
7.51596
7.75019
7.9799
8.20502
8.42545
8.64112
8.85194
9.05785
9.25877
9.45466
9.64545
9.83106
10.0114
10.1864
10.356
10.5199
10.6778
10.8295
10.9743
11.1121
11.2386
11.3674
11.4265
-6.72825
-6.73182
-6.73672
-6.74143
-6.74541
-6.7488
-6.75181
-6.75462
-6.75735
-6.76012
-6.76301
-6.76612
-6.76951
-6.77323
-6.77734
-6.78188
-6.7869
-6.79243
-6.79852
-6.80519
-6.81248
-6.82043
-6.82906
-6.8384
-6.84848
-6.85933
-6.87096
-6.8834
-6.89667
-6.91078
-6.92576
-6.9416
-6.95832
-6.97592
-6.99441
-7.01378
-7.03404
-7.05516
-7.07715
-7.09999
-7.12365
-7.14812
-7.17337
-7.19936
-7.22606
-7.25343
-7.28141
-7.30997
-7.33905
-7.36858
-7.39849
-7.42873
-7.4592
-7.48983
-7.52053
-7.55119
-7.58173
-7.61203
-7.64197
-7.67145
-7.70032
-7.72846
-7.75572
-7.78197
-7.80706
-7.83083
-7.85311
-7.87376
-7.8926
-7.90945
-7.92416
-7.93653
-7.9464
-7.95357
-7.95788
-7.95915
-7.95719
-7.95182
-7.94287
-7.93016
-7.91352
-7.89277
-7.86774
-7.83826
-7.80417
-7.76532
-7.72153
-7.67267
-7.61858
-7.5591
-7.49406
-7.42328
-7.34661
-7.26394
-7.17516
-7.08017
-6.97887
-6.87117
-6.757
-6.63629
-6.50898
-6.37504
-6.23443
-6.08715
-5.93319
-5.77255
-5.60526
-5.43135
-5.25089
-5.06394
-4.87057
-4.6709
-4.46502
-4.25306
-4.03517
-3.81149
-3.5822
-3.34748
-3.10753
-2.86254
-2.61275
-2.35837
-2.09965
-1.83684
-1.57021
-1.30001
-1.02654
-0.750076
-0.470907
-0.18933
0.0943591
0.379857
0.666861
0.955064
1.24416
1.53385
1.82383
2.11379
2.40345
2.69252
2.9807
3.26773
3.55333
3.83725
4.11921
4.39899
4.67635
4.95107
5.22292
5.49171
5.75725
6.01936
6.27786
6.53261
6.78346
7.03026
7.2729
7.51127
7.74524
7.97474
8.19965
8.4199
8.63541
8.8461
9.0519
9.25274
9.44855
9.63926
9.8248
10.0051
10.1799
10.3493
10.5128
10.6703
10.8214
10.9653
11.1019
11.2269
11.3539
11.4112
-6.73914
-6.74248
-6.74703
-6.75131
-6.75482
-6.7577
-6.7602
-6.76247
-6.76467
-6.76692
-6.76932
-6.77194
-6.77488
-6.77817
-6.78188
-6.78604
-6.79071
-6.79591
-6.80168
-6.80805
-6.81506
-6.82274
-6.83112
-6.84023
-6.85008
-6.86071
-6.87214
-6.88439
-6.89749
-6.91143
-6.92625
-6.94195
-6.95854
-6.97602
-6.9944
-7.01367
-7.03382
-7.05486
-7.07675
-7.0995
-7.12306
-7.14743
-7.17256
-7.19843
-7.22498
-7.2522
-7.28001
-7.30837
-7.33723
-7.36651
-7.39616
-7.4261
-7.45625
-7.48654
-7.51687
-7.54714
-7.57727
-7.60713
-7.63662
-7.66563
-7.69401
-7.72165
-7.7484
-7.77413
-7.79869
-7.82192
-7.84367
-7.86377
-7.88207
-7.89839
-7.91255
-7.9244
-7.93374
-7.94041
-7.94423
-7.94502
-7.9426
-7.93679
-7.92742
-7.91432
-7.89731
-7.87622
-7.85089
-7.82114
-7.78681
-7.74774
-7.70378
-7.65476
-7.60051
-7.54081
-7.47551
-7.40445
-7.32752
-7.2446
-7.1556
-7.0604
-6.95891
-6.85105
-6.73674
-6.61591
-6.48851
-6.3545
-6.21385
-6.06655
-5.9126
-5.752
-5.58477
-5.41096
-5.23061
-5.04381
-4.85062
-4.65114
-4.44549
-4.23378
-4.01617
-3.79281
-3.56385
-3.32949
-3.08992
-2.84534
-2.59597
-2.34205
-2.0838
-1.82148
-1.55536
-1.2857
-1.01277
-0.736867
-0.458272
-0.17728