/*--------------------------------*- C++ -*----------------------------------*\
  =========                 |
  \\      /  F ield         | OpenFOAM: The Open Source CFD Toolbox
   \\    /   O peration     | Website:  https://openfoam.org
    \\  /    A nd           | Version:  12
     \\/     M anipulation  |
\*---------------------------------------------------------------------------*/
FoamFile
{
    format      ascii;
    class       surfaceScalarField;
    location    "0.28";
    object      phi;
}
// * * * * * * * * * * * * * * * * * * * * * * * * * * * * * * * * * * * * * //

dimensions      [0 3 -1 0 0 0 0];

internalField   nonuniform List<scalar> 
24170
(
3.1336e-06
5.48062e-08
3.04827e-06
8.53261e-08
2.97315e-06
7.51231e-08
2.90432e-06
6.88354e-08
2.83949e-06
6.48282e-08
2.78227e-06
5.72204e-08
2.73337e-06
4.88983e-08
2.69185e-06
4.15226e-08
2.65641e-06
3.54373e-08
2.62589e-06
3.05195e-08
2.59932e-06
2.65699e-08
2.57589e-06
2.34243e-08
2.55493e-06
2.09638e-08
2.53576e-06
1.91743e-08
2.51773e-06
1.8024e-08
2.49909e-06
1.86406e-08
2.47858e-06
2.05143e-08
3.76255e-08
2.44095e-06
3.45361e-06
1.84442e-08
3.45616e-06
8.27725e-08
3.44962e-06
8.16673e-08
3.438e-06
8.0456e-08
3.42351e-06
7.93156e-08
3.40597e-06
7.47601e-08
3.38634e-06
6.85263e-08
3.36544e-06
6.24246e-08
3.34404e-06
5.68422e-08
3.32274e-06
5.18213e-08
3.30194e-06
4.73696e-08
3.28186e-06
4.34968e-08
3.26263e-06
4.01956e-08
3.24423e-06
3.75752e-08
3.22671e-06
3.55485e-08
3.2099e-06
3.54466e-08
3.19471e-06
3.57041e-08
4.58332e-08
3.1865e-06
3.66535e-06
1.56073e-08
3.67825e-06
6.98729e-08
3.68531e-06
7.46055e-08
3.6896e-06
7.61731e-08
3.69127e-06
7.7641e-08
3.69014e-06
7.58907e-08
3.68669e-06
7.19765e-08
3.6815e-06
6.76185e-08
3.67499e-06
6.33532e-08
3.66751e-06
5.92997e-08
3.65934e-06
5.55343e-08
3.65071e-06
5.21351e-08
3.64174e-06
4.9157e-08
3.63257e-06
4.67484e-08
3.62319e-06
4.49334e-08
3.61402e-06
4.4612e-08
3.60474e-06
4.49832e-08
4.95558e-08
3.60102e-06
3.92465e-06
1.63465e-08
3.9358e-06
5.87206e-08
3.94255e-06
6.78608e-08
3.94802e-06
7.06958e-08
3.95244e-06
7.32277e-08
3.95536e-06
7.29689e-08
3.95691e-06
7.04218e-08
3.9574e-06
6.71339e-08
3.957e-06
6.37503e-08
3.95587e-06
6.04303e-08
3.95414e-06
5.72674e-08
3.95191e-06
5.43622e-08
3.94927e-06
5.17974e-08
3.9463e-06
4.97155e-08
3.94304e-06
4.81936e-08
3.93992e-06
4.77316e-08
3.93695e-06
4.79578e-08
4.9817e-08
3.93669e-06
4.20777e-06
1.5706e-08
4.216e-06
5.0488e-08
4.22167e-06
6.21957e-08
4.2266e-06
6.57621e-08
4.2313e-06
6.85269e-08
4.23526e-06
6.90099e-08
4.23836e-06
6.73238e-08
4.24073e-06
6.47612e-08
4.24249e-06
6.19928e-08
4.24371e-06
5.92025e-08
4.24449e-06
5.64912e-08
4.24489e-06
5.39678e-08
4.24496e-06
5.17262e-08
4.24478e-06
4.98878e-08
4.24445e-06
4.85303e-08
4.24428e-06
4.78969e-08
4.24447e-06
4.7767e-08
4.8178e-08
4.24611e-06
4.51044e-06
1.4353e-08
4.51686e-06
4.40646e-08
4.52218e-06
5.6883e-08
4.52684e-06
6.11008e-08
4.53145e-06
6.39115e-08
4.53565e-06
6.48163e-08
4.53923e-06
6.37367e-08
4.54228e-06
6.17138e-08
4.54487e-06
5.9404e-08
4.54706e-06
5.70149e-08
4.5489e-06
5.4653e-08
4.55044e-06
5.24277e-08
4.55173e-06
5.04324e-08
4.55285e-06
4.87624e-08
4.55391e-06
4.74736e-08
4.55515e-06
4.6658e-08
4.55678e-06
4.61375e-08
4.5676e-08
4.55928e-06
4.83412e-06
1.29517e-08
4.83958e-06
3.86045e-08
4.84483e-06
5.16297e-08
4.84943e-06
5.65086e-08
4.85394e-06
5.93994e-08
4.85817e-06
6.05847e-08
4.86194e-06
5.99684e-08
4.86528e-06
5.83756e-08
4.86825e-06
5.643e-08
4.8709e-06
5.43609e-08
4.87328e-06
5.22804e-08
4.87541e-06
5.02932e-08
4.87736e-06
4.84857e-08
4.87919e-06
4.69283e-08
4.88102e-06
4.56506e-08
4.88301e-06
4.46612e-08
4.88535e-06
4.38002e-08
4.28035e-08
4.88822e-06
5.1809e-06
1.16316e-08
5.18571e-06
3.37987e-08
5.19084e-06
4.64939e-08
5.19542e-06
5.19276e-08
5.19989e-06
5.49333e-08
5.20415e-06
5.63218e-08
5.20804e-06
5.60816e-08
5.21156e-06
5.4857e-08
5.21477e-06
5.32222e-08
5.2177e-06
5.14238e-08
5.2204e-06
4.95796e-08
5.22291e-06
4.77878e-08
5.22527e-06
4.61254e-08
5.22756e-06
4.46424e-08
5.22986e-06
4.3347e-08
5.23231e-06
4.22075e-08
5.23503e-06
4.10854e-08
3.97677e-08
5.23806e-06
5.5526e-06
1.0368e-08
5.55685e-06
2.95479e-08
5.56177e-06
4.15748e-08
5.56634e-06
4.73584e-08
5.5708e-06
5.04742e-08
5.57511e-06
5.20111e-08
5.57911e-06
5.20818e-08
5.58278e-06
5.1184e-08
5.58618e-06
4.98277e-08
5.58933e-06
4.82692e-08
5.59228e-06
4.66316e-08
5.59506e-06
4.50063e-08
5.59773e-06
4.34607e-08
5.60034e-06
4.20302e-08
5.60297e-06
4.07103e-08
5.60573e-06
3.94556e-08
5.60866e-06
3.81538e-08
3.66574e-08
5.61177e-06
5.95099e-06
9.15777e-09
5.95476e-06
2.57749e-08
5.95942e-06
3.69178e-08
5.96395e-06
4.2822e-08
5.96841e-06
4.60145e-08
5.97277e-06
4.76542e-08
5.97688e-06
4.79739e-08
5.9807e-06
4.73632e-08
5.98427e-06
4.62597e-08
5.98762e-06
4.49185e-08
5.99078e-06
4.34666e-08
5.9938e-06
4.19889e-08
5.99672e-06
4.0544e-08
5.99959e-06
3.91586e-08
6.00247e-06
3.7823e-08
6.00544e-06
3.64937e-08
6.0085e-06
3.50866e-08
3.3511e-08
6.01165e-06
6.37796e-06
8.01441e-09
6.38133e-06
2.24023e-08
6.38571e-06
3.25315e-08
6.39019e-06
3.83432e-08
6.39465e-06
4.15601e-08
6.39904e-06
4.32609e-08
6.40325e-06
4.37679e-08
6.40721e-06
4.34002e-08
6.41095e-06
4.25233e-08
6.41448e-06
4.13796e-08
6.41785e-06
4.00969e-08
6.42109e-06
3.87543e-08
6.42423e-06
3.74033e-08
6.42732e-06
3.60659e-08
6.43041e-06
3.47337e-08
6.43353e-06
3.33726e-08
6.4367e-06
3.19241e-08
3.03412e-08
6.43987e-06
5.74175e-06
7.09959e-09
5.74433e-06
1.9817e-08
5.74783e-06
2.9031e-08
5.75156e-06
3.46166e-08
5.75532e-06
3.78033e-08
5.75905e-06
3.95272e-08
5.76267e-06
4.01469e-08
5.76613e-06
3.9947e-08
5.76941e-06
3.92397e-08
5.77254e-06
3.82482e-08
5.77554e-06
3.70975e-08
5.77843e-06
3.58625e-08
5.78125e-06
3.45903e-08
5.78401e-06
3.33014e-08
5.78675e-06
3.19907e-08
5.78949e-06
3.06341e-08
5.79222e-06
2.91919e-08
2.76448e-08
5.79492e-06
6.99913e-06
6.12195e-09
7.00187e-06
1.70828e-08
7.00566e-06
2.52432e-08
7.00982e-06
3.04497e-08
7.0141e-06
3.35233e-08
7.0184e-06
3.52282e-08
7.02262e-06
3.59302e-08
7.02668e-06
3.5882e-08
7.03058e-06
3.53414e-08
7.03432e-06
3.45064e-08
7.03792e-06
3.34955e-08
7.04141e-06
3.23787e-08
7.0448e-06
3.11993e-08
7.04812e-06
2.99776e-08
7.0514e-06
2.87142e-08
7.05464e-06
2.73961e-08
7.05783e-06
2.60009e-08
2.45308e-08
7.06094e-06
8.53188e-06
5.09071e-09
8.53474e-06
1.42258e-08
8.53878e-06
2.11952e-08
8.54338e-06
2.5849e-08
8.54821e-06
2.86973e-08
8.55312e-06
3.03203e-08
8.55799e-06
3.10571e-08
8.56274e-06
3.11291e-08
8.56734e-06
3.07418e-08
8.57179e-06
3.00617e-08
8.57609e-06
2.91963e-08
8.58026e-06
2.821e-08
8.58431e-06
2.71424e-08
8.58828e-06
2.60148e-08
8.59216e-06
2.48337e-08
8.59596e-06
2.35971e-08
8.59966e-06
2.22965e-08
2.09484e-08
8.60324e-06
1.04003e-05
4.01644e-09
1.04033e-05
1.12639e-08
1.04075e-05
1.69055e-08
1.04126e-05
2.08205e-08
1.0418e-05
2.33037e-08
1.04235e-05
2.47579e-08
1.04291e-05
2.54645e-08
1.04346e-05
2.56092e-08
1.044e-05
2.53494e-08
1.04453e-05
2.48161e-08
1.04504e-05
2.41003e-08
1.04553e-05
2.3259e-08
1.04601e-05
2.2328e-08
1.04648e-05
2.13291e-08
1.04694e-05
2.02739e-08
1.04738e-05
1.91685e-08
1.04781e-05
1.80141e-08
1.68347e-08
1.04822e-05
1.26779e-05
2.90476e-09
1.2681e-05
8.18872e-09
1.26855e-05
1.23658e-08
1.2691e-05
1.5353e-08
1.2697e-05
1.73079e-08
1.27033e-05
1.84814e-08
1.27096e-05
1.90761e-08
1.2716e-05
1.92327e-08
1.27223e-05
1.90638e-08
1.27285e-05
1.86634e-08
1.27345e-05
1.81008e-08
1.27403e-05
1.74224e-08
1.2746e-05
1.66586e-08
1.27515e-05
1.58297e-08
1.27568e-05
1.49497e-08
1.27619e-05
1.4029e-08
1.27669e-05
1.30737e-08
1.21101e-08
1.27716e-05
1.54543e-05
1.74463e-09
1.54576e-05
4.94949e-09
1.54624e-05
7.50914e-09
1.54684e-05
9.37679e-09
1.54751e-05
1.06267e-08
1.54822e-05
1.13885e-08
1.54895e-05
1.17776e-08
1.54968e-05
1.1879e-08
1.55041e-05
1.17602e-08
1.55113e-05
1.14773e-08
1.55184e-05
1.10741e-08
1.55252e-05
1.05814e-08
1.55318e-05
1.00209e-08
1.55383e-05
9.40861e-09
1.55444e-05
8.75676e-09
1.55504e-05
8.07595e-09
1.55561e-05
7.37311e-09
6.67237e-09
1.55615e-05
1.88389e-05
4.94673e-10
1.88424e-05
1.41536e-09
1.88478e-05
2.14973e-09
1.88545e-05
2.68703e-09
1.8862e-05
3.04886e-09
1.88702e-05
3.26459e-09
1.88786e-05
3.3567e-09
1.88871e-05
3.34389e-09
1.88956e-05
3.24441e-09
1.8904e-05
3.07463e-09
1.89123e-05
2.84768e-09
1.89203e-05
2.57395e-09
1.8928e-05
2.2621e-09
1.89355e-05
1.91968e-09
1.89427e-05
1.55351e-09
1.89496e-05
1.17046e-09
1.89562e-05
7.75105e-10
3.86491e-10
1.89625e-05
2.29648e-05
-9.5194e-10
2.29689e-05
-2.71482e-09
2.29752e-05
-4.14899e-09
2.29831e-05
-5.21185e-09
2.29921e-05
-5.92029e-09
2.30017e-05
-6.36102e-09
2.30117e-05
-6.62737e-09
2.30218e-05
-6.77803e-09
2.30319e-05
-6.84973e-09
2.30419e-05
-6.87363e-09
2.30516e-05
-6.87484e-09
2.3061e-05
-6.86937e-09
2.30701e-05
-6.86587e-09
2.30789e-05
-6.8688e-09
2.30874e-05
-6.88009e-09
2.30954e-05
-6.89934e-09
2.31031e-05
-6.92635e-09
-6.94898e-09
2.31105e-05
1.68118e-05
-2.09652e-09
1.68151e-05
-5.94721e-09
1.682e-05
-9.07332e-09
1.68261e-05
-1.13308e-08
1.6833e-05
-1.27686e-08
1.68402e-05
-1.36208e-08
1.68477e-05
-1.40915e-08
1.68552e-05
-1.42887e-08
1.68626e-05
-1.42875e-08
1.68699e-05
-1.41583e-08
1.6877e-05
-1.3956e-08
1.68839e-05
-1.37147e-08
1.68904e-05
-1.3455e-08
1.68968e-05
-1.31899e-08
1.69028e-05
-1.29277e-08
1.69086e-05
-1.26721e-08
1.69141e-05
-1.24257e-08
-1.21805e-08
1.69193e-05
1.46357e-05
-3.20452e-09
1.46388e-05
-9.10408e-09
1.46437e-05
-1.38935e-08
1.46495e-05
-1.72073e-08
1.4656e-05
-1.91919e-08
1.46627e-05
-2.03219e-08
1.46695e-05
-2.08997e-08
1.46762e-05
-2.10593e-08
1.46829e-05
-2.09208e-08
1.46893e-05
-2.06002e-08
1.46955e-05
-2.01767e-08
1.47015e-05
-1.96956e-08
1.47072e-05
-1.91856e-08
1.47127e-05
-1.86669e-08
1.47179e-05
-1.81521e-08
1.47229e-05
-1.7648e-08
1.47277e-05
-1.71584e-08
-1.66781e-08
1.47321e-05
1.27412e-05
-4.25195e-09
1.27444e-05
-1.23122e-08
1.27493e-05
-1.8847e-08
1.27551e-05
-2.29958e-08
1.27612e-05
-2.52985e-08
1.27675e-05
-2.66e-08
1.27738e-05
-2.72044e-08
1.278e-05
-2.72387e-08
1.2786e-05
-2.68944e-08
1.27917e-05
-2.63428e-08
1.27972e-05
-2.56789e-08
1.28025e-05
-2.49521e-08
1.28075e-05
-2.41968e-08
1.28123e-05
-2.34375e-08
1.28168e-05
-2.26892e-08
1.28211e-05
-2.19595e-08
1.28252e-05
-2.12523e-08
-2.05637e-08
1.28291e-05
1.10918e-05
-5.12835e-09
1.10951e-05
-1.56316e-08
1.11004e-05
-2.41383e-08
1.11062e-05
-2.87715e-08
1.1112e-05
-3.1132e-08
1.11179e-05
-3.25095e-08
1.11238e-05
-3.3052e-08
1.11294e-05
-3.28787e-08
1.11348e-05
-3.22813e-08
1.11399e-05
-3.1476e-08
1.11448e-05
-3.05602e-08
1.11495e-05
-2.95849e-08
1.11538e-05
-2.85897e-08
1.1158e-05
-2.76023e-08
1.1162e-05
-2.66375e-08
1.11657e-05
-2.57022e-08
1.11693e-05
-2.47995e-08
-2.39259e-08
1.11726e-05
9.65583e-06
-5.74156e-09
9.65935e-06
-1.91532e-08
9.66495e-06
-2.9735e-08
9.67062e-06
-3.44487e-08
9.67625e-06
-3.67631e-08
9.68188e-06
-3.81356e-08
9.6873e-06
-3.8475e-08
9.69243e-06
-3.80009e-08
9.69726e-06
-3.71206e-08
9.70185e-06
-3.60565e-08
9.70617e-06
-3.48886e-08
9.71026e-06
-3.3668e-08
9.71411e-06
-3.24397e-08
9.71774e-06
-3.1233e-08
9.72116e-06
-3.0062e-08
9.72439e-06
-2.89327e-08
9.72744e-06
-2.78463e-08
-2.6798e-08
9.73031e-06
8.40543e-06
-5.82073e-09
8.4098e-06
-2.35252e-08
8.4153e-06
-3.52337e-08
8.42049e-06
-3.96326e-08
8.42591e-06
-4.21853e-08
8.43137e-06
-4.35973e-08
8.43651e-06
-4.36143e-08
8.44126e-06
-4.27478e-08
8.44567e-06
-4.1534e-08
8.44979e-06
-4.01728e-08
8.45362e-06
-3.87216e-08
8.45718e-06
-3.72324e-08
8.4605e-06
-3.57529e-08
8.46358e-06
-3.43121e-08
8.46644e-06
-3.29237e-08
8.4691e-06
-3.15936e-08
8.47157e-06
-3.03225e-08
-2.91065e-08
8.47388e-06
7.31506e-06
-3.59271e-09
7.32194e-06
-3.04074e-08
7.32738e-06
-4.06792e-08
7.33215e-06
-4.43944e-08
7.33745e-06
-4.74893e-08
7.34281e-06
-4.8962e-08
7.34777e-06
-4.8565e-08
7.35223e-06
-4.72165e-08
7.35626e-06
-4.55635e-08
7.35988e-06
-4.37845e-08
7.36309e-06
-4.19386e-08
7.36595e-06
-4.00889e-08
7.36848e-06
-3.82851e-08
7.37072e-06
-3.65531e-08
7.3727e-06
-3.49046e-08
7.37445e-06
-3.33442e-08
7.376e-06
-3.18689e-08
-3.04726e-08
7.37737e-06
6.36222e-06
4.25363e-09
6.37294e-06
-4.11295e-08
6.38006e-06
-4.78015e-08
6.38624e-06
-5.05684e-08
6.3922e-06
-5.34504e-08
6.39748e-06
-5.42398e-08
6.40182e-06
-5.29124e-08
6.40539e-06
-5.07803e-08
6.40828e-06
-4.84573e-08
6.41055e-06
-4.60557e-08
6.41226e-06
-4.36433e-08
6.41347e-06
-4.12975e-08
6.41425e-06
-3.90671e-08
6.41467e-06
-3.69714e-08
6.41478e-06
-3.50173e-08
6.41464e-06
-3.32058e-08
6.4143e-06
-3.15286e-08
-2.99654e-08
6.41379e-06
5.53608e-06
1.3639e-08
5.54775e-06
-5.2801e-08
5.55743e-06
-5.74839e-08
5.566e-06
-5.9132e-08
5.57276e-06
-6.02102e-08
5.57717e-06
-5.86519e-08
5.57931e-06
-5.50487e-08
5.57973e-06
-5.12029e-08
5.57886e-06
-4.75889e-08
5.57698e-06
-4.41784e-08
5.57432e-06
-4.09788e-08
5.57105e-06
-3.80278e-08
5.56732e-06
-3.53389e-08
5.56325e-06
-3.29037e-08
5.55894e-06
-3.0708e-08
5.55449e-06
-2.87485e-08
5.54997e-06
-2.70164e-08
-2.54506e-08
5.54546e-06
4.85751e-06
-1.62615e-08
4.86091e-06
-5.62011e-08
4.8615e-06
-5.80741e-08
4.85883e-06
-5.64602e-08
4.85481e-06
-5.61984e-08
4.84811e-06
-5.19502e-08
4.83885e-06
-4.57877e-08
4.82759e-06
-3.99427e-08
4.81497e-06
-3.49693e-08
4.80158e-06
-3.07902e-08
4.78787e-06
-2.72694e-08
4.77415e-06
-2.43039e-08
4.76061e-06
-2.18027e-08
4.7474e-06
-1.96869e-08
4.73458e-06
-1.78933e-08
4.72225e-06
-1.64121e-08
4.7105e-06
-1.52699e-08
-1.49595e-08
4.70001e-06
4.18641e-06
4.13021e-06
4.07214e-06
4.01568e-06
3.95948e-06
3.90753e-06
3.86174e-06
3.8218e-06
3.78683e-06
3.75604e-06
3.72877e-06
3.70447e-06
3.68266e-06
3.66298e-06
3.64508e-06
3.62867e-06
3.6134e-06
3.59844e-06
9.16761e-09
-9.16761e-09
1.99929e-08
-1.08252e-08
2.79827e-08
-7.98989e-09
3.19059e-08
-3.92319e-09
3.14537e-08
4.52222e-10
2.71396e-08
4.3141e-09
1.96305e-08
7.50908e-09
9.6481e-09
9.98243e-09
-2.21123e-09
1.18593e-08
-1.55323e-08
1.33211e-08
-3.0056e-08
1.45237e-08
-4.56253e-08
1.55693e-08
-6.21495e-08
1.65242e-08
-7.95755e-08
1.74259e-08
-9.78693e-08
1.82938e-08
-1.17006e-07
1.91369e-08
-1.36964e-07
1.99583e-08
-1.57723e-07
2.07587e-08
-1.79261e-07
2.15375e-08
-2.01555e-07
2.22938e-08
-2.24582e-07
2.30273e-08
-2.48319e-07
2.37371e-08
-2.72739e-07
2.44203e-08
-2.9781e-07
2.5071e-08
-3.2349e-07
2.56793e-08
-3.49727e-07
2.6237e-08
-3.76475e-07
2.67479e-08
-4.03713e-07
2.72384e-08
-4.31464e-07
2.77511e-08
-4.59782e-07
2.83183e-08
-4.88717e-07
2.89346e-08
-5.18279e-07
2.95623e-08
-5.48421e-07
3.01414e-08
-5.78946e-07
3.05257e-08
-6.09528e-07
3.05816e-08
-6.41188e-07
3.16603e-08
-6.77853e-07
3.66652e-08
-7.09138e-07
3.12848e-08
-7.47785e-07
3.86473e-08
-7.94613e-07
4.68271e-08
-8.26679e-07
3.20663e-08
-8.69206e-07
4.25275e-08
-9.20899e-07
5.16926e-08
-9.60699e-07
3.98003e-08
-9.98026e-07
3.73263e-08
-1.03961e-06
4.15814e-08
-1.0826e-06
4.29977e-08
-1.12658e-06
4.39754e-08
-1.17114e-06
4.4556e-08
-1.21601e-06
4.48717e-08
-1.26102e-06
4.50142e-08
-1.30606e-06
4.50381e-08
-1.35104e-06
4.49779e-08
-1.39589e-06
4.48554e-08
-1.44058e-06
4.46842e-08
-1.48505e-06
4.44728e-08
-1.52928e-06
4.42266e-08
-1.57323e-06
4.39484e-08
-1.61687e-06
4.36398e-08
-1.66017e-06
4.33014e-08
-1.7031e-06
4.29329e-08
-1.74563e-06
4.25336e-08
-1.78774e-06
4.21028e-08
-1.82938e-06
4.16394e-08
-1.87052e-06
4.11421e-08
-1.91113e-06
4.06099e-08
-1.95117e-06
4.00417e-08
-1.99061e-06
3.94365e-08
-2.0294e-06
3.87936e-08
-2.06751e-06
3.81121e-08
-2.1049e-06
3.73915e-08
-2.14153e-06
3.66315e-08
-2.17737e-06
3.58317e-08
-2.21236e-06
3.49922e-08
-2.24647e-06
3.41129e-08
-2.27967e-06
3.31942e-08
-2.3119e-06
3.22364e-08
-2.34314e-06
3.12401e-08
-2.37335e-06
3.02056e-08
-2.40248e-06
2.91339e-08
-2.43051e-06
2.80256e-08
-2.45739e-06
2.68814e-08
-2.48309e-06
2.57023e-08
-2.50758e-06
2.44888e-08
-2.53082e-06
2.32417e-08
-2.55278e-06
2.19614e-08
-2.57343e-06
2.06483e-08
-2.59273e-06
1.93024e-08
-2.61066e-06
1.79232e-08
-2.62717e-06
1.651e-08
-2.64223e-06
1.50609e-08
-2.6558e-06
1.35734e-08
-2.66784e-06
1.20438e-08
-2.67831e-06
1.04655e-08
-2.68714e-06
8.82999e-09
-2.69427e-06
7.12545e-09
-2.6996e-06
5.33482e-09
-2.70305e-06
3.44704e-09
-2.70451e-06
1.46512e-09
-2.70397e-06
-5.38243e-10
-2.70177e-06
-2.20029e-09
-2.69798e-06
-3.79147e-09
-2.69263e-06
-5.35272e-09
-2.68572e-06
-6.9066e-09
-2.67726e-06
-8.46472e-09
-2.66723e-06
-1.00291e-08
-2.65563e-06
-1.15992e-08
-2.64246e-06
-1.31734e-08
-2.62771e-06
-1.47497e-08
-2.61138e-06
-1.63261e-08
-2.59348e-06
-1.79005e-08
-2.57401e-06
-1.94708e-08
-2.55297e-06
-2.10347e-08
-2.53038e-06
-2.25903e-08
-2.50625e-06
-2.41354e-08
-2.48058e-06
-2.5668e-08
-2.45339e-06
-2.7186e-08
-2.42471e-06
-2.86873e-08
-2.39454e-06
-3.01699e-08
-2.36291e-06
-3.16317e-08
-2.32984e-06
-3.30708e-08
-2.29535e-06
-3.44852e-08
-2.25948e-06
-3.5873e-08
-2.22224e-06
-3.72325e-08
-2.18368e-06
-3.85619e-08
-2.14382e-06
-3.98594e-08
-2.1027e-06
-4.11235e-08
-2.06035e-06
-4.23525e-08
-2.0168e-06
-4.35447e-08
-1.9721e-06
-4.46987e-08
-1.92629e-06
-4.58129e-08
-1.8794e-06
-4.68862e-08
-1.83149e-06
-4.79174e-08
-1.78258e-06
-4.89054e-08
-1.73273e-06
-4.98492e-08
-1.68198e-06
-5.07479e-08
-1.63038e-06
-5.16005e-08
-1.57798e-06
-5.24064e-08
-1.52481e-06
-5.31651e-08
-1.47094e-06
-5.38762e-08
-1.4164e-06
-5.45394e-08
-1.36124e-06
-5.51547e-08
-1.30552e-06
-5.57218e-08
-1.24928e-06
-5.62409e-08
-1.19257e-06
-5.67124e-08
-1.13543e-06
-5.7137e-08
-1.07792e-06
-5.7515e-08
-1.02007e-06
-5.78471e-08
-9.61934e-07
-5.81345e-08
-9.03556e-07
-5.83782e-08
-8.44976e-07
-5.85796e-08
-7.86236e-07
-5.874e-08
-7.27375e-07
-5.88611e-08
-6.6843e-07
-5.89446e-08
-6.09438e-07
-5.89923e-08
-5.50432e-07
-5.90062e-08
-4.91444e-07
-5.89882e-08
-4.32504e-07
-5.89401e-08
-3.7364e-07
-5.88633e-08
-3.14882e-07
-5.87585e-08
-2.56255e-07
-5.86266e-08
-1.97791e-07
-5.84638e-08
-1.39521e-07
-5.82701e-08
-8.14761e-08
-5.80453e-08
-2.36972e-08
-5.77788e-08
3.37795e-08
-5.74767e-08
9.09143e-08
-5.71349e-08
1.47707e-07
-5.67929e-08
2.0418e-07
-5.64724e-08
2.60348e-07
-5.61682e-08
3.16208e-07
-5.58606e-08
3.71732e-07
-5.55235e-08
4.26849e-07
-5.51177e-08
4.81426e-07
-5.45763e-08
5.35195e-07
-5.37691e-08
5.87625e-07
-5.24304e-08
6.37507e-07
-4.98816e-08
6.81994e-07
-4.4487e-08
7.13553e-07
-3.15589e-08
8.34115e-09
7.05212e-07
7.03461e-09
-1.62022e-08
9.68615e-09
-1.34768e-08
8.4579e-09
-6.76164e-09
4.48798e-09
4.6726e-11
-1.60604e-09
6.54624e-09
-9.69863e-09
1.24067e-08
-1.97103e-08
1.75207e-08
-3.158e-08
2.18522e-08
-4.51885e-08
2.54678e-08
-6.03673e-08
2.84998e-08
-7.69409e-08
3.10974e-08
-9.47604e-08
3.33888e-08
-1.13708e-07
3.5472e-08
-1.33698e-07
3.74156e-08
-1.54669e-07
3.92647e-08
-1.7658e-07
4.10476e-08
-1.99403e-07
4.27817e-08
-2.23122e-07
4.44775e-08
-2.47727e-07
4.61424e-08
-2.73214e-07
4.77816e-08
-2.99587e-07
4.93999e-08
-3.26851e-07
5.1001e-08
-3.55018e-07
5.25872e-08
-3.84106e-07
5.41593e-08
-4.14145e-07
5.57187e-08
-4.45182e-07
5.72731e-08
-4.77278e-07
5.88443e-08
-5.1051e-07
6.0471e-08
-5.44958e-07
6.21982e-08
-5.80693e-07
6.40534e-08
-6.17786e-07
6.60282e-08
-6.56309e-07
6.80856e-08
-6.96338e-07
7.01701e-08
-7.38011e-07
7.21989e-08
-7.81605e-07
7.41753e-08
-8.26445e-07
7.65003e-08
-8.68988e-07
7.92081e-08
-9.18283e-07
8.05793e-08
-9.63098e-07
8.34624e-08
-1.00267e-06
8.64027e-08
-1.05513e-06
8.45189e-08
-1.0992e-06
8.65972e-08
-1.1369e-06
8.93985e-08
-1.18414e-06
8.70381e-08
-1.23241e-06
8.55941e-08
-1.27686e-06
8.60375e-08
-1.32018e-06
8.63124e-08
-1.36261e-06
8.64054e-08
-1.40441e-06
8.63543e-08
-1.4457e-06
8.6168e-08
-1.48656e-06
8.58704e-08
-1.527e-06
8.54815e-08
-1.56704e-06
8.5017e-08
-1.60667e-06
8.44886e-08
-1.64589e-06
8.39042e-08
-1.68469e-06
8.32686e-08
-1.72305e-06
8.25845e-08
-1.76095e-06
8.18529e-08
-1.79839e-06
8.10734e-08
-1.83533e-06
8.02448e-08
-1.87176e-06
7.93654e-08
-1.90766e-06
7.84333e-08
-1.943e-06
7.7446e-08
-1.97777e-06
7.64013e-08
-2.01192e-06
7.5297e-08
-2.04544e-06
7.41311e-08
-2.0783e-06
7.29014e-08
-2.11047e-06
7.16065e-08
-2.14192e-06
7.02448e-08
-2.17263e-06
6.88152e-08
-2.20255e-06
6.73168e-08
-2.23167e-06
6.5749e-08
-2.25995e-06
6.41116e-08
-2.28736e-06
6.24043e-08
-2.31388e-06
6.06276e-08
-2.33946e-06
5.87818e-08
-2.3641e-06
5.68676e-08
-2.38774e-06
5.48857e-08
-2.41037e-06
5.28374e-08
-2.43196e-06
5.07237e-08
-2.45248e-06
4.85459e-08
-2.47191e-06
4.63052e-08
-2.49021e-06
4.4003e-08
-2.50736e-06
4.16405e-08
-2.52334e-06
3.9219e-08
-2.53811e-06
3.67395e-08
-2.55167e-06
3.42029e-08
-2.56398e-06
3.16096e-08
-2.57501e-06
2.896e-08
-2.58476e-06
2.62541e-08
-2.59319e-06
2.34914e-08
-2.60029e-06
2.06713e-08
-2.60603e-06
1.77929e-08
-2.61042e-06
1.48558e-08
-2.61346e-06
1.18605e-08
-2.61514e-06
8.8101e-09
-2.61552e-06
5.71305e-09
-2.61466e-06
2.59121e-09
-2.6127e-06
-4.93944e-10
-2.60965e-06
-3.59506e-09
-2.60524e-06
-6.60292e-09
-2.5994e-06
-9.63307e-09
-2.59207e-06
-1.26848e-08
-2.58322e-06
-1.57552e-08
-2.57284e-06
-1.88436e-08
-2.56092e-06
-2.19476e-08
-2.54746e-06
-2.50639e-08
-2.53244e-06
-2.81887e-08
-2.51588e-06
-3.13176e-08
-2.49776e-06
-3.44467e-08
-2.47808e-06
-3.75715e-08
-2.45687e-06
-4.06879e-08
-2.43411e-06
-4.37917e-08
-2.40982e-06
-4.68787e-08
-2.38401e-06
-4.99446e-08
-2.3567e-06
-5.29856e-08
-2.32788e-06
-5.59975e-08
-2.2976e-06
-5.8976e-08
-2.26585e-06
-6.19173e-08
-2.23266e-06
-6.48172e-08
-2.19806e-06
-6.76717e-08
-2.16207e-06
-7.04771e-08
-2.12471e-06
-7.32294e-08
-2.08602e-06
-7.59253e-08
-2.04602e-06
-7.85611e-08
-2.00475e-06
-8.11334e-08
-1.96223e-06
-8.36391e-08
-1.91851e-06
-8.60748e-08
-1.87362e-06
-8.84373e-08
-1.82759e-06
-9.07237e-08
-1.78047e-06
-9.2931e-08
-1.7323e-06
-9.50566e-08
-1.68312e-06
-9.70982e-08
-1.63297e-06
-9.90537e-08
-1.5819e-06
-1.00921e-07
-1.52995e-06
-1.02699e-07
-1.47717e-06
-1.04385e-07
-1.4236e-06
-1.05978e-07
-1.36929e-06
-1.07476e-07
-1.31428e-06
-1.0888e-07
-1.25863e-06
-1.10189e-07
-1.20239e-06
-1.11401e-07
-1.14559e-06
-1.12518e-07
-1.08829e-06
-1.1354e-07
-1.03054e-06
-1.14466e-07
-9.72374e-07
-1.15299e-07
-9.13849e-07
-1.1604e-07
-8.55008e-07
-1.16689e-07
-7.95894e-07
-1.17248e-07
-7.36551e-07
-1.17721e-07
-6.7702e-07
-1.1811e-07
-6.17343e-07
-1.18417e-07
-5.57558e-07
-1.18646e-07
-4.97702e-07
-1.188e-07
-4.37811e-07
-1.18883e-07
-3.77918e-07
-1.18899e-07
-3.18054e-07
-1.18852e-07
-2.58249e-07
-1.18745e-07
-1.9853e-07
-1.18582e-07
-1.38925e-07
-1.18364e-07
-7.94577e-08
-1.18094e-07
-2.01523e-08
-1.17769e-07
3.89646e-08
-1.17387e-07
9.78666e-08
-1.16947e-07
1.56536e-07
-1.16449e-07
2.14962e-07
-1.15902e-07
2.73146e-07
-1.15319e-07
3.31086e-07
-1.14733e-07
3.88774e-07
-1.14161e-07
4.46202e-07
-1.13596e-07
5.0335e-07
-1.13008e-07
5.60177e-07
-1.12351e-07
6.16606e-07
-1.11547e-07
6.72492e-07
-1.10463e-07
7.27569e-07
-1.08846e-07
7.81344e-07
-1.06205e-07
8.32851e-07
-1.01389e-07
8.80484e-07
-9.21203e-08
9.2095e-07
-7.20254e-08
-2.50832e-08
9.54375e-07
3.41899e-10
-1.65441e-08
-4.20108e-09
-8.93382e-09
-1.12149e-08
2.52137e-10
-1.97562e-08
8.58809e-09
-2.95226e-08
1.63126e-08
-4.04719e-08
2.3356e-08
-5.26365e-08
2.96854e-08
-6.6077e-08
3.52926e-08
-8.08284e-08
4.02192e-08
-9.688e-08
4.45514e-08
-1.14182e-07
4.83994e-08
-1.32667e-07
5.18738e-08
-1.52267e-07
5.5072e-08
-1.72923e-07
5.80716e-08
-1.94589e-07
6.09306e-08
-2.17232e-07
6.3691e-08
-2.40833e-07
6.63824e-08
-2.65381e-07
6.90258e-08
-2.90876e-07
7.16371e-08
-3.17323e-07
7.4229e-08
-3.44736e-07
7.68121e-08
-3.7313e-07
7.93957e-08
-4.0253e-07
8.19872e-08
-4.32965e-07
8.45935e-08
-4.64468e-07
8.72221e-08
-4.97079e-07
8.98845e-08
-5.30834e-07
9.25987e-08
-5.65749e-07
9.53865e-08
-6.01815e-07
9.82638e-08
-6.38987e-07
1.01226e-07
-6.77196e-07
1.04237e-07
-7.16348e-07
1.07237e-07
-7.56332e-07
1.10155e-07
-7.97059e-07
1.12926e-07
-8.38417e-07
1.15533e-07
-8.79909e-07
1.17993e-07
-9.20879e-07
1.20178e-07
-9.62349e-07
1.2205e-07
-1.0026e-06
1.23714e-07
-1.04109e-06
1.24889e-07
-1.08183e-06
1.25257e-07
-1.12104e-06
1.25807e-07
-1.15778e-06
1.26146e-07
-1.19624e-06
1.25498e-07
-1.2354e-06
1.24747e-07
-1.27363e-06
1.2427e-07
-1.31114e-06
1.23825e-07
-1.3481e-06
1.2336e-07
-1.38459e-06
1.22848e-07
-1.4207e-06
1.22274e-07
-1.45646e-06
1.21635e-07
-1.49191e-06
1.2093e-07
-1.52706e-06
1.20163e-07
-1.5619e-06
1.19336e-07
-1.59645e-06
1.18448e-07
-1.63068e-06
1.17501e-07
-1.66459e-06
1.16494e-07
-1.69816e-06
1.15424e-07
-1.73138e-06
1.14288e-07
-1.76422e-06
1.13084e-07
-1.79666e-06
1.11809e-07
-1.82868e-06
1.10457e-07
-1.86026e-06
1.09027e-07
-1.89138e-06
1.07513e-07
-1.92199e-06
1.05914e-07
-1.95209e-06
1.04225e-07
-1.98163e-06
1.02445e-07
-2.01059e-06
1.0057e-07
-2.03895e-06
9.85985e-08
-2.06666e-06
9.65289e-08
-2.0937e-06
9.43599e-08
-2.12005e-06
9.20905e-08
-2.14565e-06
8.97204e-08
-2.1705e-06
8.72493e-08
-2.19455e-06
8.46776e-08
-2.21777e-06
8.20058e-08
-2.24014e-06
7.92348e-08
-2.26162e-06
7.63658e-08
-2.28218e-06
7.34002e-08
-2.3018e-06
7.03396e-08
-2.32044e-06
6.71858e-08
-2.33807e-06
6.39407e-08
-2.35468e-06
6.06064e-08
-2.37022e-06
5.71847e-08
-2.38468e-06
5.36778e-08
-2.39803e-06
5.00874e-08
-2.41024e-06
4.64156e-08
-2.4213e-06
4.26639e-08
-2.43117e-06
3.88339e-08
-2.43984e-06
3.49272e-08
-2.4473e-06
3.09451e-08
-2.45352e-06
2.68897e-08
-2.45849e-06
2.27633e-08
-2.4622e-06
1.85694e-08
-2.46465e-06
1.43135e-08
-2.46585e-06
1.00039e-08
-2.46579e-06
5.65265e-09
-2.46447e-06
1.27691e-09
-2.46186e-06
-3.10212e-09
-2.45796e-06
-7.501e-09
-2.45264e-06
-1.19185e-08
-2.4459e-06
-1.63786e-08
-2.4377e-06
-2.08803e-08
-2.42804e-06
-2.54188e-08
-2.41689e-06
-2.99885e-08
-2.40426e-06
-3.45834e-08
-2.39012e-06
-3.91976e-08
-2.37449e-06
-4.38247e-08
-2.35735e-06
-4.84583e-08
-2.3387e-06
-5.30922e-08
-2.31855e-06
-5.772e-08
-2.2969e-06
-6.23354e-08
-2.27376e-06
-6.69321e-08
-2.24914e-06
-7.15041e-08
-2.22304e-06
-7.60451e-08
-2.19547e-06
-8.0549e-08
-2.16646e-06
-8.50097e-08
-2.13602e-06
-8.94213e-08
-2.10416e-06
-9.37777e-08
-2.0709e-06
-9.80728e-08
-2.03627e-06
-1.02301e-07
-2.00029e-06
-1.06456e-07
-1.96299e-06
-1.10532e-07
-1.92439e-06
-1.14525e-07
-1.88452e-06
-1.18428e-07
-1.84342e-06
-1.22238e-07
-1.80111e-06
-1.25948e-07
-1.75763e-06
-1.29555e-07
-1.71302e-06
-1.33053e-07
-1.6673e-06
-1.36438e-07
-1.62053e-06
-1.39705e-07
-1.57273e-06
-1.42852e-07
-1.52396e-06
-1.45874e-07
-1.47424e-06
-1.48767e-07
-1.42363e-06
-1.5153e-07
-1.37217e-06
-1.5416e-07
-1.3199e-06
-1.56653e-07
-1.26687e-06
-1.59009e-07
-1.21312e-06
-1.61224e-07
-1.15871e-06
-1.63298e-07
-1.10366e-06
-1.65231e-07
-1.04804e-06
-1.67022e-07
-9.91892e-07
-1.6867e-07
-9.35256e-07
-1.70176e-07
-8.7818e-07
-1.71542e-07
-8.20711e-07
-1.72768e-07
-7.62894e-07
-1.73857e-07
-7.04772e-07
-1.7481e-07
-6.46389e-07
-1.75631e-07
-5.87787e-07
-1.76323e-07
-5.29007e-07
-1.7689e-07
-4.70088e-07
-1.77336e-07
-4.11068e-07
-1.77666e-07
-3.51984e-07
-1.77885e-07
-2.92869e-07
-1.77998e-07
-2.33755e-07
-1.78013e-07
-1.74674e-07
-1.77933e-07
-1.15653e-07
-1.77766e-07
-5.67194e-08
-1.77516e-07
2.10449e-09
-1.77188e-07
6.07936e-08
-1.76783e-07
1.19326e-07
-1.76302e-07
1.77684e-07
-1.75745e-07
2.35852e-07
-1.75115e-07
2.93824e-07
-1.7442e-07
3.51606e-07
-1.73685e-07
4.09209e-07
-1.72922e-07
4.6662e-07
-1.72144e-07
5.23819e-07
-1.7136e-07
5.80786e-07
-1.70563e-07
6.37494e-07
-1.69716e-07
6.93897e-07
-1.68754e-07
7.49918e-07
-1.67567e-07
8.05419e-07
-1.65964e-07
8.60166e-07
-1.63593e-07
9.13756e-07
-1.59795e-07
9.65561e-07
-1.53194e-07
1.01468e-06
-1.41243e-07
1.06061e-06
-1.17956e-07
-7.19751e-08
1.10751e-06
-5.92722e-09
-1.06169e-08
-1.56699e-08
8.08815e-10
-2.65943e-08
1.11766e-08
-3.83828e-08
2.03766e-08
-5.0872e-08
2.88018e-08
-6.40823e-08
3.65663e-08
-7.80895e-08
4.36926e-08
-9.29867e-08
5.01899e-08
-1.08855e-07
5.60872e-08
-1.25745e-07
6.14414e-08
-1.43675e-07
6.63298e-08
-1.6264e-07
7.08385e-08
-1.82618e-07
7.50504e-08
-2.03585e-07
7.90385e-08
-2.25517e-07
8.28623e-08
-2.48395e-07
8.65689e-08
-2.72206e-07
9.01939e-08
-2.96945e-07
9.37646e-08
-3.2261e-07
9.73019e-08
-3.49203e-07
1.00822e-07
-3.76729e-07
1.04338e-07
-4.05194e-07
1.0786e-07
-4.34601e-07
1.11395e-07
-4.64953e-07
1.14946e-07
-4.96247e-07
1.18516e-07
-5.28469e-07
1.22106e-07
-5.61584e-07
1.25714e-07
-5.95532e-07
1.29335e-07
-6.30221e-07
1.32953e-07
-6.65529e-07
1.36534e-07
-7.01317e-07
1.40025e-07
-7.37439e-07
1.4336e-07
-7.73753e-07
1.46469e-07
-8.10125e-07
1.49298e-07
-8.4641e-07
1.51818e-07
-8.82426e-07
1.54009e-07
-9.18076e-07
1.55827e-07
-9.53308e-07
1.57282e-07
-9.87993e-07
1.58399e-07
-1.02219e-06
1.59088e-07
-1.05633e-06
1.59395e-07
-1.09006e-06
1.59536e-07
-1.12329e-06
1.59374e-07
-1.15661e-06
1.58823e-07
-1.19001e-06
1.58141e-07
-1.2232e-06
1.5746e-07
-1.25614e-06
1.56765e-07
-1.28882e-06
1.56048e-07
-1.32127e-06
1.55298e-07
-1.3535e-06
1.54503e-07
-1.38552e-06
1.53656e-07
-1.41734e-06
1.52751e-07
-1.44897e-06
1.51786e-07
-1.48039e-06
1.50756e-07
-1.5116e-06
1.49658e-07
-1.54258e-06
1.4849e-07
-1.57334e-06
1.47245e-07
-1.60383e-06
1.45921e-07
-1.63406e-06
1.44512e-07
-1.66399e-06
1.43013e-07
-1.6936e-06
1.4142e-07
-1.72286e-06
1.39726e-07
-1.75176e-06
1.37927e-07
-1.78027e-06
1.36018e-07
-1.80835e-06
1.33995e-07
-1.83598e-06
1.31854e-07
-1.86313e-06
1.29592e-07
-1.88976e-06
1.27204e-07
-1.91585e-06
1.2469e-07
-1.94137e-06
1.22045e-07
-1.96628e-06
1.1927e-07
-1.99055e-06
1.16363e-07
-2.01415e-06
1.13322e-07
-2.03705e-06
1.10149e-07
-2.05922e-06
1.06843e-07
-2.08062e-06
1.03406e-07
-2.10122e-06
9.98376e-08
-2.12099e-06
9.61403e-08
-2.13991e-06
9.23159e-08
-2.15794e-06
8.83664e-08
-2.17505e-06
8.42943e-08
-2.19121e-06
8.01021e-08
-2.20639e-06
7.57927e-08
-2.22058e-06
7.13689e-08
-2.23373e-06
6.68335e-08
-2.24584e-06
6.21897e-08
-2.25686e-06
5.744e-08
-2.26678e-06
5.25876e-08
-2.27558e-06
4.76352e-08
-2.28324e-06
4.25858e-08
-2.28974e-06
3.74424e-08
-2.29506e-06
3.22085e-08
-2.29918e-06
2.68882e-08
-2.3021e-06
2.14868e-08
-2.3038e-06
1.60106e-08
-2.30426e-06
1.04677e-08
-2.30348e-06
4.8676e-09
-2.30142e-06
-7.80152e-10
-2.29805e-06
-6.46883e-09
-2.29335e-06
-1.22039e-08
-2.28728e-06
-1.7993e-08
-2.27981e-06
-2.38432e-08
-2.27094e-06
-2.97503e-08
-2.26065e-06
-3.57077e-08
-2.24893e-06
-4.17076e-08
-2.23578e-06
-4.77416e-08
-2.22117e-06
-5.38014e-08
-2.20512e-06
-5.98786e-08
-2.18761e-06
-6.59646e-08
-2.16865e-06
-7.20511e-08
-2.14824e-06
-7.81298e-08
-2.12639e-06
-8.41923e-08
-2.10309e-06
-9.02305e-08
-2.07836e-06
-9.62361e-08
-2.0522e-06
-1.02201e-07
-2.02463e-06
-1.08118e-07
-1.99566e-06
-1.13977e-07
-1.96531e-06
-1.19773e-07
-1.93359e-06