/*--------------------------------*- C++ -*----------------------------------*\
  =========                 |
  \\      /  F ield         | OpenFOAM: The Open Source CFD Toolbox
   \\    /   O peration     | Website:  https://openfoam.org
    \\  /    A nd           | Version:  12
     \\/     M anipulation  |
\*---------------------------------------------------------------------------*/
FoamFile
{
    format      ascii;
    class       volVectorField;
    location    "0.28";
    object      U;
}
// * * * * * * * * * * * * * * * * * * * * * * * * * * * * * * * * * * * * * //

dimensions      [0 1 -1 0 0 0 0];

internalField   nonuniform List<vector> 
12225
(
(9.86107 -0.874318 0)
(9.67248 -0.700192 0)
(9.45897 -0.387593 0)
(9.22467 -0.188479 0)
(9.00349 -0.0843948 0)
(8.81041 -0.0328774 0)
(8.64513 -0.00755274 0)
(8.50414 0.00502217 0)
(8.38397 0.0113333 0)
(8.28111 0.0144686 0)
(8.19215 0.0159627 0)
(8.11424 0.0166309 0)
(8.04499 0.0169156 0)
(7.98257 0.0171082 0)
(7.92409 0.0174007 0)
(7.87052 0.0184976 0)
(7.8013 0.0214582 0)
(7.77503 0.0298281 0)
(10.0547 0.263069 0)
(10.1201 0.36074 0)
(10.118 0.27382 0)
(10.0826 0.187085 0)
(10.0405 0.131159 0)
(9.99393 0.0969234 0)
(9.94013 0.0755527 0)
(9.88041 0.0617442 0)
(9.81785 0.0523371 0)
(9.75494 0.0455184 0)
(9.69311 0.0403447 0)
(9.63319 0.0363551 0)
(9.57556 0.0332932 0)
(9.5206 0.031139 0)
(9.46753 0.029726 0)
(9.4188 0.0308121 0)
(9.36748 0.0318747 0)
(9.34223 0.0521575 0)
(9.99919 0.0460864 0)
(10.0244 0.0342081 0)
(10.0538 0.0149474 0)
(10.0708 0.0218069 0)
(10.0778 0.0366674 0)
(10.0783 0.0460022 0)
(10.0722 0.0499408 0)
(10.0603 0.0511298 0)
(10.0439 0.0510338 0)
(10.0246 0.0503142 0)
(10.0031 0.0493419 0)
(9.98005 0.0483628 0)
(9.95592 0.0475263 0)
(9.93115 0.0470651 0)
(9.9057 0.0470514 0)
(9.88059 0.0488122 0)
(9.85508 0.0515243 0)
(9.8352 0.0628142 0)
(9.9968 0.00642729 0)
(10.0085 0.0250163 0)
(10.0342 0.0389343 0)
(10.0528 0.0502969 0)
(10.0644 0.0570999 0)
(10.0731 0.0591535 0)
(10.079 0.0588386 0)
(10.0817 0.0579151 0)
(10.0816 0.0569045 0)
(10.0795 0.0558821 0)
(10.0758 0.0549004 0)
(10.0707 0.0540454 0)
(10.0645 0.053407 0)
(10.0573 0.0531774 0)
(10.0494 0.053489 0)
(10.0412 0.0552108 0)
(10.0333 0.058008 0)
(10.0279 0.0643571 0)
(9.99922 0.00673655 0)
(10.0081 0.0335709 0)
(10.0271 0.0460381 0)
(10.0418 0.0508372 0)
(10.0524 0.0539028 0)
(10.0622 0.055488 0)
(10.0708 0.0558308 0)
(10.0775 0.0556423 0)
(10.0823 0.0552683 0)
(10.0858 0.0547999 0)
(10.0881 0.0543112 0)
(10.0895 0.053906 0)
(10.09 0.0536933 0)
(10.0899 0.0538456 0)
(10.0892 0.0545119 0)
(10.0885 0.0561777 0)
(10.0884 0.0586545 0)
(10.09 0.062421 0)
(10.0002 0.00907285 0)
(10.0078 0.0321209 0)
(10.0225 0.0419046 0)
(10.035 0.0456555 0)
(10.0448 0.0491116 0)
(10.0542 0.051644 0)
(10.063 0.0527784 0)
(10.0705 0.053125 0)
(10.0767 0.0531591 0)
(10.0819 0.0530444 0)
(10.0864 0.0528723 0)
(10.0901 0.0527499 0)
(10.0932 0.052787 0)
(10.0959 0.0531253 0)
(10.0983 0.0538862 0)
(10.1007 0.0553075 0)
(10.1037 0.0572298 0)
(10.1081 0.0594983 0)
(10.0003 0.00879901 0)
(10.0068 0.0275134 0)
(10.019 0.0370748 0)
(10.0303 0.0417288 0)
(10.0395 0.0456452 0)
(10.0482 0.0484651 0)
(10.0566 0.04987 0)
(10.0641 0.0504572 0)
(10.0706 0.0507126 0)
(10.0764 0.0508081 0)
(10.0816 0.0508298 0)
(10.0862 0.050877 0)
(10.0904 0.0510501 0)
(10.0943 0.0514574 0)
(10.098 0.0521798 0)
(10.1019 0.0533075 0)
(10.1063 0.0546791 0)
(10.1116 0.0559755 0)
(10.0004 0.00783577 0)
(10.0057 0.0236897 0)
(10.016 0.0333598 0)
(10.0264 0.0385733 0)
(10.0351 0.0424633 0)
(10.0433 0.0452514 0)
(10.0512 0.0467992 0)
(10.0585 0.047572 0)
(10.0649 0.0479944 0)
(10.0708 0.0482395 0)
(10.0763 0.0483941 0)
(10.0813 0.0485492 0)
(10.086 0.0487922 0)
(10.0904 0.049201 0)
(10.0948 0.0498187 0)
(10.0993 0.0506523 0)
(10.1043 0.0515414 0)
(10.1098 0.0521783 0)
(10.0004 0.00694956 0)
(10.0049 0.020702 0)
(10.0136 0.0300246 0)
(10.023 0.0353853 0)
(10.0312 0.0391641 0)
(10.0389 0.041918 0)
(10.0464 0.0436011 0)
(10.0534 0.0445385 0)
(10.0598 0.0450944 0)
(10.0657 0.04545 0)
(10.0711 0.0456965 0)
(10.0763 0.0459162 0)
(10.0812 0.0461819 0)
(10.0859 0.0465468 0)
(10.0906 0.0470255 0)
(10.0954 0.0475838 0)
(10.1005 0.0480755 0)
(10.106 0.0482618 0)
(10.0004 0.0061626 0)
(10.0042 0.018116 0)
(10.0116 0.0267863 0)
(10.0199 0.0321212 0)
(10.0277 0.0358235 0)
(10.035 0.0385461 0)
(10.0421 0.0403216 0)
(10.0488 0.0413835 0)
(10.055 0.0420412 0)
(10.0608 0.0424772 0)
(10.0663 0.0427852 0)
(10.0715 0.0430376 0)
(10.0764 0.0432936 0)
(10.0813 0.0435878 0)
(10.0861 0.0439172 0)
(10.091 0.0442328 0)
(10.096 0.0444127 0)
(10.1013 0.0442919 0)
(10.0003 0.00542565 0)
(10.0036 0.0157929 0)
(10.0099 0.0236994 0)
(10.0173 0.0288906 0)
(10.0245 0.032501 0)
(10.0314 0.0351564 0)
(10.0381 0.0369653 0)
(10.0446 0.0381077 0)
(10.0506 0.0388384 0)
(10.0563 0.0393301 0)
(10.0617 0.0396752 0)
(10.0669 0.0399372 0)
(10.0719 0.0401631 0)
(10.0768 0.040375 0)
(10.0816 0.0405616 0)
(10.0864 0.0406747 0)
(10.0914 0.0406198 0)
(10.0964 0.0402939 0)
(10.0003 0.00477306 0)
(10.0031 0.0138474 0)
(10.0086 0.0210245 0)
(10.0152 0.0259824 0)
(10.0219 0.0294651 0)
(10.0285 0.0320254 0)
(10.0349 0.0338199 0)
(10.041 0.0349989 0)
(10.0469 0.0357702 0)
(10.0525 0.0362913 0)
(10.0578 0.0366506 0)
(10.063 0.0369044 0)
(10.0679 0.0370908 0)
(10.0728 0.0372249 0)
(10.0776 0.0372937 0)
(10.0823 0.0372568 0)
(10.0871 0.037044 0)
(10.0919 0.0365965 0)
(10.0003 0.00416648 0)
(10.0028 0.0120799 0)
(10.0075 0.0185097 0)
(10.0134 0.0231438 0)
(10.0197 0.0264562 0)
(10.0258 0.0288976 0)
(10.0319 0.0306439 0)
(10.0378 0.0318273 0)
(10.0436 0.0326165 0)
(10.049 0.0331491 0)
(10.0543 0.033508 0)
(10.0593 0.0337433 0)
(10.0642 0.0338864 0)
(10.069 0.0339486 0)
(10.0737 0.0339184 0)
(10.0784 0.0337653 0)
(10.083 0.0334393 0)
(10.0875 0.0329142 0)
(10.0003 0.0035345 0)
(10.0024 0.0102413 0)
(10.0064 0.0158167 0)
(10.0117 0.019996 0)
(10.0174 0.0230502 0)
(10.0232 0.0253143 0)
(10.0289 0.0269607 0)
(10.0346 0.0281067 0)
(10.0401 0.0288836 0)
(10.0454 0.0294052 0)
(10.0505 0.0297452 0)
(10.0555 0.0299478 0)
(10.0603 0.0300386 0)
(10.065 0.0300269 0)
(10.0696 0.0299055 0)
(10.0741 0.029655 0)
(10.0785 0.0292443 0)
(10.0828 0.0286715 0)
(10.0002 0.00287553 0)
(10.002 0.00833059 0)
(10.0055 0.0129559 0)
(10.0101 0.0165454 0)
(10.0153 0.0192323 0)
(10.0206 0.0212416 0)
(10.026 0.0227219 0)
(10.0314 0.0237735 0)
(10.0366 0.0244946 0)
(10.0418 0.024973 0)
(10.0467 0.0252701 0)
(10.0516 0.0254233 0)
(10.0563 0.025454 0)
(10.0608 0.025371 0)
(10.0653 0.0251723 0)
(10.0696 0.0248492 0)
(10.0738 0.024386 0)
(10.0778 0.023797 0)
(10.0002 0.00218989 0)
(10.0017 0.00634858 0)
(10.0047 0.00993235 0)
(10.0088 0.0127937 0)
(10.0134 0.0149852 0)
(10.0183 0.0166419 0)
(10.0233 0.0178738 0)
(10.0284 0.0187589 0)
(10.0334 0.0193668 0)
(10.0383 0.0197597 0)
(10.0431 0.0199841 0)
(10.0478 0.0200697 0)
(10.0523 0.0200341 0)
(10.0567 0.019886 0)
(10.061 0.0196282 0)
(10.0651 0.0192599 0)
(10.0691 0.0187763 0)
(10.0729 0.0181999 0)
(10.0002 0.00147449 0)
(10.0015 0.00427881 0)
(10.0041 0.00672403 0)
(10.0077 0.00871746 0)
(10.0119 0.0102734 0)
(10.0164 0.0114612 0)
(10.0211 0.0123475 0)
(10.0258 0.0129827 0)
(10.0306 0.0134101 0)
(10.0353 0.013668 0)
(10.0399 0.0137865 0)
(10.0444 0.013786 0)
(10.0487 0.0136795 0)
(10.053 0.013475 0)
(10.0571 0.0131772 0)
(10.061 0.0127899 0)
(10.0648 0.0123139 0)
(10.0684 0.011774 0)
(10.0001 0.00071177 0)
(10.0013 0.0020656 0)
(10.0037 0.00325187 0)
(10.0069 0.00422905 0)
(10.0108 0.0049993 0)
(10.015 0.00558712 0)
(10.0194 0.00601736 0)
(10.0239 0.00631002 0)
(10.0285 0.00648279 0)
(10.033 0.00655153 0)
(10.0374 0.0065288 0)
(10.0417 0.00642355 0)
(10.0459 0.00624204 0)
(10.05 0.00598895 0)
(10.0539 0.00566815 0)
(10.0576 0.00528396 0)
(10.0612 0.00483841 0)
(10.0646 0.00435427 0)
(10.0001 -0.000144847 0)
(10.0013 -0.000422764 0)
(10.0035 -0.000672575 0)
(10.0066 -0.000881855 0)
(10.0104 -0.00104817 0)
(10.0145 -0.0011854 0)
(10.0188 -0.00131282 0)
(10.0232 -0.0014443 0)
(10.0276 -0.00158855 0)
(10.032 -0.00175274 0)
(10.0363 -0.00194336 0)
(10.0405 -0.00216536 0)
(10.0445 -0.00242193 0)
(10.0484 -0.0027147 0)
(10.0522 -0.0030441 0)
(10.0558 -0.00340887 0)
(10.0592 -0.00380883 0)
(10.0625 -0.004227 0)
(10.0001 -0.000968251 0)
(10.0014 -0.00282131 0)
(10.0037 -0.00446142 0)
(10.0071 -0.00580665 0)
(10.011 -0.00685079 0)
(10.0153 -0.00765539 0)
(10.0197 -0.00828743 0)
(10.0242 -0.00879217 0)
(10.0286 -0.00920415 0)
(10.033 -0.00955536 0)
(10.0373 -0.00987229 0)
(10.0415 -0.0101735 0)
(10.0455 -0.0104714 0)
(10.0493 -0.0107746 0)
(10.053 -0.0110888 0)
(10.0565 -0.011417 0)
(10.0599 -0.0117617 0)
(10.0631 -0.0121119 0)
(10.0002 -0.00168154 0)
(10.0015 -0.00492273 0)
(10.0042 -0.00778108 0)
(10.0079 -0.0100534 0)
(10.0123 -0.0117551 0)
(10.0168 -0.013043 0)
(10.0215 -0.0140348 0)
(10.0261 -0.0147899 0)
(10.0307 -0.0153625 0)
(10.0352 -0.0158115 0)
(10.0395 -0.016184 0)
(10.0437 -0.01651 0)
(10.0477 -0.0168091 0)
(10.0515 -0.0170951 0)
(10.0552 -0.0173778 0)
(10.0587 -0.0176629 0)
(10.062 -0.0179545 0)
(10.0651 -0.0182453 0)
(10.0002 -0.00236283 0)
(10.0017 -0.00700949 0)
(10.0048 -0.0111139 0)
(10.0092 -0.014218 0)
(10.014 -0.016416 0)
(10.019 -0.0180452 0)
(10.0239 -0.0192862 0)
(10.0288 -0.0202031 0)
(10.0336 -0.020868 0)
(10.0382 -0.0213636 0)
(10.0427 -0.0217512 0)
(10.0469 -0.022069 0)
(10.0509 -0.022343 0)
(10.0547 -0.0225925 0)
(10.0584 -0.0228305 0)
(10.0619 -0.0230648 0)
(10.0652 -0.0233005 0)
(10.0683 -0.0235327 0)
(10.0002 -0.00299781 0)
(10.0018 -0.00911656 0)
(10.0056 -0.0144926 0)
(10.0108 -0.0183406 0)
(10.0163 -0.0209635 0)
(10.0217 -0.0228614 0)
(10.027 -0.0242289 0)
(10.0321 -0.0251717 0)
(10.0371 -0.0258276 0)
(10.0419 -0.026308 0)
(10.0464 -0.0266729 0)
(10.0507 -0.0269574 0)
(10.0548 -0.02719 0)
(10.0586 -0.0273935 0)
(10.0623 -0.0275827 0)
(10.0657 -0.0277658 0)
(10.069 -0.0279482 0)
(10.0721 -0.0281267 0)
(10.0001 -0.00357329 0)
(10.0019 -0.0115457 0)
(10.0064 -0.017943 0)
(10.0127 -0.0220731 0)
(10.0189 -0.0250591 0)
(10.0247 -0.0273622 0)
(10.0304 -0.0289069 0)
(10.0359 -0.0298226 0)
(10.0411 -0.0303862 0)
(10.046 -0.0307757 0)
(10.0506 -0.0310571 0)
(10.0549 -0.0312624 0)
(10.059 -0.0314211 0)
(10.0629 -0.0315565 0)
(10.0665 -0.0316824 0)
(10.07 -0.0318056 0)
(10.0732 -0.0319296 0)
(10.0763 -0.0320503 0)
(9.99997 -0.00369257 0)
(10.0018 -0.015188 0)
(10.0076 -0.0226633 0)
(10.0148 -0.0259967 0)
(10.0214 -0.0285624 0)
(10.0277 -0.0310271 0)
(10.034 -0.0328082 0)
(10.0399 -0.0338501 0)
(10.0454 -0.0344539 0)
(10.0505 -0.0348285 0)
(10.0552 -0.0350573 0)
(10.0596 -0.035189 0)
(10.0637 -0.0352658 0)
(10.0675 -0.0353172 0)
(10.071 -0.0353596 0)
(10.0743 -0.0354015 0)
(10.0773 -0.0354461 0)
(10.0802 -0.0354913 0)
(9.99898 -0.00131122 0)
(9.99999 -0.0179801 0)
(10.0085 -0.0290794 0)
(10.0174 -0.0327069 0)
(10.0244 -0.0341327 0)
(10.0311 -0.0353607 0)
(10.0382 -0.0363094 0)
(10.0448 -0.0369536 0)
(10.0507 -0.037406 0)
(10.0558 -0.0377068 0)
(10.0605 -0.0378706 0)
(10.0646 -0.0379334 0)
(10.0683 -0.0379363 0)
(10.0716 -0.0379089 0)
(10.0744 -0.0378694 0)
(10.077 -0.0378289 0)
(10.0792 -0.037791 0)
(10.0812 -0.0377549 0)
(9.99528 0.00386751 0)
(9.99333 -0.0103156 0)
(10.007 -0.0271095 0)
(10.0212 -0.0389344 0)
(10.0311 -0.0448742 0)
(10.0391 -0.0464823 0)
(10.0465 -0.0460004 0)
(10.0529 -0.045045 0)
(10.058 -0.0441714 0)
(10.062 -0.0434006 0)
(10.0651 -0.0426891 0)
(10.0673 -0.0420342 0)
(10.0689 -0.0414421 0)
(10.0698 -0.0409125 0)
(10.0702 -0.040443 0)
(10.0702 -0.0400327 0)
(10.0698 -0.0396718 0)
(10.0691 -0.0393337 0)
(9.99144 -0.0172943 0)
(9.99188 0.000362867 0)
(10.01 0.0176611 0)
(10.0295 0.0115818 0)
(10.0441 -0.00511782 0)
(10.0541 -0.0188361 0)
(10.0599 -0.0271845 0)
(10.0622 -0.0320637 0)
(10.0616 -0.0349475 0)
(10.059 -0.0365552 0)
(10.0548 -0.0373345 0)
(10.0494 -0.0376104 0)
(10.043 -0.0375958 0)
(10.036 -0.0374203 0)
(10.0284 -0.0371676 0)
(10.0204 -0.0368988 0)
(10.0123 -0.0366694 0)
(10.0041 -0.0364482 0)
(10.0236 -0.206008 0)
(10.0684 -0.312341 0)
(10.0788 -0.255595 0)
(10.0704 -0.184181 0)
(10.0605 -0.134907 0)
(10.0498 -0.102733 0)
(10.0342 -0.081174 0)
(10.0129 -0.066629 0)
(9.98772 -0.0566387 0)
(9.96047 -0.0494844 0)
(9.93224 -0.0441285 0)
(9.90372 -0.0399815 0)
(9.8754 -0.0366851 0)
(9.84763 -0.0340066 0)
(9.82063 -0.031798 0)
(9.79453 -0.0299957 0)
(9.76957 -0.0285695 0)
(9.74577 -0.0278358 0)
(9.94226 0.671595 0)
(9.87995 0.567454 0)
(9.77443 0.338465 0)
(9.63235 0.183316 0)
(9.4876 0.0949031 0)
(9.35646 0.0470796 0)
(9.24087 0.0212941 0)
(9.13934 0.00707192 0)
(9.05037 -0.000988193 0)
(8.97235 -0.0056301 0)
(8.90356 -0.00831992 0)
(8.84245 -0.00988277 0)
(8.78778 -0.0107889 0)
(8.73856 -0.011307 0)
(8.69398 -0.011598 0)
(8.65331 -0.0117866 0)
(8.61573 -0.0119665 0)
(8.58083 -0.0124987 0)
(0.00377915 -0.00905913 -3.5028e-20)
(0.0134019 -0.0142998 3.46328e-20)
(0.0219009 -0.0126625 0)
(0.0273743 -0.00790443 0)
(0.0290723 -0.0022004 0)
(0.0268036 0.0030807 -3.25622e-20)
(0.0213946 0.00720694 0)
(0.0134942 0.0101 0)
(0.00366729 0.0120161 0)
(-0.00761084 0.013308 0)
(-0.0200434 0.0142539 3.00929e-20)
(-0.0334793 0.0150227 0)
(-0.047809 0.0157091 0)
(-0.0629733 0.0163601 0)
(-0.0789377 0.016996 0)
(-0.0956793 0.0176231 2.68691e-20)
(-0.11318 0.0182413 0)
(-0.131421 0.0188477 0)
(-0.150387 0.0194387 0)
(-0.170058 0.0200111 0)
(-0.190415 0.0205628 0)
(-0.211439 0.0210918 0)
(-0.23311 0.0215938 0)
(-0.255403 0.0220574 2.28676e-20)
(-0.278285 0.0224627 -2.24796e-20)
(-0.301717 0.0227886 2.21164e-20)
(-0.325651 0.0230341 2.1778e-20)
(-0.350054 0.0232427 0)
(-0.374924 0.0234981 0)
(-0.400301 0.0238757 -2.09087e-20)
(-0.426244 0.0243915 -2.06655e-20)
(-0.452786 0.0250223 0)
(-0.479887 0.0257396 0)
(-0.507398 0.0264113 -2.0064e-20)
(-0.535464 0.0273725 0)
(-0.564584 0.0330362 0)
(-0.593433 0.0489173 2.01279e-20)
(-0.6252 0.0290223 0)
(-0.659881 0.0495764 2.03179e-20)
(-0.692338 0.067879 4.17201e-20)
(-0.734685 0.0185287 0)
(-0.769515 0.0539226 0)
(-0.807392 0.0788446 0)
(-0.852601 0.036615 0)
(-0.888661 0.0243326 0)
(-0.923105 0.0322317 4.01085e-20)
(-0.9629 0.0332599 3.96561e-20)
(-1.00293 0.0341752 3.92096e-20)
(-1.04387 0.034622 0)
(-1.08523 0.0347918 -3.83455e-20)
(-1.12684 0.0347889 0)
(-1.16858 0.0346727 3.75279e-20)
(-1.21036 0.0344801 3.71365e-20)
(-1.25212 0.0342338 0)
(-1.2938 0.033948 0)
(-1.33536 0.0336317 0)
(-1.37678 0.0332905 3.56754e-20)
(-1.41803 0.0329279 0)
(-1.45907 0.0325457 0)
(-1.49988 0.0321452 0)
(-1.54042 0.0317266 0)
(-1.58069 0.0312898 0)
(-1.62064 0.0308348 0)
(-1.66024 0.0303609 0)
(-1.69947 0.0298678 0)
(-1.73829 0.029355 -3.2813e-20)
(-1.77668 0.0288222 0)
(-1.81459 0.0282689 0)
(-1.852 0.027695 3.19261e-20)
(-1.88886 0.0271004 3.16325e-20)
(-1.92514 0.0264851 0)
(-1.9608 0.0258493 -3.10448e-20)
(-1.99581 0.0251932 3.07496e-20)
(-2.03013 0.0245171 0)
(-2.06372 0.0238216 -3.01535e-20)
(-2.09654 0.0231072 0)
(-2.12856 0.0223746 0)
(-2.15974 0.0216245 2.9237e-20)
(-2.19004 0.0208576 0)
(-2.21942 0.0200748 -2.86049e-20)
(-2.24785 0.0192768 0)
(-2.2753 0.0184643 2.79512e-20)
(-2.30172 0.0176382 2.7615e-20)
(-2.32709 0.0167989 2.7272e-20)
(-2.35136 0.0159469 5.38433e-20)
(-2.37452 0.0150823 -5.31273e-20)
(-2.39652 0.0142051 0)
(-2.41733 0.0133146 0)
(-2.43692 0.0124097 0)
(-2.45525 0.0114885 -5.00931e-20)
(-2.47229 0.0105482 -4.92884e-20)
(-2.488 0.00958492 4.84639e-20)
(-2.50234 0.00859408 0)
(-2.51526 0.00757025 -4.67533e-20)
(-2.52671 0.00650678 -4.58663e-20)
(-2.53663 0.00539727 -4.49578e-20)
(-2.54494 0.00424129 0)
(-2.55157 0.00305617 0)
(-2.55641 0.0018853 0)
(-2.55931 0.000784084 -4.1104e-20)
(-2.56043 -0.000195271 0)
(-2.56014 -0.00104693 0)
(-2.55837 -0.00186713 3.79415e-20)
(-2.55514 -0.00267286 0)
(-2.55045 -0.00347192 0)
(-2.54428 -0.00426569 3.45436e-20)
(-2.53662 -0.00505424 0)
(-2.52746 -0.00583696 0)
(-2.5168 -0.00661309 -3.09065e-20)
(-2.50464 -0.00738177 -2.96412e-20)
(-2.49096 -0.00814215 0)
(-2.47576 -0.00889337 2.70319e-20)
(-2.45905 -0.00963459 0)
(-2.44082 -0.010365 -2.43198e-20)
(-2.42108 -0.0110838 0)
(-2.39984 -0.0117902 -2.15078e-20)
(-2.3771 -0.0124834 -2.00656e-20)
(-2.35288 -0.0131628 0)
(-2.32718 -0.0138274 0)
(-2.30001 -0.0144768 0)
(-2.2714 -0.0151101 0)
(-2.24136 -0.0157267 0)
(-2.20991 -0.0163262 0)
(-2.17706 -0.0169078 0)
(-2.14285 -0.017471 -7.7463e-21)
(-2.1073 -0.0180155 6.12107e-21)
(-2.07043 -0.0185406 0)
(-2.03227 -0.0190459 0)
(-1.99285 -0.0195309 0)
(-1.95221 -0.0199954 0)
(-1.91036 -0.0204388 -4.43766e-21)
(-1.86735 -0.020861 0)
(-1.82322 -0.0212617 1.1265e-20)
(-1.77799 -0.0216407 -1.4702e-20)
(-1.73171 -0.0219979 0)
(-1.68442 -0.0223331 0)
(-1.63615 -0.0226462 0)
(-1.58694 -0.0229371 2.85425e-20)
(-1.53684 -0.0232059 3.20121e-20)
(-1.48589 -0.0234528 0)
(-1.43413 -0.0236778 3.89432e-20)
(-1.3816 -0.0238811 4.2399e-20)
(-1.32835 -0.0240629 -4.58446e-20)
(-1.27441 -0.0242235 0)
(-1.21984 -0.0243633 0)
(-1.16468 -0.0244828 -5.60926e-20)
(-1.10896 -0.0245823 0)
(-1.05273 -0.0246624 0)
(-0.996032 -0.0247237 0)
(-0.938906 -0.0247668 0)
(-0.881392 -0.0247925 7.27156e-20)
(-0.823526 -0.0248014 7.59486e-20)
(-0.765347 -0.0247945 0)
(-0.70689 -0.0247726 8.23042e-20)
(-0.648188 -0.0247365 0)
(-0.589274 -0.0246873 0)
(-0.530177 -0.0246257 9.15291e-20)
(-0.470927 -0.0245527 0)
(-0.41155 -0.0244688 9.74504e-20)
(-0.352072 -0.0243743 0)
(-0.29252 -0.0242692 0)
(-0.232918 -0.0241514 1.05955e-19)
(-0.173295 -0.0240138 0)
(-0.113682 -0.0238523 1.11355e-19)
(-0.0541027 -0.0236611 0)
(0.00541531 -0.0233942 0)
(0.0647267 -0.0230236 0)
(0.123928 -0.0226399 -1.18208e-19)
(0.183019 -0.0222798 0)
(0.242009 -0.0219383 1.19716e-19)
(0.300906 -0.0216048 0)
(0.359697 -0.0212685 0)
(0.418337 -0.0209149 0)
(0.476722 -0.0205204 0)
(0.534675 -0.0200394 0)
(0.591694 -0.0193799 0)
(0.647362 -0.0182961 0)
(0.697609 -0.0161591 -2.46723e-19)
(0.746476 -0.0113595 0)
(0.74889 0.00624249 0)
(0.00384053 -0.0270506 1.04133e-19)
(0.00855537 -0.0274013 -1.00211e-19)
(0.00859748 -0.0174764 0)
(0.00618373 -0.00644544 6.08527e-20)
(0.00171823 0.00413762 0)
(-0.00454716 0.013529 2.87177e-20)
(-0.0126112 0.0213597 -5.60421e-20)
(-0.0223857 0.0276089 -5.47733e-20)
(-0.0337734 0.0324864 0)
(-0.0466393 0.036311 -5.23244e-20)
(-0.0608305 0.0394045 -2.55707e-20)
(-0.0762028 0.0420142 0)
(-0.092639 0.0443077 0)
(-0.110051 0.0463902 0)
(-0.128378 0.0483235 0)
(-0.147575 0.0501417 -2.27569e-20)
(-0.167616 0.0518629 0)
(-0.188482 0.0534965 4.35154e-20)
(-0.210164 0.0550476 0)
(-0.232658 0.0565202 0)
(-0.255965 0.0579174 -4.09199e-20)
(-0.280089 0.0592412 0)
(-0.305041 0.0604903 3.94267e-20)
(-0.330835 0.0616595 -1.93974e-20)
(-0.357493 0.062742 1.90848e-20)
(-0.385051 0.0637392 -1.87966e-20)
(-0.413559 0.0646759 -1.85332e-20)
(-0.443082 0.0656075 0)
(-0.473693 0.0666039 0)
(-0.505463 0.0677087 1.78949e-20)
(-0.538462 0.0689076 -1.76716e-20)
(-0.572754 0.0701358 0)
(-0.608405 0.0712879 0)
(-0.645594 0.0721544 1.73708e-20)
(-0.684484 0.072458 0)
(-0.724181 0.0725702 0)
(-0.7642 0.0738662 -1.71892e-20)
(-0.808148 0.0757868 0)
(-0.847939 0.0781588 1.68334e-20)
(-0.888876 0.0832112 -3.39225e-20)
(-0.931705 0.0825326 0)
(-0.972965 0.0817832 0)
(-1.01206 0.0857363 -6.54469e-20)
(-1.05181 0.0863637 -6.50251e-20)
(-1.09532 0.0864158 -6.4356e-20)
(-1.1381 0.0880693 3.17028e-20)
(-1.17865 0.0889725 -3.14946e-20)
(-1.21824 0.089193 -9.32431e-20)
(-1.25725 0.0890213 6.1413e-20)
(-1.29581 0.0885579 3.04422e-20)
(-1.33401 0.0878942 0)
(-1.37188 0.0870888 -2.97959e-20)
(-1.40943 0.0861811 2.93407e-20)
(-1.44668 0.0851973 0)
(-1.48361 0.0841545 0)
(-1.52021 0.0830636 0)
(-1.55648 0.0819316 -2.83342e-20)
(-1.5924 0.0807624 0)
(-1.62795 0.079558 5.54471e-20)
(-1.66313 0.0783191 0)
(-1.6979 0.0770457 5.44151e-20)
(-1.73225 0.0757371 0)
(-1.76616 0.0743925 -5.34159e-20)
(-1.79961 0.0730109 0)
(-1.83257 0.0715913 5.24411e-20)
(-1.86502 0.0701329 -2.59089e-20)
(-1.89694 0.0686349 0)
(-1.92828 0.067097 -5.10069e-20)
(-1.95904 0.0655188 -2.53345e-20)
(-1.98918 0.0639004 -2.50962e-20)
(-2.01867 0.0622422 0)
(-2.04749 0.0605445 -2.44892e-20)
(-2.07561 0.0588082 -2.43766e-20)
(-2.10299 0.0570343 0)
(-2.12961 0.0552239 2.38887e-20)
(-2.15544 0.0533786 -4.71674e-20)
(-2.18045 0.0514998 0)
(-2.20462 0.0495892 -2.3136e-20)
(-2.22791 0.0476486 0)
(-2.2503 0.0456798 6.77497e-20)
(-2.27175 0.0436847 0)
(-2.29225 0.0416653 -6.61434e-20)
(-2.31177 0.0396233 -2.17997e-20)
(-2.33027 0.0375605 2.14405e-20)
(-2.34774 0.0354785 4.23149e-20)
(-2.36414 0.0333788 -4.17366e-20)
(-2.37946 0.0312625 0)
(-2.39366 0.0291305 0)
(-2.40672 0.0269834 0)
(-2.41863 0.024821 1.18028e-19)
(-2.42934 0.0226429 3.87076e-20)
(-2.43886 0.0204477 -3.80307e-20)
(-2.44714 0.0182336 0)
(-2.45418 0.0159981 -3.6606e-20)
(-2.45998 0.0137383 3.59018e-20)
(-2.46452 0.0114498 3.51584e-20)
(-2.46783 0.00912918 0)
(-2.46995 0.00678558 0)
(-2.47099 0.00446002 0)
(-2.47104 0.00221668 3.20005e-20)
(-2.47003 7.64931e-05 0)
(-2.46764 -0.00196768 -6.06867e-20)
(-2.46387 -0.0039729 -8.83673e-20)
(-2.45868 -0.00595261 5.71698e-20)
(-2.45206 -0.00791375 0)
(-2.44397 -0.00985682 2.68298e-20)
(-2.43442 -0.0117806 0)
(-2.42339 -0.0136831 4.96987e-20)
(-2.41088 -0.0155621 -2.39704e-20)
(-2.39687 -0.0174152 -2.29814e-20)
(-2.38137 -0.0192402 0)
(-2.36437 -0.0210348 -6.23579e-20)
(-2.34587 -0.022797 3.9557e-20)
(-2.32588 -0.0245246 1.85743e-20)
(-2.30439 -0.0262157 0)
(-2.28142 -0.0278684 1.63807e-20)
(-2.25697 -0.029481 4.61045e-20)
(-2.23105 -0.0310516 0)
(-2.20367 -0.0325785 2.63056e-20)
(-2.17485 -0.0340602 2.3995e-20)
(-2.1446 -0.0354952 2.16583e-20)
(-2.11294 -0.0368819 0)
(-2.07988 -0.0382193 0)
(-2.04545 -0.0395061 0)
(-2.00967 -0.0407412 -6.25136e-21)
(-1.97257 -0.0419238 -4.59763e-21)
(-1.93416 -0.043053 0)
(-1.89448 -0.0441279 -4.68836e-21)
(-1.85356 -0.0451479 -2.19499e-21)
(-1.81143 -0.0461122 0)
(-1.76811 -0.0470205 3.311e-21)
(-1.72365 -0.0478723 1.07035e-20)
(-1.67808 -0.0486676 -8.3833e-21)
(-1.63142 -0.0494063 -9.91368e-21)
(-1.58373 -0.0500884 0)
(-1.53504 -0.050714 0)
(-1.48539 -0.0512834 0)
(-1.43482 -0.0517969 -2.11101e-20)
(-1.38336 -0.052255 2.25816e-20)
(-1.33107 -0.0526585 5.12853e-20)
(-1.27798 -0.0530081 -2.87024e-20)
(-1.22413 -0.0533048 3.01294e-20)
(-1.16957 -0.0535495 3.37146e-20)
(-1.11434 -0.0537433 0)
(-1.05849 -0.0538876 0)
(-1.00205 -0.053984 -4.00276e-20)
(-0.945069 -0.0540338 0)
(-0.887588 -0.0540386 0)
(-0.829647 -0.0540004 9.56217e-20)
(-0.771287 -0.053921 0)
(-0.712547 -0.0538025 5.19762e-20)
(-0.653464 -0.0536469 -5.53736e-20)
(-0.594074 -0.0534566 0)
(-0.534414 -0.0532337 5.8842e-20)
(-0.474516 -0.0529806 0)
(-0.414412 -0.0526998 0)
(-0.354131 -0.0523934 -6.64802e-20)
(-0.293702 -0.0520635 1.36165e-19)
(-0.23315 -0.0517119 -7.06875e-20)
(-0.172501 -0.0513396 0)
(-0.111777 -0.0509455 0)
(-0.0510017 -0.050528 7.5718e-20)
(0.00980235 -0.0500837 0)
(0.0706108 -0.0496097 7.86517e-20)
(0.131406 -0.0491122 0)
(0.192172 -0.0485926 0)
(0.25289 -0.0480376 0)
(0.313591 -0.047471 8.36016e-20)
(0.374262 -0.0469187 0)
(0.434897 -0.0463804 -8.5351e-20)
(0.495485 -0.0458434 0)
(0.556001 -0.0452882 0)
(0.61639 -0.0446842 1.74383e-19)
(0.676543 -0.0439797 -1.75705e-19)
(0.736273 -0.0430746 0)
(0.795147 -0.0417748 0)
(0.852717 -0.0395817 0)
(0.906452 -0.0355442 5.42348e-19)
(0.958919 -0.0264361 0)
(0.989511 -0.00434519 -3.68967e-19)
(0.00131425 -0.0337362 -3.97725e-23)
(-0.00103059 -0.0233548 1.30027e-19)
(-0.00661307 -0.00792546 0)
(-0.0134608 0.00655956 -1.12511e-19)
(-0.0215731 0.0197645 0)
(-0.030785 0.0315578 0)
(-0.0410683 0.0418467 1.13837e-23)
(-0.0524673 0.0506253 4.87083e-20)
(-0.0650321 0.0580103 4.75137e-20)
(-0.0787764 0.0642124 4.6413e-20)
(-0.0936726 0.0694791 0)
(-0.109667 0.0740431 0)
(-0.126698 0.0780953 -4.32991e-20)
(-0.14471 0.0817793 -8.4666e-20)
(-0.163658 0.085196 8.28074e-20)
(-0.183507 0.0884136 0)
(-0.204238 0.0914774 7.93246e-20)
(-0.225838 0.0944183 -3.88667e-20)
(-0.248305 0.0972582 0)
(-0.271642 0.100015 7.47079e-20)
(-0.29586 0.102703 3.66808e-20)
(-0.320973 0.105335 -7.20346e-20)
(-0.347001 0.107923 -3.54244e-20)
(-0.37397 0.110476 0)
(-0.401909 0.113008 6.8617e-20)
(-0.430855 0.115541 6.76305e-20)
(-0.460845 0.118117 0)
(-0.491909 0.12079 6.5871e-20)
(-0.524051 0.123612 0)
(-0.557251 0.1266 6.43657e-20)
(-0.591458 0.129722 3.18639e-20)
(-0.626602 0.132902 0)
(-0.662589 0.136046 0)
(-0.699343 0.139068 0)
(-0.736775 0.141988 0)
(-0.77452 0.144933 0)
(-0.812229 0.147612 0)
(-0.850279 0.149473 5.9342e-20)
(-0.8874 0.151554 -8.7886e-20)
(-0.923421 0.152549 0)
(-0.96004 0.151474 0)
(-0.996644 0.151955 0)
(-1.0314 0.151674 -2.49985e-23)
(-1.06608 0.148765 5.51156e-20)
(-1.10209 0.146345 1.08862e-19)
(-1.13796 0.144907 -1.07471e-19)
(-1.17299 0.143566 -5.30184e-20)
(-1.20751 0.142205 5.24252e-20)
(-1.24162 0.140772 -7.53433e-23)
(-1.2754 0.139246 5.10767e-20)
(-1.30891 0.13763 0)
(-1.34217 0.135936 4.98733e-20)
(-1.3752 0.134174 -8.37992e-23)
(-1.40801 0.132355 0)
(-1.4406 0.130484 0)
(-1.47296 0.128567 -4.76545e-20)
(-1.50508 0.126606 0)
(-1.53695 0.124601 0)
(-1.56855 0.122553 4.60319e-20)
(-1.59988 0.120459 9.12711e-20)
(-1.6309 0.118318 -4.52494e-20)
(-1.6616 0.116127 0)
(-1.69196 0.113886 4.43114e-20)
(-1.72196 0.111592 0)
(-1.75156 0.109243 4.32075e-20)
(-1.78075 0.106838 4.29465e-20)
(-1.8095 0.104375 -8.48121e-20)
(-1.83778 0.101855 -4.18701e-20)
(-1.86557 0.0992765 0)
(-1.89283 0.09664 8.2163e-20)
(-1.91954 0.0939459 0)
(-1.94567 0.0911951 1.20695e-19)
(-1.97119 0.0883889 7.95253e-20)
(-1.99607 0.0855288 7.8642e-20)
(-2.02028 0.0826166 -7.77543e-20)
(-2.04379 0.0796546 1.15369e-19)
(-2.06656 0.0766451 0)
(-2.08858 0.0735906 0)
(-2.10981 0.0704938 -7.41341e-20)
(-2.13023 0.0673576 -1.09873e-19)
(-2.14979 0.0641847 0)
(-2.16848 0.0609781 3.5714e-20)
(-2.18627 0.0577407 0)
(-2.20312 0.054475 -1.04093e-19)
(-2.21902 0.0511839 -9.23906e-23)
(-2.23394 0.0478698 8.38614e-23)
(-2.24784 0.0445348 6.63149e-20)
(-2.26072 0.041181 0)
(-2.27253 0.0378103 -6.41911e-20)
(-2.28327 0.0344242 -4.70665e-23)
(-2.2929 0.0310242 0)
(-2.30142 0.027612 0)
(-2.30879 0.0241897 0)
(-2.31502 0.0207603 5.85199e-20)
(-2.3201 0.0173291 0)
(-2.32401 0.0139045 0)
(-2.32676 0.0104988 0)
(-2.32834 0.00712938 0)
(-2.32875 0.00381542 0)
(-2.32797 0.000568297 5.08905e-20)
(-2.32591 -0.00264049 0)
(-2.32252 -0.00583955 4.80409e-20)
(-2.31776 -0.00902077 4.66085e-20)
(-2.31163 -0.0121805 -4.51506e-20)
(-2.3041 -0.0153154 0)
(-2.29516 -0.0184218 -4.21586e-20)
(-2.28479 -0.0214958 0)
(-2.27299 -0.0245337 -3.9066e-20)
(-2.25975 -0.0275313 3.74826e-20)
(-2.24505 -0.030485 1.07978e-19)
(-2.22891 -0.0333909 0)
(-2.21131 -0.0362455 9.81664e-20)
(-2.19225 -0.0390454 3.13331e-20)
(-2.17174 -0.0417873 0)
(-2.14978 -0.044468 5.54503e-20)
(-2.12638 -0.0470846 5.199e-20)
(-2.10154 -0.0496342 -7.24809e-20)
(-2.07527 -0.0521139 0)
(-2.04758 -0.0545212 -2.04142e-20)
(-2.01849 -0.0568535 -1.85998e-20)
(-1.98801 -0.0591085 -5.08949e-20)
(-1.95615 -0.0612839 0)
(-1.92294 -0.0633778 0)
(-1.88839 -0.0653883 0)
(-1.85253 -0.0673139 -9.96694e-21)
(-1.81538 -0.0691532 0)
(-1.77696 -0.0709049 0)
(-1.73731 -0.0725678 3.60189e-21)
(-1.69644 -0.0741408 1.68451e-21)
(-1.65439 -0.0756231 0)
(-1.6112 -0.0770139 0)
(-1.56688 -0.0783129 -8.18818e-21)
(-1.52149 -0.0795199 0)
(-1.47504 -0.0806349 1.59105e-20)
(-1.42758 -0.0816582 1.89835e-20)
(-1.37915 -0.0825902 0)
(-1.32978 -0.0834312 0)
(-1.27952 -0.0841819 -3.04918e-20)
(-1.22839 -0.0848434 -8.14423e-22)
(-1.17645 -0.085417 -8.19683e-22)
(-1.12374 -0.0859041 0)
(-1.07028 -0.0863063 -9.21217e-20)
(-1.01614 -0.0866252 0)
(-0.96134 -0.0868629 0)
(-0.905931 -0.0870215 0)
(-0.849953 -0.0871038 6.12704e-20)
(-0.793447 -0.0871121 0)
(-0.736453 -0.0870492 -1.35289e-19)
(-0.679012 -0.086918 -7.20271e-20)
(-0.621162 -0.086722 0)
(-0.562941 -0.0864643 -7.90038e-20)
(-0.504385 -0.0861485 0)
(-0.445532 -0.0857782 0)
(-0.386413 -0.0853571 -2.65784e-19)
(-0.327062 -0.0848892 1.83221e-19)
(-0.267509 -0.0843781 0)
(-0.207783 -0.0838277 1.96069e-19)
(-0.147911 -0.0832412 -1.01961e-19)
(-0.0879168 -0.0826214 0)
(-0.0278243 -0.081971 0)
(0.0323455 -0.0812917 0)
(0.0925718 -0.0805833 -3.36354e-19)
(0.152837 -0.0798444 0)
(0.213125 -0.0790752 -1.16479e-19)
(0.273426 -0.0782817 0)
(0.333742 -0.0774766 0)
(0.394092 -0.0766706 0)
(0.454478 -0.07587 0)
(0.514881 -0.0750813 0)
(0.575283 -0.0743001 0)
(0.635666 -0.0735102 -2.54824e-19)
(0.695996 -0.0726834 0)
(0.756217 -0.0717732 -1.3077e-19)
(0.816222 -0.0706994 3.94857e-19)
(0.875837 -0.0693139 0)
(0.934702 -0.0673348 0)
(0.992477 -0.0641485 -2.69948e-19)
(1.04746 -0.0585862 -2.73475e-19)
(1.10233 -0.0477253 2.7547e-19)
(1.14504 -0.0253116 2.80263e-19)
(-0.00226713 -0.027437 -2.05482e-19)
(-0.00963652 -0.00932601 -1.90556e-19)
(-0.0187337 0.00917755 -1.14821e-19)
(-0.0286405 0.0256074 -5.28959e-20)
(-0.039412 0.040443 0)
(-0.0508496 0.0538101 9.54093e-20)
(-0.0629576 0.0657385 -4.60388e-20)
(-0.0758201 0.0762635 0)
(-0.0895247 0.0854757 -4.35375e-20)
(-0.104134 0.0935252 0)
(-0.11968 0.100598 8.29683e-20)
(-0.136168 0.106887 0)
(-0.153585 0.112566 3.96528e-20)
(-0.171911 0.11778 7.75844e-20)
(-0.191125 0.122645 -7.59356e-20)
(-0.211209 0.127244 0)
(-0.232151 0.131641 -7.2854e-20)
(-0.253943 0.135882 0)
(-0.276585 0.140002 0)
(-0.300079 0.144028 -6.87642e-20)
(-0.324429 0.147985 0)
(-0.349642 0.15189 5.12872e-24)
(-0.375724 0.155757 0)
(-0.402681 0.159601 0)
(-0.430515 0.16343 -4.71299e-24)
(-0.45922 0.167259 -6.23404e-20)
(-0.48878 0.171101 -6.14584e-20)
(-0.519155 0.174967 -6.06282e-20)
(-0.550277 0.178851 0)
(-0.582052 0.182715 -1.18115e-19)
(-0.61436 0.186487 0)
(-0.647073 0.190061 -5.75723e-20)
(-0.680062 0.19333 0)
(-0.713201 0.196205 0)
(-0.746363 0.198653 5.53793e-20)
(-0.779398 0.200676 0)
(-0.812192 0.202164 -5.38975e-20)
(-0.8447 0.203014 -3.70775e-25)
(-0.876757 0.203508 1.04795e-19)
(-0.908331 0.203314 -1.03307e-19)
(-0.939776 0.202266 0)
(-0.971056 0.201338 0)
(-1.00187 0.199992 -4.95022e-20)
(-1.03258 0.197681 0)
(-1.06349 0.195235 -4.81537e-20)
(-1.09437 0.19297 4.74937e-20)
(-1.12506 0.190758 4.68505e-20)
(-1.15556 0.188563 0)
(-1.18588 0.186354 -4.56182e-20)
(-1.21603 0.184112 -4.50287e-20)
(-1.24604 0.181826 8.88531e-20)
(-1.27591 0.179493 -4.38996e-20)
(-1.30564 0.177111 -4.33584e-20)
(-1.33524 0.17468 0)
(-1.36469 0.172199 0)
(-1.394 0.169668 4.18176e-20)