/*--------------------------------*- C++ -*----------------------------------*\
  =========                 |
  \\      /  F ield         | OpenFOAM: The Open Source CFD Toolbox
   \\    /   O peration     | Website:  https://openfoam.org
    \\  /    A nd           | Version:  12
     \\/     M anipulation  |
\*---------------------------------------------------------------------------*/
FoamFile
{
    format      ascii;
    class       volScalarField;
    location    "3.46";
    object      p_rgh;
}
// * * * * * * * * * * * * * * * * * * * * * * * * * * * * * * * * * * * * * //

dimensions      [1 -1 -2 0 0 0 0];

internalField   nonuniform List<scalar> 
3829
(
0.645139
0.645001
0.644718
0.644281
0.643677
0.642891
0.641902
0.640689
0.639228
0.63749
0.635445
0.633061
0.630304
0.627137
0.623527
0.619437
0.614832
0.609682
0.603952
0.597612
0.590634
0.582994
0.57467
0.56565
0.555925
0.545496
0.534369
0.522562
0.510097
0.497007
0.483334
0.469126
0.454439
0.439334
0.423879
0.408148
0.392226
0.376201
0.360164
0.344201
0.328471
0.313037
0.297982
0.283387
0.269326
0.255874
0.243097
0.231053
0.219793
0.209362
0.199794
0.191113
0.183335
0.176464
0.170492
0.165401
0.161159
0.157718
0.155019
0.15299
0.151547
0.150595
0.150031
0.14974
0.149603
0.149493
0.149283
0.14884
0.148035
0.14674
0.144833
0.142194
0.138709
0.134258
0.128847
0.122368
0.114774
0.106043
0.0961743
0.0851129
0.0729732
0.0598192
0.0457452
0.0308371
0.0152234
-0.000898965
-0.0173713
-0.0340136
-0.0506339
-0.0670275
-0.0829835
-0.0982895
-0.112735
-0.126123
-0.138265
-0.14899
-0.158153
-0.165631
-0.171335
-0.175196
-0.1771
-0.177114
-0.175284
-0.171676
-0.166386
-0.159547
-0.151319
-0.141886
-0.131452
-0.12024
-0.108483
-0.0964209
-0.0842941
-0.0723445
-0.0607971
-0.0498675
-0.039755
-0.0306395
-0.0226757
-0.0159916
-0.0106881
-0.00683764
-0.0044812
-0.00363211
-0.00427384
-0.00636394
-0.00983474
-0.0145958
-0.0205354
-0.0275245
-0.0354203
-0.0440685
-0.0533075
-0.0629709
-0.0728919
-0.0829058
-0.0928501
-0.102562
-0.111914
-0.120767
-0.129
-0.13651
-0.143206
-0.149017
-0.153886
-0.157775
-0.160663
-0.162544
-0.163431
-0.163351
-0.162342
-0.160455
-0.157753
-0.154311
-0.150208
-0.145533
-0.140378
-0.13484
-0.129018
-0.123009
-0.116911
-0.110818
-0.104821
-0.0990024
-0.0934421
-0.0882111
-0.0833729
-0.0789832
-0.0750883
-0.0717255
-0.0689227
-0.0666991
-0.065065
-0.0640227
-0.0635651
-0.0636783
-0.0643411
-0.0655242
-0.0671958
-0.069318
-0.0718476
-0.0747377
-0.0779379
-0.0813949
-0.0850536
-0.0888572
-0.0927485
-0.0966707
-0.100568
-0.104385
-0.10807
-0.111572
-0.114842
-0.117834
-0.120506
-0.122816
-0.124727
-0.126204
-0.127214
-0.127731
0.661267
0.661279
0.661298
0.661314
0.661311
0.661263
0.661141
0.66091
0.660526
0.659944
0.659115
0.657985
0.656492
0.654571
0.652151
0.649163
0.64553
0.641181
0.636046
0.630061
0.623168
0.615322
0.606486
0.596634
0.585756
0.573855
0.560946
0.547062
0.532247
0.51656
0.500073
0.48287
0.465046
0.446706
0.427958
0.408916
0.389707
0.37046
0.351303
0.332351
0.313774
0.295697
0.278235
0.261495
0.245576
0.23057
0.216555
0.203601
0.191766
0.181096
0.171624
0.163369
0.156338
0.150522
0.145896
0.142419
0.140032
0.13866
0.138214
0.138588
0.139666
0.141316
0.143397
0.145758
0.148242
0.150685
0.15292
0.154781
0.1561
0.156723
0.156499
0.155286
0.152957
0.1494
0.144521
0.138249
0.130533
0.121349
0.110679
0.0986287
0.085211
0.0705084
0.0546452
0.0377672
0.020032
0.00162139
-0.0171785
-0.036169
-0.0551137
-0.0737624
-0.0918589
-0.109148
-0.12538
-0.140324
-0.15376
-0.165498
-0.175371
-0.183237
-0.188986
-0.19255
-0.193928
-0.193143
-0.190248
-0.185343
-0.178563
-0.170082
-0.1601
-0.148842
-0.136553
-0.123497
-0.109942
-0.0961633
-0.0824405
-0.0690286
-0.0561823
-0.0441316
-0.0330882
-0.0232396
-0.0147415
-0.00771862
-0.00226555
0.00155725
0.00372104
0.00423124
0.00312167
0.000455518
-0.00367979
-0.00917283
-0.0158916
-0.0236886
-0.0324014
-0.0418588
-0.0518847
-0.0622989
-0.0729229
-0.0835825
-0.0941056
-0.104333
-0.114125
-0.123345
-0.131871
-0.139599
-0.146444
-0.152335
-0.15722
-0.161068
-0.163861
-0.165601
-0.166315
-0.166028
-0.164784
-0.162641
-0.159669
-0.155948
-0.151562
-0.146607
-0.141179
-0.135377
-0.129305
-0.123063
-0.116751
-0.110467
-0.104299
-0.0983322
-0.0926472
-0.0873152
-0.0823987
-0.0779528
-0.0740228
-0.070644
-0.0678433
-0.0656378
-0.0640364
-0.0630392
-0.0626377
-0.0628159
-0.0635486
-0.0648081
-0.0665607
-0.0687666
-0.0713816
-0.0743574
-0.0776426
-0.0811827
-0.0849217
-0.0888019
-0.0927653
-0.0967544
-0.100713
-0.104586
-0.108321
-0.111867
-0.115176
-0.118203
-0.120903
-0.123238
-0.125168
-0.12666
-0.127681
-0.128203
0.673418
0.673906
0.674886
0.676345
0.678255
0.680572
0.68323
0.686149
0.689225
0.692338
0.695354
0.698122
0.70049
0.702298
0.70339
0.703607
0.702808
0.700845
0.697582
0.692892
0.686661
0.6788
0.669239
0.657937
0.644879
0.63008
0.613585
0.595465
0.575816
0.554762
0.532443
0.509011
0.484641
0.459532
0.433904
0.407989
0.382015
0.356199
0.330753
0.305828
0.281793
0.258784
0.236934
0.216375
0.197229
0.179606
0.163604
0.149303
0.136766
0.126039
0.117145
0.11009
0.104857
0.101407
0.0996744
0.0995715
0.100989
0.103798
0.107848
0.112971
0.118982
0.125684
0.132866
0.140307
0.147777
0.155047
0.161883
0.168058
0.173238
0.177401
0.180259
0.181621
0.181321
0.179221
0.175205
0.169196
0.161161
0.151081
0.138809
0.124628
0.108573
0.0907775
0.0714185
0.0507071
0.0288875
0.00622326
-0.016973
-0.0403629
-0.0636367
-0.0864551
-0.108479
-0.129377
-0.148831
-0.166549
-0.182266
-0.195749
-0.206803
-0.215274
-0.221063
-0.223962
-0.224176
-0.221737
-0.216743
-0.209358
-0.199781
-0.188253
-0.175049
-0.160467
-0.144827
-0.128463
-0.111711
-0.094905
-0.0783894
-0.0624467
-0.0473741
-0.0334289
-0.0208393
-0.00980009
-0.000465847
0.00704574
0.0126566
0.0163294
0.0180628
0.017896
0.0158985
0.0121658
0.00682253
1.52977e-05
-0.00808811
-0.0173076
-0.0274489
-0.0383114
-0.049694
-0.0613945
-0.0732164
-0.084972
-0.0964569
-0.107546
-0.118072
-0.127896
-0.136897
-0.144974
-0.152046
-0.15805
-0.162943
-0.166701
-0.169317
-0.170797
-0.171206
-0.170552
-0.168897
-0.166311
-0.162874
-0.158674
-0.153808
-0.148377
-0.142485
-0.136238
-0.129743
-0.123108
-0.116436
-0.109836
-0.103382
-0.0971686
-0.0912772
-0.0857786
-0.0807346
-0.0761984
-0.0722129
-0.0688112
-0.0660173
-0.0638458
-0.0623018
-0.0613828
-0.0610779
-0.0613685
-0.0622199
-0.0636091
-0.0654986
-0.0678461
-0.0706048
-0.0737249
-0.0771528
-0.0808327
-0.0847067
-0.0887154
-0.0927994
-0.0969003
-0.100961
-0.104928
-0.108746
-0.112366
-0.11574
-0.118823
-0.121571
-0.123946
-0.125909
-0.127426
-0.128464
-0.128995
0.669544
0.671071
0.674139
0.678735
0.684797
0.692232
0.700892
0.710588
0.721093
0.732159
0.743545
0.754968
0.766095
0.776561
0.785979
0.793957
0.800107
0.80407
0.805526
0.804202
0.799873
0.792374
0.7816
0.76751
0.750127
0.729542
0.70591
0.67944
0.650392
0.619071
0.585817
0.551007
0.515022
0.478232
0.440979
0.403635
0.36655
0.330032
0.294337
0.260776
0.228692
0.198388
0.170113
0.144075
0.120443
0.0993592
0.0809294
0.0652334
0.052321
0.0422136
0.0349037
0.0303519
0.0284893
0.029211
0.0323804
0.037833
0.045377
0.0547958
0.0658519
0.0782827
0.0918096
0.10613
0.120937
0.135901
0.150693
0.165002
0.178468
0.190807
0.201697
0.210844
0.217974
0.222839
0.225223
0.224947
0.221865
0.215881
0.206929
0.195014
0.180384
0.162952
0.142885
0.120411
0.0958042
0.069384
0.0415076
0.0125659
-0.0170172
-0.0467784
-0.0762729
-0.105038
-0.132617
-0.158565
-0.182469
-0.20395
-0.222688
-0.238394
-0.250897
-0.260087
-0.265988
-0.267418
-0.265654
-0.260643
-0.252516
-0.241498
-0.227878
-0.211998
-0.194236
-0.174999
-0.154712
-0.133806
-0.112713
-0.0918531
-0.0716135
-0.0523547
-0.0344076
-0.0180585
-0.0035509
0.00891556
0.0191916
0.0271794
0.0328284
0.0361322
0.0371221
0.0359397
0.0326485
0.0274002
0.0203714
0.011759
0.00177605
-0.00935172
-0.0213916
-0.0341054
-0.0472615
-0.0606295
-0.0739869
-0.0871257
-0.099849
-0.112015
-0.123451
-0.134016
-0.143589
-0.152076
-0.159402
-0.165513
-0.17038
-0.173992
-0.17636
-0.177515
-0.177475
-0.176321
-0.174119
-0.17095
-0.166906
-0.162087
-0.156601
-0.150558
-0.144072
-0.137256
-0.130226
-0.123092
-0.115957
-0.108976
-0.102157
-0.0956344
-0.089487
-0.0837839
-0.0785848
-0.0739407
-0.0698916
-0.0664673
-0.0636881
-0.0615645
-0.0600979
-0.0592819
-0.0591023
-0.0595417
-0.0605428
-0.0620989
-0.0641638
-0.0666914
-0.0696326
-0.0729353
-0.0765442
-0.0804011
-0.0844456
-0.0886166
-0.0928527
-0.097094
-0.101283
-0.105366
-0.109288
-0.113
-0.116455
-0.119608
-0.122416
-0.124841
-0.126845
-0.128393
-0.129453
-0.129996
0.600599
0.604303
0.611769
0.622979
0.637827
0.656111
0.677535
0.701701
0.72811
0.756162
0.785166
0.814432
0.843188
0.870629
0.895964
0.918442
0.937363
0.952088
0.962056
0.966788
0.965917
0.959188
0.946475
0.927779
0.903246
0.873154
0.837904
0.797985
0.753918
0.70629
0.655789
0.603152
0.549126
0.494446
0.439821
0.385854
0.333104
0.282074
0.233149
0.186936
0.143986
0.104449
0.0684828
0.036242
0.00786772
-0.0165206
-0.0368396
-0.0530383
-0.0651053
-0.0730721
-0.0770127
-0.0770411
-0.0733167
-0.0660408
-0.0554511
-0.0418121
-0.0254248
-0.00662416
0.0142338
0.0367658
0.0605682
0.08522
0.110282
0.135308
0.159589
0.183155
0.205317
0.225645
0.243723
0.25916
0.271606
0.280741
0.286289
0.288031
0.285807
0.279512
0.269142
0.254633
0.236201
0.213989
0.188248
0.159297
0.127533
0.0934092
0.0574328
0.0201516
-0.0178412
-0.0559245
-0.0934802
-0.12988
-0.164513
-0.196808
-0.226212
-0.252254
-0.274505
-0.292624
-0.306318
-0.31538
-0.319574
-0.320304
-0.316334
-0.30804
-0.295794
-0.280002
-0.261113
-0.23962
-0.216049
-0.190949
-0.164873
-0.138376
-0.111983
-0.0863093
-0.0616517
-0.0385131
-0.0172672
0.00177761
0.0183689
0.0323115
0.0434731
0.0517916
0.0572605
0.0599245
0.059882
0.0572627
0.0522577
0.0450717
0.0359358
0.025103
0.0128409
-0.000576931
-0.01487
-0.0297635
-0.0449905
-0.0602884
-0.075411
-0.0900789
-0.104207
-0.117579
-0.13002
-0.141388
-0.151568
-0.160473
-0.168039
-0.174225
-0.179013
-0.182411
-0.184444
-0.185162
-0.184609
-0.182867
-0.180022
-0.17617
-0.171419
-0.165885
-0.159684
-0.15294
-0.145776
-0.138314
-0.130678
-0.122985
-0.115348
-0.107894
-0.100683
-0.0938232
-0.0873955
-0.0814698
-0.0761042
-0.0713471
-0.0672347
-0.0637929
-0.0610377
-0.0589749
-0.0576018
-0.0569067
-0.0568687
-0.0574566
-0.058654
-0.0604052
-0.0626705
-0.0654023
-0.0685497
-0.0720588
-0.0758719
-0.0799285
-0.0841656
-0.0885192
-0.0929257
-0.097324
-0.101656
-0.105867
-0.109905
-0.11372
-0.117265
-0.120495
-0.123369
-0.125848
-0.127898
-0.129481
-0.130566
-0.131121
0.415987
0.424082
0.440447
0.465067
0.497798
0.538267
0.585825
0.639528
0.698139
0.760248
0.824354
0.888659
0.951671
1.01189
1.06786
1.11819
1.16153
1.19662
1.22238
1.23791
1.24268
1.23638
1.2189
1.1904
1.15129
1.10229
1.04437
0.978775
0.907009
0.830642
0.751113
0.669702
0.587649
0.506141
0.42618
0.348547
0.273876
0.202735
0.137824
0.0772245
0.021615
-0.0286234
-0.0732286
-0.112024
-0.144907
-0.171825
-0.19278
-0.207828
-0.217072
-0.220658
-0.218777
-0.211671
-0.19963
-0.182978
-0.162071
-0.137311
-0.109135
-0.0780144
-0.0444497
-0.00896286
0.0278937
0.0655377
0.103383
0.140767
0.177177
0.212004
0.244652
0.274554
0.301168
0.323989
0.342571
0.356513
0.365476
0.3692
0.367497
0.360259
0.347452
0.329263
0.305773
0.277279
0.244156
0.20687
0.165977
0.122107
0.0759592
0.0282835
-0.0201176
-0.068412
-0.115775
-0.16139
-0.204465
-0.244249
-0.280062
-0.311316
-0.337505
-0.358244
-0.373262
-0.382413
-0.38573
-0.383491
-0.375753
-0.36284
-0.345199
-0.323374
-0.297966
-0.269646
-0.23911
-0.207063
-0.174215
-0.141267
-0.108892
-0.077687
-0.0481617
-0.0208135
0.00394658
0.0257863
0.0444517
0.0597671
0.0716358
0.0800387
0.0850253
0.086704
0.0852512
0.0808523
0.073768
0.0642758
0.0526763
0.0392857
0.0244304
0.00843764
-0.00836595
-0.0256628
-0.0431521
-0.0605556
-0.0776362
-0.0937528
-0.109435
-0.124082
-0.137558
-0.149736
-0.160511
-0.169806
-0.177572
-0.183781
-0.188431
-0.191545
-0.193168
-0.193387
-0.192247
-0.189844
-0.186284
-0.181681
-0.176158
-0.169844
-0.162871
-0.155372
-0.147482
-0.139331
-0.13105
-0.122764
-0.114592
-0.106653
-0.0990275
-0.0918152
-0.0850986
-0.0789462
-0.0734141
-0.068547
-0.0643772
-0.0609259
-0.0582043
-0.0562139
-0.054947
-0.0543867
-0.0545076
-0.0552748
-0.0566665
-0.0586243
-0.0611027
-0.0640517
-0.067418
-0.0711459
-0.0751755
-0.0794438
-0.083885
-0.0884319
-0.093018
-0.0975808
-0.102062
-0.106408
-0.110566
-0.114487
-0.118125
-0.121435
-0.124377
-0.126914
-0.12901
-0.13063
-0.131741
-0.13231
0.0450249
0.0623525
0.0973532
0.149672
0.218954
0.304213
0.40403
0.515889
0.636995
0.764209
0.894035
1.02295
1.14761
1.26491
1.37206
1.46667
1.54644
1.60969
1.65514
1.68175
1.68872
1.67559
1.64236
1.58952
1.51812
1.42987
1.3273
1.21384
1.09361
0.969674
0.84456
0.720513
0.599234
0.481992
0.369849
0.263728
0.164296
0.0715364
-0.0122725
-0.0876685
-0.154924
-0.2141
-0.265164
-0.308087
-0.342869
-0.369577
-0.388345
-0.39935
-0.402821
-0.399035
-0.388333
-0.371086
-0.347706
-0.318656
-0.284437
-0.245582
-0.202677
-0.156346
-0.107245
-0.0560633
-0.00351493
0.0496425
0.1026
0.154683
0.20508
0.25303
0.297795
0.338661
0.37495
0.406033
0.431356
0.450435
0.462867
0.46835
0.466683
0.457779
0.441626
0.418403
0.388387
0.351979
0.309697
0.262176
0.210177
0.154547
0.0962152
0.0361731
-0.0245271
-0.0847995
-0.143584
-0.199832
-0.252543
-0.30078
-0.34371
-0.380619
-0.410933
-0.434211
-0.450204
-0.458806
-0.460122
-0.454387
-0.441957
-0.423324
-0.399115
-0.370069
-0.336987
-0.300735
-0.262207
-0.222291
-0.181865
-0.141753
-0.102952
-0.0658046
-0.0311035
0.000622716
0.028942
0.0535203
0.0741189
0.0905962
0.102906
0.111086
0.115251
0.115581
0.112383
0.105867
0.0963728
0.0842636
0.0699131
0.0537058
0.0360297
0.0172636
-0.0022153
-0.0220508
-0.0419036
-0.0614458
-0.0803513
-0.0983834
-0.115483
-0.131362
-0.145844
-0.158797
-0.170124
-0.179762
-0.187673
-0.193848
-0.198301
-0.201068
-0.202202
-0.201884
-0.200106
-0.19699
-0.192666
-0.187267
-0.180933
-0.173807
-0.166032
-0.157753
-0.149115
-0.140256
-0.131315
-0.122425
-0.113712
-0.105287
-0.0972425
-0.089678
-0.0826756
-0.076302
-0.0706106
-0.0656418
-0.0614237
-0.057972
-0.0552933
-0.0533847
-0.0522331
-0.0518173
-0.0521067
-0.0530639
-0.0546548
-0.0568243
-0.0595211
-0.0626919
-0.0662813
-0.0702319
-0.0744821
-0.0789666
-0.0836161
-0.0883596
-0.0931276
-0.097856
-0.102487
-0.106967
-0.111245
-0.115273
-0.119004
-0.122393
-0.125402
-0.127995
-0.130139
-0.131797
-0.132935
-0.133518
-0.662103
-0.631687
-0.570287
-0.476851
-0.351023
-0.19175
0.00580377
0.218999
0.442745
0.671456
0.897541
1.11563
1.32086
1.50961
1.67899
1.83248
1.95678
2.05587
2.12805
2.17189
2.18623
2.17031
2.12378
2.04687
1.94047
1.80642
1.64753
1.47108
1.28582
1.1004
0.918285
0.741966
0.572817
0.412375
0.262037
0.123108
-0.00233443
-0.11338
-0.214772
-0.30481
-0.383164
-0.449904
-0.505277
-0.549604
-0.583226
-0.606509
-0.619813
-0.623512
-0.61801
-0.603739
-0.581167
-0.550788
-0.513149
-0.468841
-0.418498
-0.362798
-0.302485
-0.23834
-0.17119
-0.101893
-0.0313419
0.0394718
0.109688
0.178316
0.244399
0.306997
0.365201
0.418136
0.464971
0.504946
0.537396
0.561745
0.577519
0.584376
0.582098
0.570614
0.550043
0.520567
0.48259
0.436668
0.383499
0.323926
0.258944
0.189657
0.117266
0.0430393
-0.0316762
-0.105501
-0.177115
-0.245205
-0.30853
-0.365964
-0.416496
-0.459298
-0.493709
-0.519266
-0.535726
-0.543062
-0.541505
-0.53139
-0.51327
-0.487853
-0.455986
-0.418637
-0.376851
-0.331719
-0.284356
-0.235851
-0.187259
-0.139584
-0.0938334
-0.0505887
-0.0106292
0.0254693
0.05725
0.0843919
0.106691
0.124051
0.136488
0.144114
0.147127
0.145794
0.140517
0.131573
0.119393
0.104421
0.0871061
0.0679022
0.0472578
0.0256039
0.00336151
-0.0190746
-0.0413408
-0.0630753
-0.0837568
-0.103571
-0.122134
-0.139218
-0.154656
-0.168327
-0.180147
-0.190066
-0.198064
-0.204148
-0.208355
-0.21073
-0.211272
-0.210432
-0.20797
-0.204104
-0.198989
-0.192774
-0.185614
-0.177663
-0.169078
-0.160016
-0.150628
-0.141063
-0.131466
-0.121974
-0.112735
-0.103831
-0.0953764
-0.0874695
-0.0801922
-0.0736092
-0.0677701
-0.0627112
-0.0584548
-0.0550119
-0.0523844
-0.0505642
-0.0495341
-0.0492676
-0.0497299
-0.0508787
-0.0526721
-0.0550538
-0.0579684
-0.0613595
-0.0651699
-0.0693411
-0.0738103
-0.0785096
-0.0833661
-0.0883045
-0.0932517
-0.0981422
-0.102919
-0.107529
-0.111925
-0.116057
-0.119877
-0.123343
-0.126417
-0.129065
-0.131254
-0.13295
-0.134115
-0.134713
-1.5445
-1.49581
-1.39645
-1.24459
-1.03903
-0.78127
-0.481243
-0.116786
0.287111
0.704102
1.11388
1.50285
1.86112
2.18536
2.47132
2.71559
2.91515
3.06784
3.17217
3.22652
3.22952
3.18016
3.07768
2.92184
2.71373
2.45724
2.15674
1.83105
1.50858
1.20654
0.928174
0.675286
0.446588
0.239252
0.0502779
-0.122712
-0.264209
-0.387771
-0.496661
-0.591424
-0.672097
-0.738953
-0.792359
-0.832757
-0.860616
-0.876399
-0.880581
-0.873648
-0.8561
-0.828457
-0.79127
-0.745138
-0.690714
-0.628703
-0.559868
-0.485029
-0.405081
-0.320971
-0.233702
-0.144309
-0.0538797
0.0364287
0.125508
0.212178
0.29529
0.373719
0.446364
0.512174
0.570159
0.619416
0.659175
0.688751
0.707603
0.715358
0.711797
0.696897
0.670798
0.63382
0.586494
0.529551
0.463894
0.390606
0.310947
0.22631
0.138205
0.0482223
-0.0419742
-0.130682
-0.21628
-0.297173
-0.371868
-0.439007
-0.497416
-0.546147
-0.584471
-0.611908
-0.628242
-0.633471
-0.628274
-0.612862
-0.588068
-0.554857
-0.514348
-0.467771
-0.416422
-0.361656
-0.304806
-0.247176
-0.190014
-0.134533
-0.0816796
-0.0322762
0.0128996
0.0532344
0.0882707
0.117719
0.141424
0.159349
0.171586
0.178333
0.179884
0.176659
0.168973
0.157343
0.142266
0.124259
0.103842
0.0815382
0.057854
0.0332693
0.00824614
-0.0167897
-0.0414629
-0.065514
-0.0875777
-0.109249
-0.129239
-0.147462
-0.163786
-0.178104
-0.190348
-0.200484
-0.208509
-0.214452
-0.218373
-0.220364
-0.220616
-0.21889
-0.215677
-0.21104
-0.205124
-0.198091
-0.190106
-0.181337
-0.171953
-0.16212
-0.151999
-0.141744
-0.131507
-0.121427
-0.111689
-0.102321
-0.0934714
-0.0852386
-0.0777024
-0.0709254
-0.0649528
-0.0598162
-0.0555321
-0.0521064
-0.0495363
-0.0478091
-0.0469035
-0.046788
-0.0474232
-0.048762
-0.0507561
-0.0533465
-0.0564739
-0.0600794
-0.0641041
-0.0684893
-0.0731714
-0.0780802
-0.0831388
-0.0882668
-0.0933873
-0.0984331
-0.103348
-0.108084
-0.112591
-0.116823
-0.120729
-0.124267
-0.127402
-0.130101
-0.132334
-0.134066
-0.135258
-0.135871
-3.04582
-2.97536
-2.83132
-2.6103
-2.3126
-1.91913
-1.43375
-0.716648
0.190598
1.00202
1.63028
2.18368
2.65387
3.04797
3.37641
3.65058
3.8788
4.05396
4.17497
4.23727
4.2383
4.17773
4.05582
3.86784
3.59833
3.23995
2.71123
2.04004
1.49505
1.08844
0.747859
0.463118
0.216279
-0.00659837
-0.200524
-0.373225
-0.55202
-0.70268
-0.825029
-0.924323
-1.0042
-1.0669
-1.1139
-1.1462
-1.16454
-1.1695
-1.16161
-1.14138
-1.10934
-1.06607
-1.01215
-0.948256
-0.875123
-0.793553
-0.70443
-0.608712
-0.507449
-0.401748
-0.292784
-0.181798
-0.0700781
0.0410339
0.150198
0.256019
0.357135
0.452219
0.539983
0.619188
0.688675
0.747399
0.79446
0.829081
0.850655
0.858768
0.853169
0.834036
0.801428
0.75582
0.697908
0.628614
0.54908
0.460647
0.364873
0.263465
0.158271
0.0512326
-0.0555961
-0.16023
-0.260698
-0.355095
-0.441649
-0.518788
-0.585157
-0.639693
-0.681618
-0.710464
-0.726122
-0.728817
-0.718829
-0.697152
-0.664767
-0.622891
-0.57291
-0.516346
-0.454778
-0.389819
-0.32304
-0.25596
-0.189972
-0.126699
-0.0667298
-0.0112451
0.0389711
0.0833094
0.12133
0.15278
0.177566
0.19573
0.207449
0.21301
0.21279
0.20739
0.197142
0.182662
0.16455
0.143407
0.119823
0.0943842
0.0676533
0.0401559
0.0123921
-0.0151783
-0.0421265
-0.0680177
-0.0923262
-0.115388
-0.136654
-0.155919
-0.173045
-0.187933
-0.200531
-0.210821
-0.218818
-0.224574
-0.228163
-0.229696
-0.229314
-0.227014
-0.223089
-0.217689
-0.210982
-0.203143
-0.19435
-0.184785
-0.174626
-0.164047
-0.153218
-0.142301
-0.131449
-0.120797
-0.110606
-0.100786
-0.0915637
-0.0830257
-0.0752497
-0.0682957
-0.0622049
-0.0570032
-0.0527013
-0.0492999
-0.0467915
-0.0451597
-0.0443789
-0.044413
-0.0452184
-0.0467427
-0.0489322
-0.0517246
-0.0550568
-0.0588674
-0.0630968
-0.0676863
-0.0725723
-0.0776825
-0.0829355
-0.0882454
-0.0935308
-0.0987232
-0.103769
-0.108621
-0.113234
-0.117559
-0.121546
-0.125152
-0.128343
-0.13109
-0.133365
-0.135132
-0.13635
-0.136977
-5.28295
-5.19109
-4.99589
-4.67875
-4.20508
-3.56781
-2.79855
-1.86906
-0.370178
0.731637
1.59211
2.44371
3.19791
3.85811
4.42229
4.88553
5.24499
5.50393
5.66801
5.74003
5.71818
5.59565
5.36195
5.00826
4.53294
3.96762
3.23332
2.19396
1.50209
0.953913
0.453643
0.0457486
-0.285227
-0.545507
-0.751085
-0.907123
-1.02369
-1.12946
-1.22457
-1.30571
-1.37166
-1.42219
-1.4575
-1.47792
-1.48381
-1.47556
-1.45358
-1.41829
-1.37018
-1.3098
-1.23777
-1.15479
-1.06167
-0.959307
-0.848696
-0.730924
-0.607199
-0.478802
-0.347091
-0.2135
-0.0795524
0.0532288
0.183255
0.30892
0.428649
0.540891
0.64415
0.737
0.818113
0.886289
0.940505
0.979894
1.00379
1.01177
1.00364
0.979322
0.939283
0.884067
0.814523
0.731792
0.637252
0.532534
0.419507
0.300222
0.176879
0.0517691
-0.0724345
-0.193782
-0.309731
-0.418066
-0.516737
-0.603955
-0.678191
-0.738277
-0.783383
-0.813089
-0.827361
-0.82656
-0.811267
-0.782618
-0.741896
-0.690644
-0.630557
-0.563455
-0.491212
-0.415707
-0.338767
-0.262114
-0.187339
-0.116209
-0.0493227
0.0120208
0.0670088
0.115048
0.155728
0.188849
0.214391
0.232487
0.243403
0.247524
0.245248
0.237538
0.224575
0.207138
0.18592
0.161602
0.134847
0.106298
0.0765697
0.046227
0.0158032
-0.0142168
-0.0433684
-0.0710803
-0.0972598
-0.121755
-0.144212
-0.164425
-0.182265
-0.197647
-0.210531
-0.220918
-0.228842
-0.234372
-0.2376
-0.238652
-0.237672
-0.234753
-0.230128
-0.223983
-0.216505
-0.207885
-0.198313
-0.187983
-0.17708
-0.165789
-0.154287
-0.142742
-0.131313
-0.120149
-0.109466
-0.0992504
-0.089684
-0.0808638
-0.0728679
-0.0657547
-0.0595608
-0.0543061
-0.0499951
-0.0466235
-0.0441794
-0.0426434
-0.0419855
-0.0421658
-0.0431363
-0.044839
-0.0472164
-0.0502019
-0.0537288
-0.0577332
-0.0621552
-0.0669374
-0.0720163
-0.0773179
-0.0827561
-0.0882387
-0.0936792
-0.0990081
-0.104174
-0.109135
-0.113847
-0.11826
-0.122322
-0.12599
-0.129231
-0.132022
-0.134336
-0.136136
-0.13738
-0.138021
-7.93421
-7.91172
-7.84388
-7.81437
-7.68954
-7.70306
-7.6479
-7.53317
-0.234953
-0.339523
-0.426977
-0.49095
-0.642795
-0.820987
-0.995548
-1.15611
-1.29704
-1.43004
-1.53911
-1.62637
-1.69558
-1.74854
-1.78599
-1.80825
-1.81544
-1.8077
-1.78521
-1.74822
-1.69704
-1.6321
-1.55389
-1.46304
-1.3603
-1.24653
-1.1227
-0.989937
-0.849462
-0.702641
-0.550932
-0.395896
-0.239161
-0.0824549
0.0724502
0.223744
0.369588
0.50818
0.63775
0.756591
0.863099
0.955759
1.03321
1.09433
1.13813
1.1639
1.17118
1.15978
1.12978
1.08164
1.01605
0.934075
0.837084
0.726706
0.604872
0.473791
0.335863
0.193677
0.0499138
-0.0923729
-0.230826
-0.362557
-0.485004
-0.595843
-0.693047
-0.774912
-0.840181
-0.888008
-0.918008
-0.930273
-0.92534
-0.904082
-0.867812
-0.818176
-0.757024
-0.686386
-0.608397
-0.525223
-0.439025
-0.351873
-0.265699
-0.182345
-0.103436
-0.0299214
0.036973
0.0964085
0.147802
0.190794
0.225253
0.251245
0.268991
0.278866
0.281387
0.277248
0.266739
0.250926
0.230479
0.206143
0.178673
0.148796
0.11721
0.0845751
0.0514945
0.0185252
-0.0138367
-0.0451391
-0.0744517
-0.102356
-0.128215
-0.151768
-0.172838
-0.191309
-0.207111
-0.22022
-0.230654
-0.238466
-0.243742
-0.246593
-0.247156
-0.245597
-0.242053
-0.236744
-0.229878
-0.22166
-0.212291
-0.201978
-0.19092
-0.179313
-0.16735
-0.155215
-0.14308
-0.131111
-0.119465
-0.108329
-0.0977419
-0.0878574
-0.078778
-0.0705826
-0.0633275
-0.057045
-0.0517484
-0.0474357
-0.0440977
-0.0417192
-0.0402773
-0.0397388
-0.04006
-0.0411888
-0.0430616
-0.0456174
-0.0487855
-0.0524955
-0.0566812
-0.0612829
-0.0662446
-0.0715044
-0.0769863
-0.0825993
-0.0882444
-0.0938295
-0.0992843
-0.104561
-0.109621
-0.114424
-0.118919
-0.12305
-0.126775
-0.130062
-0.132893
-0.135242
-0.137074
-0.138343
-0.138998
-10.5827
-10.572
-10.5499
-10.5209
-10.4693
-10.4349
-10.375
-10.3126
-1.07448
-1.14218
-1.27579
-1.36951
-1.46797
-1.5486
-1.63226
-1.72324
-1.81971
-1.89748
-1.97068
-2.03338
-2.08463
-2.12262
-2.1464
-2.15539
-2.14928
-2.12786
-2.09108
-2.03901
-1.97187
-1.88997
-1.79381
-1.68401
-1.56134
-1.42672
-1.28125
-1.12614
-0.962766
-0.792663
-0.617468
-0.43894
-0.258918
-0.0793405
0.0977703
0.270372
0.436394
0.593802
0.740608
0.874902
0.994877
1.09884
1.18528
1.25295
1.30078
1.32799
1.33411
1.31898
1.28273
1.22593
1.14943
1.05447
0.942668
0.815924
0.676465
0.526847
0.369847
0.208435
0.0456949
-0.114951
-0.270662
-0.418233
-0.554749
-0.677616
-0.784558
-0.873714
-0.943739
-0.993797
-1.02356
-1.03325
-1.02366
-0.995869
-0.95151
-0.892543
-0.821149
-0.739708
-0.650673
-0.556516
-0.459657
-0.362398
-0.266883
-0.175248
-0.0888696
-0.00904182
0.0630485
0.126563
0.180951
0.225913
0.261399
0.287559
0.304712
0.313339
0.314061
0.30762
0.294578
0.275927
0.252482
0.225072
0.19452
0.161613
0.127102
0.0916875
0.0560031
0.0206293
-0.0139356
-0.0473767
-0.0779492
-0.107547
-0.134661
-0.159207
-0.181041
-0.200064
-0.216219
-0.229498
-0.239938
-0.24761
-0.252614
-0.25508
-0.255157
-0.253038
-0.24888
-0.242912
-0.235355
-0.226431
-0.216355
-0.205341
-0.193598
-0.181331
-0.168739
-0.156012
-0.143328
-0.130858
-0.118762
-0.107213
-0.0962802
-0.0861034
-0.0767874
-0.0684119
-0.0610316
-0.0546738
-0.0493449
-0.0450366
-0.0417348
-0.0394213
-0.0380709
-0.0376471
-0.0381024
-0.0393811
-0.0414148
-0.0441386
-0.0474781
-0.0513588
-0.0557127
-0.0604802
-0.065608
-0.0710359
-0.0766864
-0.0824634
-0.0882604
-0.0939792
-0.099549
-0.104925
-0.110077
-0.114964
-0.119534
-0.123729
-0.127504
-0.130834
-0.133699
-0.136081
-0.137944
-0.139237
-0.139905
-12.8805
-12.872
-12.8539
-12.8295
-12.7871
-12.7641
-12.7231
-12.7004
-1.59043
-1.645
-1.70562
-1.81207
-1.90895
-1.99473
-2.07959
-2.16224
-2.24056
-2.30874
-2.36736
-2.41928
-2.4573
-2.48279
-2.49445
-2.49132
-2.47277
-2.43837
-2.38788
-2.32123
-2.23852
-2.14003
-2.02621
-1.89771
-1.75534
-1.6001
-1.43318
-1.25591
-1.06983
-0.876625
-0.678135
-0.476308
-0.273214
-0.071
0.128066
0.321714
0.507628
0.683552
0.847276
0.996682
1.12977
1.24466
1.33971
1.41354
1.465
1.49325
1.4978
1.47854
1.43567
1.36985
1.2821
1.17386
1.04696
0.903602
0.74631
0.577991
0.40179
0.22107
0.0393265
-0.139639
-0.312524
-0.475768
-0.626125
-0.760719
-0.877025
-0.973059
-1.04739
-1.09919
-1.12822
-1.13484
-1.12016
-1.08546
-1.03269
-0.964137
-0.882345
-0.79003
-0.689978
-0.584949
-0.47762
-0.370499
-0.265889
-0.166462
-0.0729633
0.0128093
0.0897079
0.156915
0.213939
0.260549
0.296773
0.322857
0.339221
0.34645
0.345261
0.336485
0.32087
0.299412
0.273028
0.242627
0.209101
0.173292
0.135997
0.0979507
0.0598162
0.0221968
-0.0143847
-0.0494663
-0.0819758
-0.112777
-0.140997
-0.166431
-0.188944
-0.208444
-0.224891
-0.238295
-0.248707
-0.256217
-0.260941
-0.263023
-0.262622
-0.259967
-0.255218
-0.248618
-0.240407
-0.230819
-0.220077
-0.208407
-0.196025
-0.183144
-0.169968
-0.156693
-0.143501
-0.130568
-0.118057
-0.106132
-0.0948804
-0.0844362
-0.0749051
-0.0663679
-0.0588777
-0.0524566
-0.047104
-0.0428048
-0.0395403
-0.0372904
-0.0360276
-0.0357127
-0.0362946
-0.0377104
-0.0398987
-0.0427796
-0.0462786
-0.0503175
-0.0548263
-0.0597459
-0.0650261
-0.0706093
-0.0764165
-0.0823462
-0.0882845
-0.0941262
-0.0998001
-0.105267
-0.110501
-0.115465
-0.120104
-0.124357
-0.128179
-0.131544
-0.134442
-0.136854
-0.138745
-0.140061
-0.140742
-14.9487
-14.9437
-14.9336
-14.9206
-14.8993
-14.8891
-14.8701
-14.8631
-2.17056
-2.19217
-2.24404
-2.30148
-2.36787
-2.43422
-2.50198
-2.56928
-2.63313
-2.69028
-2.7391
-2.77812
-2.80766
-2.82357
-2.82512
-2.81141
-2.78169
-2.73536
-2.67206
-2.59161
-2.49404
-2.3796
-2.24872
-2.10207
-1.94053
-1.76518
-1.57729
-1.37836
-1.17006
-0.954246
-0.732951
-0.508329
-0.282673
-0.0583348
0.162169
0.376341
0.581628
0.77555
0.955682
1.1197
1.2654
1.39075
1.49396
1.57352
1.62822
1.65715
1.65982
1.63616
1.58643
1.51139
1.41225
1.29064
1.14863
0.988671
0.813619
0.62671
0.431456
0.231628
0.0311183
-0.165897
-0.355629
-0.534193
-0.698002
-0.843891
-0.969116
-1.07156
-1.14973
-1.20282
-1.2307
-1.23385
-1.21375
-1.17188
-1.11053
-1.03231
-0.940137
-0.837045
-0.726158
-0.610514
-0.493039
-0.376427
-0.262976
-0.156453
-0.0561328
0.0351679
0.116457
0.186981
0.246295
0.294251
0.330965
0.356773
0.372196
0.377926
0.374768
0.363665
0.345491
0.321288
0.29206
0.258787
0.222423
0.183863
0.143941
0.103427
0.0630074
0.0233042
-0.015139
-0.0518088
-0.0859544
-0.117924
-0.147139
-0.173367
-0.196476
-0.216388
-0.233076
-0.246566
-0.256923
-0.264257
-0.268699
-0.270406
-0.269541
-0.266376
-0.261062
-0.253866
-0.245041
-0.23483
-0.22347
-0.21119
-0.198216
-0.184766
-0.171051
-0.157272
-0.143613
-0.130254
-0.117363
-0.105095
-0.0935529
-0.0828652
-0.0731395
-0.0644577
-0.0568714
-0.0503977
-0.0450285
-0.0407418
-0.0375149
-0.0353261
-0.0341465
-0.0339341
-0.0346349
-0.0361827
-0.0385107
-0.0415373
-0.045184
-0.0493684
-0.054019
-0.0590772
-0.0644964
-0.0702222
-0.0761743
-0.0822458
-0.0883147
-0.0942686
-0.100037
-0.105584
-0.110892
-0.115926
-0.12063
-0.124936
-0.128798
-0.132196
-0.135122
-0.137561
-0.139478
-0.140816
-0.14151
-16.7964
-16.7934
-16.7876
-16.78
-16.7685
-16.763
-16.7521
-16.749
-2.60643
-2.61992
-2.66375
-2.70768
-2.76168
-2.81887
-2.87764
-2.93586
-2.99099
-3.04043
-3.08205
-3.11407
-3.13524
-3.14299
-3.13602
-3.11319
-3.07358
-3.01648
-2.9414
-2.84809
-2.73652
-2.60692
-2.45975
-2.29571
-2.11572
-1.92098
-1.71286
-1.49299
-1.26319
-1.02551
-0.782144
-0.535469
-0.28799
-0.0422667
0.198939
0.432906
0.656855
0.868086
1.06396
1.24196
1.39969
1.53497
1.64584
1.7307
1.78825
1.81756
1.81808
1.78987
1.73314
1.64888
1.5384
1.40353
1.2466
1.0703
0.877796
0.672652
0.458748
0.240236
0.0214196
-0.19316
-0.399237
-0.592613
-0.769357
-0.926014
-1.05965
-1.16801
-1.24955
-1.30353
-1.32993
-1.32944
-1.3036
-1.25441
-1.18443
-1.09663
-0.994216
-0.880589
-0.759179
-0.633299
-0.506109
-0.380504
-0.259065
-0.145036
-0.0387356
0.0576156
0.142878
0.216346
0.277636
0.326668
0.363657
0.389031
0.403409
0.407581
0.402441
0.38905
0.368373
0.341521
0.309571
0.273568
0.234523
0.193377
0.150999
0.108188
0.0656527