/*--------------------------------*- C++ -*----------------------------------*\
  =========                 |
  \\      /  F ield         | OpenFOAM: The Open Source CFD Toolbox
   \\    /   O peration     | Website:  https://openfoam.org
    \\  /    A nd           | Version:  12
     \\/     M anipulation  |
\*---------------------------------------------------------------------------*/
FoamFile
{
    format      ascii;
    class       volVectorField;
    location    "16.72";
    object      U;
}
// * * * * * * * * * * * * * * * * * * * * * * * * * * * * * * * * * * * * * //

dimensions      [0 1 -1 0 0 0 0];

internalField   nonuniform List<vector> 
3829
(
(9.06449e-06 -0.000603112 0)
(2.56301e-05 -0.000634518 0)
(4.42875e-05 -0.000634703 0)
(6.20502e-05 -0.000633769 0)
(8.07908e-05 -0.000632486 0)
(9.96534e-05 -0.000630794 0)
(0.000119012 -0.000628666 0)
(0.000138759 -0.000626056 0)
(0.000159019 -0.000622915 0)
(0.000179724 -0.000619194 0)
(0.000200944 -0.000614847 0)
(0.000222629 -0.000609817 0)
(0.000244719 -0.000604057 0)
(0.000267267 -0.000597506 0)
(0.000290182 -0.000590123 0)
(0.000313423 -0.000581858 0)
(0.000336896 -0.000572672 0)
(0.000360509 -0.000562525 0)
(0.000384165 -0.000551385 0)
(0.000407738 -0.000539229 0)
(0.000431065 -0.000526051 0)
(0.000454038 -0.000511839 0)
(0.000476451 -0.000496611 0)
(0.000498144 -0.000480397 0)
(0.000518909 -0.000463222 0)
(0.000538503 -0.000445147 0)
(0.000556795 -0.000426221 0)
(0.000573484 -0.000406561 0)
(0.000588525 -0.000386175 0)
(0.000601698 -0.000365244 0)
(0.00061255 -0.000343824 0)
(0.000621175 -0.000322023 0)
(0.000627027 -0.000299968 0)
(0.000630392 -0.000277701 0)
(0.000631237 -0.000255365 0)
(0.000629166 -0.000233121 0)
(0.000624504 -0.000211179 0)
(0.000617051 -0.000189711 0)
(0.000606838 -0.00016884 0)
(0.000593897 -0.000148693 0)
(0.00057832 -0.000129382 0)
(0.0005602 -0.000110987 0)
(0.000539677 -9.35643e-05 0)
(0.000516909 -7.71946e-05 0)
(0.000492106 -6.1943e-05 0)
(0.000465483 -4.78662e-05 0)
(0.000437228 -3.50186e-05 0)
(0.000407679 -2.34207e-05 0)
(0.000377077 -1.31267e-05 0)
(0.000345724 -4.11822e-06 0)
(0.000313892 3.54908e-06 0)
(0.000281778 9.94388e-06 0)
(0.000249839 1.50557e-05 0)
(0.000218652 1.89099e-05 0)
(0.00018821 2.15026e-05 0)
(0.000158656 2.29949e-05 0)
(0.00013069 2.33374e-05 0)
(0.000104518 2.26502e-05 0)
(8.0059e-05 2.09827e-05 0)
(5.81262e-05 1.85455e-05 0)
(3.89294e-05 1.52322e-05 0)
(2.21731e-05 1.12975e-05 0)
(8.5775e-06 6.83602e-06 0)
(-1.62549e-06 1.87054e-06 0)
(-8.78857e-06 -3.44549e-06 0)
(-1.27309e-05 -8.987e-06 0)
(-1.34001e-05 -1.46132e-05 0)
(-1.05994e-05 -2.01757e-05 0)
(-3.92171e-06 -2.56491e-05 0)
(6.0784e-06 -3.08977e-05 0)
(1.90545e-05 -3.5862e-05 0)
(3.46841e-05 -4.03306e-05 0)
(5.28227e-05 -4.41421e-05 0)
(7.32294e-05 -4.72854e-05 0)
(9.53949e-05 -4.96367e-05 0)
(0.000118809 -5.11173e-05 0)
(0.000143739 -5.16783e-05 0)
(0.00016876 -5.13298e-05 0)
(0.000193684 -4.99127e-05 0)
(0.000218481 -4.75291e-05 0)
(0.000241772 -4.41792e-05 0)
(0.000263459 -3.98175e-05 0)
(0.000282897 -3.45569e-05 0)
(0.00029944 -2.84523e-05 0)
(0.000312773 -2.15702e-05 0)
(0.000322343 -1.41202e-05 0)
(0.000327575 -6.0848e-06 0)
(0.00032822 2.2393e-06 0)
(0.000323551 1.07557e-05 0)
(0.000313571 1.93073e-05 0)
(0.00029841 2.76766e-05 0)
(0.000278175 3.57087e-05 0)
(0.000253139 4.31829e-05 0)
(0.000223591 4.99108e-05 0)
(0.000189999 5.57017e-05 0)
(0.000152863 6.03812e-05 0)
(0.000112862 6.37803e-05 0)
(7.08269e-05 6.57689e-05 0)
(2.76854e-05 6.62407e-05 0)
(-1.56909e-05 6.51312e-05 0)
(-5.81407e-05 6.24485e-05 0)
(-9.86012e-05 5.81472e-05 0)
(-0.000135985 5.23681e-05 0)
(-0.000169194 4.5157e-05 0)
(-0.000197303 3.67291e-05 0)
(-0.000219301 2.72309e-05 0)
(-0.000234581 1.69529e-05 0)
(-0.000242446 6.19302e-06 0)
(-0.00024225 -4.77816e-06 0)
(-0.000233415 -1.55278e-05 0)
(-0.000216472 -2.58802e-05 0)
(-0.000192094 -3.53187e-05 0)
(-0.000160832 -4.36588e-05 0)
(-0.000123544 -5.04034e-05 0)
(-8.1485e-05 -5.5507e-05 0)
(-3.59114e-05 -5.84374e-05 0)
(1.18871e-05 -5.93603e-05 0)
(5.9783e-05 -5.78752e-05 0)
(0.000105729 -5.43622e-05 0)
(0.000148064 -4.86037e-05 0)
(0.000185274 -4.09076e-05 0)
(0.000215421 -3.16748e-05 0)
(0.000237309 -2.09954e-05 0)
(0.000250024 -9.60129e-06 0)
(0.000252251 2.11258e-06 0)
(0.000243735 1.37007e-05 0)
(0.000225 2.4427e-05 0)
(0.000196926 3.39795e-05 0)
(0.000160942 4.16882e-05 0)
(0.000118578 4.72177e-05 0)
(7.19796e-05 5.02074e-05 0)
(2.35059e-05 5.0523e-05 0)
(-2.42245e-05 4.79575e-05 0)
(-6.82716e-05 4.26991e-05 0)
(-0.000106177 3.51241e-05 0)
(-0.000135821 2.54584e-05 0)
(-0.000155288 1.45248e-05 0)
(-0.000163372 2.76164e-06 0)
(-0.000158973 -8.76305e-06 0)
(-0.000142263 -1.97374e-05 0)
(-0.000114894 -2.89366e-05 0)
(-7.87693e-05 -3.60798e-05 0)
(-3.63784e-05 -4.03009e-05 0)
(9.95979e-06 -4.15877e-05 0)
(5.5772e-05 -3.93274e-05 0)
(9.68602e-05 -3.40913e-05 0)
(0.000130633 -2.59226e-05 0)
(0.000153997 -1.57992e-05 0)
(0.000164907 -4.19533e-06 0)
(0.000161652 7.60034e-06 0)
(0.000144021 1.87786e-05 0)
(0.000113995 2.82977e-05 0)
(7.39854e-05 3.52236e-05 0)
(2.73654e-05 3.89005e-05 0)
(-2.2547e-05 3.86825e-05 0)
(-6.99754e-05 3.47459e-05 0)
(-0.000109333 2.73746e-05 0)
(-0.000137649 1.72437e-05 0)
(-0.000151659 5.39367e-06 0)
(-0.000149212 -7.05035e-06 0)
(-0.000130105 -1.86628e-05 0)
(-9.65908e-05 -2.83159e-05 0)
(-5.20718e-05 -3.48412e-05 0)
(-4.46143e-08 -3.74398e-05 0)
(5.25426e-05 -3.55876e-05 0)
(9.86652e-05 -2.95979e-05 0)
(0.000133846 -2.0157e-05 0)
(0.000153774 -8.36859e-06 0)
(0.000155383 4.33804e-06 0)
(0.00013812 1.63014e-05 0)
(0.000104544 2.61745e-05 0)
(5.87783e-05 3.24957e-05 0)
(5.54423e-06 3.45322e-05 0)
(-4.70849e-05 3.17616e-05 0)
(-9.10975e-05 2.47858e-05 0)
(-0.000121608 1.46655e-05 0)
(-0.000134544 2.87889e-06 0)
(-0.000127981 -8.75284e-06 0)
(-0.000103411 -1.8552e-05 0)
(-6.55239e-05 -2.5015e-05 0)
(-1.99315e-05 -2.71949e-05 0)
(2.5363e-05 -2.46744e-05 0)
(6.2268e-05 -1.82504e-05 0)
(8.53814e-05 -9.21977e-06 0)
(9.13327e-05 7.44521e-07 0)
(8.00532e-05 9.6089e-06 0)
(5.51021e-05 1.57448e-05 0)
(2.25776e-05 1.78967e-05 0)
(-1.00173e-05 1.55991e-05 0)
(-3.44878e-05 9.52771e-06 0)
(-4.44197e-05 1.13476e-06 0)
(-3.75868e-05 -7.63492e-06 0)
(-1.48547e-05 -1.45777e-05 0)
(1.99985e-05 -1.82361e-05 0)
(5.72101e-05 -1.69661e-05 0)
(8.65986e-05 -1.12458e-05 0)
(0.000100952 -2.16544e-06 0)
(9.47404e-05 8.13498e-06 0)
(6.75941e-05 1.71359e-05 0)
(2.45407e-05 2.23982e-05 0)
(1.05028e-05 0.0002267 0)
(3.35489e-05 0.00024903 0)
(5.71053e-05 0.000247481 0)
(8.12646e-05 0.000244467 0)
(0.00010615 0.000240429 0)
(0.000131903 0.000235435 0)
(0.000158618 0.000229547 0)
(0.000186371 0.000222838 0)
(0.000215291 0.000215399 0)
(0.000245257 0.000207342 0)
(0.000276377 0.000198804 0)
(0.000308581 0.000189933 0)
(0.000341833 0.000180876 0)
(0.000376111 0.000171828 0)
(0.000411213 0.000162945 0)
(0.000447062 0.00015441 0)
(0.000483469 0.000146435 0)
(0.000520276 0.000139245 0)
(0.000557249 0.00013302 0)
(0.000594054 0.000127978 0)
(0.000630438 0.00012428 0)
(0.000666129 0.000122098 0)
(0.000700612 0.000121543 0)
(0.000733701 0.000122698 0)
(0.000764988 0.000125629 0)
(0.000794074 0.00013036 0)
(0.000820479 0.00013688 0)
(0.000844205 0.000145124 0)
(0.000864832 0.000154957 0)
(0.000881836 0.0001663 0)
(0.000895285 0.000178917 0)
(0.000904849 0.000192544 0)
(0.000910457 0.000206998 0)
(0.000912314 0.000221866 0)
(0.00090966 0.000236798 0)
(0.000901783 0.000251712 0)
(0.000889029 0.00026642 0)
(0.000871845 0.000280682 0)
(0.00085064 0.000294292 0)
(0.000825575 0.000307038 0)
(0.000797047 0.000318689 0)
(0.000765488 0.000329056 0)
(0.000731057 0.000337896 0)
(0.000693872 0.000345068 0)
(0.000654295 0.000350403 0)
(0.000612616 0.000353793 0)
(0.000569227 0.000355146 0)
(0.000524481 0.000354366 0)
(0.000478821 0.000351403 0)
(0.000432558 0.000346253 0)
(0.000386203 0.000338883 0)
(0.0003402 0.000329366 0)
(0.00029475 0.000317584 0)
(0.000250471 0.000303891 0)
(0.000207995 0.000288021 0)
(0.000167244 0.000270429 0)
(0.000128662 0.000250948 0)
(9.29357e-05 0.000230052 0)
(6.03586e-05 0.000207528 0)
(3.10009e-05 0.000184022 0)
(5.21877e-06 0.000159282 0)
(-1.63681e-05 0.000133932 0)
(-3.41523e-05 0.000107965 0)
(-4.76628e-05 8.17817e-05 0)
(-5.68236e-05 5.5484e-05 0)
(-6.15576e-05 2.95356e-05 0)
(-6.17429e-05 4.18103e-06 0)
(-5.77094e-05 -2.01271e-05 0)
(-4.91604e-05 -4.32415e-05 0)
(-3.65173e-05 -6.48902e-05 0)
(-1.98273e-05 -8.47789e-05 0)
(9.38596e-07 -0.000102561 0)
(2.47965e-05 -0.000117984 0)
(5.1334e-05 -0.000130873 0)
(8.02876e-05 -0.000140787 0)
(0.00011083 -0.000147736 0)
(0.000142875 -0.000151378 0)
(0.000175412 -0.000151929 0)
(0.000207896 -0.000148965 0)
(0.000239698 -0.000142803 0)
(0.000269993 -0.000133201 0)
(0.000298281 -0.000120559 0)
(0.000323563 -0.000104843 0)
(0.000345381 -8.64439e-05 0)
(0.000362897 -6.54934e-05 0)
(0.000375874 -4.26324e-05 0)
(0.000383487 -1.79832e-05 0)
(0.000385118 7.71769e-06 0)
(0.000380555 3.41204e-05 0)
(0.000369434 6.05516e-05 0)
(0.000351934 8.65372e-05 0)
(0.000328199 0.000111372 0)
(0.000298431 0.000134548 0)
(0.000263054 0.000155343 0)
(0.000222626 0.00017323 0)
(0.000177748 0.000187653 0)
(0.000129267 0.000198075 0)
(7.82318e-05 0.000204117 0)
(2.57854e-05 0.000205466 0)
(-2.685e-05 0.000201896 0)
(-7.84529e-05 0.000193378 0)
(-0.000127583 0.000179954 0)
(-0.000172903 0.000161827 0)
(-0.00021313 0.000139338 0)
(-0.000247085 0.000113008 0)
(-0.000273595 8.34968e-05 0)
(-0.000291678 5.15113e-05 0)
(-0.000300747 1.80124e-05 0)
(-0.000299859 -1.60767e-05 0)
(-0.000288738 -4.95583e-05 0)
(-0.000267769 -8.15596e-05 0)
(-0.000237651 -0.000110896 0)
(-0.000199053 -0.000136516 0)
(-0.000153229 -0.000157496 0)
(-0.000101404 -0.000172877 0)
(-4.53765e-05 -0.000182047 0)
(1.31962e-05 -0.0001844 0)
(7.16793e-05 -0.000179905 0)
(0.000127578 -0.00016838 0)
(0.000179428 -0.000150291 0)
(0.000224299 -0.000126247 0)
(0.000260805 -9.70448e-05 0)
(0.000287052 -6.39736e-05 0)
(0.000301504 -2.8365e-05 0)
(0.000303572 8.15569e-06 0)
(0.000292324 4.38948e-05 0)
(0.00026865 7.74338e-05 0)
(0.000233662 0.000106756 0)
(0.000188797 0.000130686 0)
(0.000136304 0.000147545 0)
(7.8789e-05 0.0001567 0)
(1.89529e-05 0.00015714 0)
(-3.99199e-05 0.00014888 0)
(-9.37354e-05 0.000132346 0)
(-0.000139996 0.000108256 0)
(-0.000175775 7.8165e-05 0)
(-0.00019881 4.37051e-05 0)
(-0.000207524 7.17791e-06 0)
(-0.000201139 -2.91905e-05 0)
(-0.00017965 -6.28745e-05 0)
(-0.000144841 -9.18301e-05 0)
(-9.93709e-05 -0.000113585 0)
(-4.62662e-05 -0.000126815 0)
(1.16402e-05 -0.00013008 0)
(6.88402e-05 -0.000123068 0)
(0.000119986 -0.000106061 0)
(0.000161849 -8.06505e-05 0)
(0.00019066 -4.85378e-05 0)
(0.000203949 -1.2458e-05 0)
(0.00019955 2.46391e-05 0)
(0.000177781 5.95255e-05 0)
(0.000140519 8.90918e-05 0)
(9.0902e-05 0.000110604 0)
(3.28418e-05 0.000121718 0)
(-2.89882e-05 0.000120889 0)
(-8.73543e-05 0.000108305 0)
(-0.00013594 8.50888e-05 0)
(-0.000170693 5.32934e-05 0)
(-0.000187771 1.61537e-05 0)
(-0.000184569 -2.26018e-05 0)
(-0.000161011 -5.88872e-05 0)
(-0.000119846 -8.87707e-05 0)
(-6.50532e-05 -0.000108916 0)
(-1.12774e-06 -0.000116685 0)
(6.33848e-05 -0.00011067 0)
(0.00011979 -9.17735e-05 0)
(0.000162594 -6.22393e-05 0)
(0.000186577 -2.55115e-05 0)
(0.000188052 1.39808e-05 0)
(0.000166713 5.1222e-05 0)
(0.000125519 8.16274e-05 0)
(6.94949e-05 0.000101062 0)
(4.64732e-06 0.000106978 0)
(-5.92373e-05 9.80039e-05 0)
(-0.000112196 7.61179e-05 0)
(-0.000148348 4.44618e-05 0)
(-0.000162813 7.7742e-06 0)
(-0.000153563 -2.82826e-05 0)
(-0.000122612 -5.84917e-05 0)
(-7.56283e-05 -7.81773e-05 0)
(-1.95696e-05 -8.45487e-05 0)
(3.55274e-05 -7.62371e-05 0)
(7.96548e-05 -5.59624e-05 0)
(0.000106519 -2.74933e-05 0)
(0.000112056 3.51268e-06 0)
(9.63836e-05 3.11665e-05 0)
(6.40353e-05 5.00716e-05 0)
(2.2448e-05 5.66892e-05 0)
(-1.87882e-05 4.90148e-05 0)
(-4.94962e-05 2.99491e-05 0)
(-6.20362e-05 3.54873e-06 0)
(-5.35411e-05 -2.39823e-05 0)
(-2.55072e-05 -4.58641e-05 0)
(1.76025e-05 -5.70128e-05 0)
(6.4036e-05 -5.32109e-05 0)
(0.000100919 -3.54416e-05 0)
(0.000119505 -7.25321e-06 0)
(0.000113019 2.47995e-05 0)
(8.09611e-05 5.27131e-05 0)
(2.94364e-05 6.90761e-05 0)
(7.56788e-07 -0.000881044 0)
(3.30685e-06 -0.00092477 0)
(6.43042e-06 -0.000930102 0)
(1.03493e-05 -0.000936531 0)
(1.55066e-05 -0.00094466 0)
(2.20945e-05 -0.000954328 0)
(3.05391e-05 -0.000964921 0)
(4.09045e-05 -0.000976166 0)
(5.3581e-05 -0.000987197 0)
(6.87532e-05 -0.000997698 0)
(8.6675e-05 -0.00100707 0)
(0.000107294 -0.00101499 0)
(0.00013081 -0.00102095 0)
(0.000157213 -0.00102457 0)
(0.000186277 -0.00102535 0)
(0.000218277 -0.00102281 0)
(0.00025332 -0.00101656 0)
(0.000290998 -0.00100623 0)
(0.000331064 -0.000991426 0)
(0.000373183 -0.00097188 0)
(0.000416789 -0.000947259 0)
(0.000461391 -0.000917501 0)
(0.00050615 -0.000882422 0)
(0.000550566 -0.000842101 0)
(0.000594047 -0.000796496 0)
(0.000635857 -0.000746074 0)
(0.000675299 -0.000690841 0)
(0.000711404 -0.000631659 0)
(0.000744026 -0.000568713 0)
(0.000772426 -0.000502921 0)
(0.000795222 -0.000434694 0)
(0.00081287 -0.000365029 0)
(0.000824178 -0.000294416 0)
(0.000828612 -0.000223533 0)
(0.000828023 -0.000153235 0)
(0.000822949 -8.4399e-05 0)
(0.000812803 -1.75552e-05 0)
(0.000797315 4.65971e-05 0)
(0.000776665 0.000107601 0)
(0.000750837 0.000164936 0)
(0.000720173 0.000218154 0)
(0.000684881 0.000266899 0)
(0.000645461 0.000310806 0)
(0.000602515 0.000349625 0)
(0.000556505 0.000383161 0)
(0.000508088 0.000411252 0)
(0.000457561 0.000433829 0)
(0.000405503 0.000450864 0)
(0.000352626 0.000462338 0)
(0.000299319 0.000468333 0)
(0.000246216 0.000468942 0)
(0.000193189 0.000464294 0)
(0.000141875 0.000454538 0)
(9.22196e-05 0.000440047 0)
(4.46319e-05 0.000420859 0)
(-2.95365e-07 0.000397492 0)
(-4.19457e-05 0.000370041 0)
(-8.02163e-05 0.00033914 0)
(-0.000114541 0.00030492 0)
(-0.000144334 0.000267884 0)
(-0.000169627 0.000228509 0)
(-0.000189602 0.000187248 0)
(-0.000204695 0.000144622 0)
(-0.000214243 0.00010117 0)
(-0.000218374 5.74526e-05 0)
(-0.000216434 1.40558e-05 0)
(-0.000208522 -2.84821e-05 0)
(-0.000194968 -6.96414e-05 0)
(-0.000176131 -0.000108805 0)
(-0.000152047 -0.000145439 0)
(-0.000122796 -0.000178867 0)
(-8.89208e-05 -0.00020885 0)
(-5.13386e-05 -0.000234611 0)
(-9.67776e-06 -0.000255831 0)
(3.48655e-05 -0.000272072 0)
(8.13361e-05 -0.000282905 0)
(0.00012926 -0.000288112 0)
(0.000177504 -0.000287468 0)
(0.000225511 -0.000280942 0)
(0.000272555 -0.000268587 0)
(0.0003171 -0.000250269 0)
(0.00035833 -0.000226515 0)
(0.000395663 -0.000197353 0)
(0.000427986 -0.000163412 0)
(0.00045421 -0.000125128 0)
(0.000473934 -8.31685e-05 0)
(0.000486383 -3.84061e-05 0)
(0.000490649 8.37688e-06 0)
(0.000486363 5.62058e-05 0)
(0.000473233 0.000104126 0)
(0.000451426 0.000151054 0)
(0.000421079 0.00019592 0)
(0.000382521 0.000237629 0)
(0.000336103 0.000275066 0)
(0.0002829 0.000307167 0)
(0.000223488 0.000332933 0)
(0.000159128 0.000351615 0)
(9.136e-05 0.00036234 0)
(2.15917e-05 0.000364749 0)
(-4.84894e-05 0.000358275 0)
(-0.00011701 0.000342954 0)
(-0.00018228 0.000318879 0)
(-0.00024247 0.000286284 0)
(-0.000295719 0.000246058 0)
(-0.000340376 0.000198875 0)
(-0.000375075 0.000146063 0)
(-0.000398552 8.8915e-05 0)
(-0.000409749 2.91091e-05 0)
(-0.000407599 -3.16108e-05 0)
(-0.000391835 -9.12948e-05 0)
(-0.000363182 -0.000148247 0)
(-0.000322069 -0.000200278 0)
(-0.000269803 -0.000245715 0)
(-0.000207664 -0.000282614 0)
(-0.000137695 -0.000309535 0)
(-6.20937e-05 -0.000325392 0)
(1.64772e-05 -0.000329062 0)
(9.48998e-05 -0.000320386 0)
(0.000170036 -0.000299299 0)
(0.000238637 -0.000266517 0)
(0.000298443 -0.000223045 0)
(0.000346325 -0.000170573 0)
(0.000380077 -0.000111179 0)
(0.000398232 -4.73989e-05 0)
(0.000399083 1.81627e-05 0)
(0.0003829 8.19899e-05 0)
(0.000349847 0.000141836 0)
(0.000301507 0.000193937 0)
(0.000240147 0.000236118 0)
(0.000168544 0.000265801 0)
(9.02681e-05 0.000281179 0)
(8.95634e-06 0.000281298 0)
(-7.0088e-05 0.000265789 0)
(-0.000142584 0.000235324 0)
(-0.000204198 0.000191565 0)
(-0.000251292 0.000137212 0)
(-0.000280852 7.49101e-05 0)
(-0.000290843 9.0137e-06 0)
(-0.000280108 -5.61543e-05 0)
(-0.000249373 -0.000116581 0)
(-0.00020065 -0.000167989 0)
(-0.000137312 -0.000206781 0)
(-6.37636e-05 -0.000229738 0)
(1.59024e-05 -0.000235202 0)
(9.43398e-05 -0.000221816 0)
(0.00016432 -0.000190839 0)
(0.000221142 -0.000144541 0)
(0.000260109 -8.62615e-05 0)
(0.000277511 -2.1196e-05 0)
(0.000271166 4.57145e-05 0)
(0.000241001 0.000108316 0)
(0.00019 0.000161292 0)
(0.000122029 0.000199475 0)
(4.24146e-05 0.000219137 0)
(-4.17087e-05 0.000217008 0)
(-0.000120703 0.000194111 0)
(-0.000186457 0.000151994 0)
(-0.000233225 9.46995e-05 0)
(-0.000255723 2.78432e-05 0)
(-0.000250958 -4.15784e-05 0)
(-0.000218832 -0.000106518 0)
(-0.000162958 -0.000159667 0)
(-8.87483e-05 -0.000195221 0)
(-2.45656e-06 -0.000208648 0)
(8.42844e-05 -0.000197332 0)
(0.000159805 -0.000163189 0)
(0.000216607 -0.000109987 0)
(0.000247933 -4.40529e-05 0)
(0.000249124 2.64601e-05 0)
(0.000219853 9.27716e-05 0)
(0.000164123 0.000146423 0)
(8.88002e-05 0.000180423 0)
(2.10435e-06 0.00019012 0)
(-8.25588e-05 0.000173329 0)
(-0.000152039 0.000133552 0)
(-0.000198561 7.66316e-05 0)
(-0.000215561 1.11192e-05 0)
(-0.000200978 -5.30128e-05 0)
(-0.000157797 -0.000106219 0)
(-9.36698e-05 -0.000140462 0)
(-1.79985e-05 -0.000150641 0)
(5.52982e-05 -0.000134825 0)
(0.000112827 -9.76031e-05 0)
(0.000146424 -4.61508e-05 0)
(0.000150891 9.63454e-06 0)
(0.000126822 5.89573e-05 0)
(8.04941e-05 9.24264e-05 0)
(2.16423e-05 0.000103505 0)
(-3.58442e-05 8.91106e-05 0)
(-7.79892e-05 5.42869e-05 0)
(-9.54681e-05 6.43656e-06 0)
(-8.38535e-05 -4.32688e-05 0)
(-4.54754e-05 -8.29252e-05 0)
(1.31962e-05 -0.000102812 0)
(7.66466e-05 -9.62668e-05 0)
(0.000127623 -6.46566e-05 0)
(0.000154154 -1.43875e-05 0)
(0.000147133 4.27944e-05 0)
(0.000105878 9.26144e-05 0)
(3.85852e-05 0.000121822 0)
(-7.31956e-06 0.000104377 0)
(-1.76328e-05 0.00010976 0)
(-2.60198e-05 9.92283e-05 0)
(-3.072e-05 8.27173e-05 0)
(-3.09714e-05 6.14479e-05 0)
(-2.48412e-05 3.48564e-05 0)
(-1.17022e-05 4.80236e-06 0)
(1.03112e-05 -3.04151e-05 0)
(4.17304e-05 -6.79072e-05 0)
(8.05782e-05 -0.000109952 0)
(0.000126969 -0.000154632 0)
(0.000180009 -0.000202038 0)
(0.000239895 -0.000250314 0)
(0.000306303 -0.00029851 0)
(0.000379266 -0.000344757 0)
(0.000457987 -0.000387933 0)
(0.000541506 -0.000426235 0)
(0.00062937 -0.00045922 0)
(0.000720421 -0.000484223 0)
(0.00081378 -0.000501386 0)
(0.000908024 -0.000509483 0)
(0.001002 -0.000508304 0)
(0.00109426 -0.000496896 0)
(0.00118375 -0.000475777 0)
(0.00126793 -0.00044413 0)
(0.00134608 -0.0004032 0)
(0.00141579 -0.00035269 0)
(0.00147605 -0.000294472 0)
(0.00152634 -0.000228239 0)
(0.00156521 -0.000156478 0)
(0.00159224 -7.9488e-05 0)
(0.00160695 5.11306e-08 0)
(0.00161096 8.11686e-05 0)
(0.00160288 0.000161875 0)
(0.00158145 0.000241455 0)
(0.00154814 0.0003187 0)
(0.00150458 0.000392719 0)
(0.00145187 0.000462497 0)
(0.00139145 0.000527385 0)
(0.00132368 0.000586787 0)
(0.00124972 0.000640219 0)
(0.00117036 0.000687322 0)
(0.00108636 0.000727834 0)
(0.000998662 0.000761483 0)
(0.000908081 0.000788217 0)
(0.000815495 0.000807786 0)
(0.000721868 0.000820286 0)
(0.000627786 0.000825696 0)
(0.000534148 0.000824018 0)
(0.00044173 0.00081537 0)
(0.000351183 0.000799994 0)
(0.000263067 0.000778023 0)
(0.000178656 0.000749827 0)
(9.7979e-05 0.000715522 0)
(2.21269e-05 0.000675423 0)
(-4.87711e-05 0.000630085 0)
(-0.000113934 0.000579782 0)
(-0.000172676 0.000524909 0)
(-0.000225274 0.000466304 0)
(-0.00027042 0.000404047 0)
(-0.000308117 0.000339267 0)
(-0.000337719 0.000272157 0)
(-0.000359419 0.000203671 0)
(-0.00037274 0.000134499 0)
(-0.000377564 6.55335e-05 0)
(-0.000373967 -2.53051e-06 0)
(-0.000362202 -6.8865e-05 0)
(-0.000342478 -0.000132606 0)
(-0.000314696 -0.000193052 0)
(-0.000279105 -0.000249156 0)
(-0.000236816 -0.000300317 0)
(-0.000187712 -0.000345662 0)
(-0.000132583 -0.00038458 0)
(-7.28864e-05 -0.000416112 0)
(-8.75812e-06 -0.000440046 0)
(5.81993e-05 -0.000455578 0)
(0.0001272 -0.000462473 0)
(0.00019665 -0.000460377 0)
(0.000265154 -0.000449145 0)
(0.000332372 -0.000428822 0)
(0.000396068 -0.000399641 0)
(0.000455283 -0.000361695 0)
(0.000508861 -0.000315795 0)
(0.000555205 -0.000262416 0)
(0.00059343 -0.000202559 0)
(0.000622229 -0.000137135 0)
(0.000640661 -6.75093e-05 0)
(0.000647928 5.22095e-06 0)
(0.000643502 7.95426e-05 0)
(0.000626936 0.0001538 0)
(0.000598295 0.000226544 0)
(0.000557908 0.000296064 0)
(0.000506036 0.00036045 0)
(0.000443347 0.000418238 0)
(0.000370953 0.000467726 0)
(0.000290355 0.000507414 0)
(0.000202886 0.000535993 0)
(0.000110685 0.00055253 0)
(1.57429e-05 0.000556028 0)
(-7.97035e-05 0.000546024 0)
(-0.000172835 0.000522267 0)
(-0.000261738 0.000485135 0)
(-0.000343312 0.00043503 0)
(-0.000415318 0.000373022 0)
(-0.000475712 0.000300543 0)
(-0.00052214 0.000219341 0)
(-0.000553024 0.0001316 0)
(-0.000567005 4.00475e-05 0)
(-0.000562821 -5.28123e-05 0)
(-0.000540547 -0.00014417 0)
(-0.000500407 -0.000231087 0)
(-0.000443362 -0.000310444 0)
(-0.000370911 -0.000379467 0)
(-0.000285009 -0.000435464 0)
(-0.000188842 -0.000475978 0)
(-8.50233e-05 -0.00049932 0)
(2.2793e-05 -0.000504266 0)
(0.000129858 -0.000489771 0)
(0.000231999 -0.000456494 0)
(0.000325623 -0.000405312 0)
(0.00040627 -0.000337879 0)
(0.000470608 -0.000256774 0)
(0.000515441 -0.000165073 0)
(0.000538618 -6.68606e-05 0)
(0.00053807 3.35798e-05 0)
(0.000513949 0.000131912 0)
(0.000466999 0.00022282 0)
(0.000398839 0.000302713 0)
(0.000313301 0.00036631 0)
(0.000213543 0.000411081 0)
(0.000105144 0.000433372 0)
(-6.67027e-06 0.000432536 0)
(-0.000115765 0.000407299 0)
(-0.000214904 0.000359295 0)
(-0.000298388 0.0002913 0)
(-0.000361971 0.000206189 0)
(-0.000401122 0.000110201 0)
(-0.00041206 8.21743e-06 0)
(-0.000394918 -9.23211e-05 0)
(-0.000350288 -0.000185376 0)
(-0.000280975 -0.000264401 0)
(-0.000191588 -0.000323331 0)
(-8.83647e-05 -0.000358138 0)
(2.29051e-05 -0.000365043 0)
(0.000132401 -0.000343464 0)
(0.000229638 -0.00029439 0)
(0.000308625 -0.000222205 0)
(0.000361896 -0.000131625 0)
(0.000385115 -3.03997e-05 0)
(0.000375368 7.29671e-05 0)
(0.000332922 0.000169616 0)
(0.000261538 0.000251104 0)
(0.000166872 0.000309294 0)
(5.57199e-05 0.000338808 0)
(-6.09084e-05 0.000335036 0)
(-0.000169586 0.000298701 0)
(-0.000260315 0.000233399 0)
(-0.000324305 0.000144486 0)
(-0.000354513 4.11595e-05 0)
(-0.00034714 -6.58386e-05 0)
(-0.000302321 -0.000165502 0)
(-0.000224853 -0.000246881 0)
(-0.000122479 -0.00030074 0)
(-3.78729e-06 -0.000320551 0)
(0.000115074 -0.000302249 0)
(0.000218174 -0.00024886 0)
(0.00029534 -0.000166677 0)
(0.000336959 -6.51202e-05 0)
(0.000337201 4.27851e-05 0)
(0.00029605 0.000144116 0)
(0.000219016 0.000225593 0)
(0.000115679 0.000276373 0)
(-2.54417e-06 0.000289965 0)
(-0.000117253 0.00026294 0)
(-0.000210393 0.000200927 0)
(-0.000271362 0.000113137 0)
(-0.000291652 1.26442e-05 0)
(-0.000268906 -8.52147e-05 0)
(-0.000207673 -0.000165742 0)
(-0.000118464 -0.000216634 0)
(-1.44371e-05 -0.000230467 0)
(8.50781e-05 -0.000204438 0)
(0.000161722 -0.000145831 0)
(0.00020472 -6.57561e-05 0)
(0.000207272 2.02058e-05 0)
(0.000170595 9.58109e-05 0)
(0.000103604 0.000146369 0)
(1.97097e-05 0.000162292 0)
(-6.12143e-05 0.000139304 0)
(-0.000120062 8.45147e-05 0)
(-0.000144431 1.00285e-05 0)
(-0.000128205 -6.71139e-05 0)
(-7.47459e-05 -0.000128558 0)
(6.59888e-06 -0.000159391 0)
(9.47076e-05 -0.000149593 0)
(0.000166133 -0.00010128 0)
(0.000204178 -2.43389e-05 0)
(0.00019643 6.32597e-05 0)
(0.000141924 0.000139488 0)
(5.18051e-05 0.000184236 0)
(-3.60183e-05 -0.000604587 0)
(-0.000102824 -0.000682644 0)
(-0.000167935 -0.000724087 0)
(-0.000227009 -0.000783575 0)
(-0.00027947 -0.000858289 0)
(-0.000319773 -0.000951653 0)
(-0.000352234 -0.00105291 0)
(-0.000372827 -0.00116676 0)
(-0.000388745 -0.00127607 0)
(-0.000403024 -0.00138187 0)
(-0.000404453 -0.00147471 0)
(-0.000392942 -0.00156341 0)
(-0.000363424 -0.00164328 0)
(-0.00031573 -0.00171667 0)
(-0.000249646 -0.00178035 0)
(-0.000165823 -0.00183423 0)
(-6.7767e-05 -0.00187583 0)
(4.7858e-05 -0.00190294 0)
(0.00017571 -0.00191372 0)
(0.000311295 -0.0019091 0)
(0.000453942 -0.00188517 0)
(0.000600935 -0.00184135 0)
(0.000747792 -0.00177496 0)
(0.000893427 -0.00168958 0)
(0.00103326 -0.00158081 0)
(0.00116451 -0.00145631 0)
(0.00128308 -0.00130925 0)
(0.00138874 -0.00115302 0)
(0.00147796 -0.000977347 0)
(0.00154868 -0.000799527 0)
(0.00159862 -0.000613773 0)
(0.00162628 -0.000430417 0)
(0.00163443 -0.000248725 0)
(0.00162403 -7.32111e-05 0)
(0.00159998 9.52456e-05 0)
(0.0015621 0.000254455 0)
(0.0015107 0.000402989 0)
(0.00144671 0.000539861 0)
(0.0013724 0.000664037 0)
(0.00128882 0.00077506 0)
(0.00119769 0.000872646 0)
(0.00110039 0.000956662 0)
(0.000997961 0.00102728 0)
(0.000891919 0.00108467 0)
(0.000782969 0.00112895 0)
(0.000672353 0.00116081 0)
(0.000561309 0.00118041 0)
(0.000450114 0.00118813 0)
(0.000339922 0.00118473 0)
(0.000232047 0.00117021 0)
(0.0001271 0.00114543 0)
(2.54565e-05 0.00111069 0)
(-7.14909e-05 0.00106687 0)
(-0.000163989 0.0010141 0)
(-0.000250168 0.000953327 0)
(-0.000329743 0.000884799 0)
(-0.000402704 0.000809551 0)
(-0.000467124 0.000728029 0)
(-0.000523665 0.000641308 0)
(-0.000570896 0.00055008 0)
(-0.000608578 0.000455302 0)
(-0.000636707 0.000357834 0)
(-0.000654202 0.000258795 0)
(-0.000660854 0.000159181 0)
(-0.00065683 5.99878e-05 0)
(-0.000641957 -3.74042e-05 0)
(-0.000616003 -0.000132222 0)
(-0.000579858 -0.0002231 0)
(-0.000533489 -0.000308864 0)
(-0.000477353 -0.00038835 0)
(-0.000412271 -0.000460476 0)
(-0.000338896 -0.000523965 0)
(-0.000258005 -0.000578148 0)
(-0.000170614 -0.000621914 0)
(-7.83693e-05 -0.000654432 0)
(1.76651e-05 -0.000675118 0)
(0.000115732 -0.000683308 0)
(0.000214363 -0.000678742 0)
(0.00031184 -0.000661153 0)
(0.000406513 -0.000630462 0)
(0.00049668 -0.000587257 0)
(0.000580121 -0.000531733 0)
(0.000655327 -0.00046482 0)
(0.00072078 -0.000387359 0)
(0.000774467 -0.000300796 0)
(0.000815214 -0.000206388 0)
(0.000842016 -0.000105894 0)
(0.000853802 -1.32473e-06 0)
(0.000849089 0.000105473 0)
(0.000827981 0.000212061 0)
(0.000790766 0.000316423 0)
(0.000736848 0.000415726 0)
(0.000667313 0.000507997 0)
(0.000583272 0.000590416 0)
(0.000485977 0.000660922 0)
(0.000377156 0.000717473 0)
(0.000259467 0.000758136 0)
(0.000135329 0.000781502 0)
(7.29608e-06 0.000786229 0)
(-0.000121259 0.000771737 0)
(-0.000246647 0.000737675 0)
(-0.000365856 0.000684346 0)
(-0.000475636 0.000612934 0)
(-0.000572168 0.000524583 0)
(-0.00065266 0.000421266 0)
(-0.000714447 0.000306023 0)
(-0.000754618 0.000181294 0)
(-0.000771799 5.11919e-05 0)
(-0.000765123 -8.09893e-05 0)
(-0.000733904 -0.000210734 0)
(-0.00067861 -0.00033382 0)
(-0.000600407 -0.000446028 0)
(-0.00050172 -0.000543303 0)
(-0.000384773 -0.00062174 0)
(-0.000253755 -0.000678169 0)
(-0.000113217 -0.000709961 0)
(3.28147e-05 -0.000715772 0)
(0.00017781 -0.000694125 0)
(0.000315361 -0.000645361 0)
(0.000440659 -0.000571231 0)
(0.000548654 -0.000474051 0)
(0.000634208 -0.000357836 0)
(0.000692933 -0.000226755 0)
(0.0007218 -8.698e-05 0)
(0.000719191 5.58842e-05 0)
(0.000684224 0.000195193 0)
(0.000618725 0.000324427 0)
(0.000524839 0.000436894 0)
(0.00040694 0.00052686 0)
(0.000270629 0.000588572 0)
(0.000122646 0.000619211 0)
(-2.96101e-05 0.000616159 0)
(-0.000177523 0.000578375 0)
(-0.00031091 0.000508639 0)
(-0.000423811 0.000409681 0)
(-0.000508177 0.000287894 0)
(-0.000558566 0.000149703 0)
(-0.000571673 4.28864e-06 0)
(-0.000545544 -0.000139782 0)
(-0.000482672 -0.00027249 0)
(-0.000385663 -0.000384864 0)
(-0.000261728 -0.000467938 0)
(-0.000118759 -0.000516432 0)
(3.44263e-05 -0.000525133 0)
(0.00018423 -0.000492432 0)
(0.00031715 -0.000421041 0)
(0.000424148 -0.000316124 0)
(0.000496666 -0.000185965 0)
(0.000527042 -4.04265e-05 0)
(0.000512393 0.000107537 0)
(0.000453448 0.00024581 0)
(0.000354752 0.000361662 0)
(0.000224402 0.000444366 0)
(7.22564e-05 0.000485449 0)
(-8.71761e-05 0.000479076 0)
(-0.000234909 0.000426279 0)
(-0.000357898 0.000331572 0)
(-0.000444559 0.000204188 0)
(-0.000484381 5.63346e-05 0)
(-0.000473138 -9.64477e-05 0)
(-0.000411329 -0.000238327 0)
(-0.000305218 -0.000353654 0)
(-0.000165528 -0.000429078 0)
(-4.34278e-06 -0.000456062 0)
(0.000156674 -0.00042855 0)
(0.000295459 -0.000351626 0)
(0.000398527 -0.00023375 0)
(0.000453071 -8.91814e-05 0)
(0.000451777 6.43043e-05 0)
(0.000394955 0.000207639 0)
(0.000289471 0.000321851 0)
(0.000149262 0.000392612 0)
(-1.00524e-05 0.000409636 0)
(-0.000163715 0.000369508 0)
(-0.000287231 0.000280165 0)
(-0.000366654 0.00015452 0)
(-0.000390716 1.13009e-05 0)
(-0.00035679 -0.000126859 0)
(-0.000271394 -0.000239576 0)
(-0.000149147 -0.000309708 0)
(-8.0212e-06 -0.000326726 0)
(0.000125558 -0.000287384 0)
(0.000226862 -0.000201879 0)
(0.000281523 -8.66381e-05 0)
(0.000280946 3.63369e-05 0)
(0.000227311 0.000143475 0)
(0.000132962 0.000214466 0)
(1.63603e-05 0.00023547 0)
(-9.54108e-05 0.000201364 0)
(-0.000176038 0.000121707 0)
(-0.000209253 1.43149e-05 0)
(-0.00018674 -9.63822e-05 0)
(-0.000113286 -0.000184525 0)
(-2.2198e-06 -0.000228808 0)
(0.000118145 -0.000215169 0)
(0.000216261 -0.000146728 0)
(0.000269359 -3.75384e-05 0)
(0.00026061 8.67114e-05 0)
(0.000188806 0.000194941 0)
(6.90353e-05 0.000258388 0)
(-0.00011892 0.000806848 0)
(-0.000347159 0.00074776 0)
(-0.000569468 0.000680143 0)
(-0.000761534 0.000579413 0)
(-0.000933105 0.000458304 0)
(-0.00104706 0.000309891 0)
(-0.001121 0.000177977 0)
(-0.00112648 2.38508e-05 0)
(-0.00109169 -6.84068e-05 0)
(-0.00103367 -0.000215369 0)
(-0.00093464 -0.000393153 0)
(-0.00082437 -0.000614631 0)
(-0.000687436 -0.000844136 0)
(-0.000534101 -0.00107533 0)
(-0.000356034 -0.00129559 0)
(-0.000157512 -0.00149773 0)
(6.63464e-05 -0.00167541 0)
(0.000310052 -0.00182271 0)
(0.000568365 -0.00193558 0)
(0.000840894 -0.00200994 0)
(0.0011201 -0.0020415 0)
(0.00140648 -0.00203843 0)
(0.00168652 -0.0019912 0)
(0.00196487 -0.00190901 0)
(0.00221958 -0.00178057 0)
(0.00246047 -0.00162694 0)
(0.00266132 -0.00142688 0)
(0.00283576 -0.00121776 0)