/*--------------------------------*- C++ -*----------------------------------*\
  =========                 |
  \\      /  F ield         | OpenFOAM: The Open Source CFD Toolbox
   \\    /   O peration     | Website:  https://openfoam.org
    \\  /    A nd           | Version:  12
     \\/     M anipulation  |
\*---------------------------------------------------------------------------*/
FoamFile
{
    format      ascii;
    class       volVectorField;
    location    "15.36";
    object      U;
}
// * * * * * * * * * * * * * * * * * * * * * * * * * * * * * * * * * * * * * //

dimensions      [0 1 -1 0 0 0 0];

internalField   nonuniform List<vector> 
3829
(
(-5.79131e-06 -0.000378302 0)
(-1.89187e-05 -0.0004016 0)
(-3.09001e-05 -0.000400734 0)
(-4.41173e-05 -0.000398616 0)
(-5.74083e-05 -0.000395771 0)
(-7.14269e-05 -0.000392182 0)
(-8.60572e-05 -0.00038786 0)
(-0.000101475 -0.000382828 0)
(-0.000117703 -0.000377105 0)
(-0.000134882 -0.000370727 0)
(-0.000153027 -0.000363743 0)
(-0.000172174 -0.000356206 0)
(-0.000192404 -0.000348183 0)
(-0.000213674 -0.000339737 0)
(-0.000235976 -0.000330944 0)
(-0.000259259 -0.000321878 0)
(-0.000283476 -0.000312633 0)
(-0.000308541 -0.000303286 0)
(-0.000334336 -0.00029392 0)
(-0.00036072 -0.000284603 0)
(-0.000387562 -0.000275423 0)
(-0.000414656 -0.000266436 0)
(-0.000441851 -0.000257716 0)
(-0.000468909 -0.00024932 0)
(-0.000495625 -0.000241277 0)
(-0.000521733 -0.000233639 0)
(-0.000547065 -0.000226442 0)
(-0.00057152 -0.000219696 0)
(-0.000594622 -0.000213396 0)
(-0.000616135 -0.000207593 0)
(-0.000636052 -0.000202256 0)
(-0.000654044 -0.000197383 0)
(-0.000670222 -0.00019295 0)
(-0.000683992 -0.000188903 0)
(-0.000695217 -0.000185264 0)
(-0.000704172 -0.000181945 0)
(-0.000710458 -0.000178925 0)
(-0.000714089 -0.00017615 0)
(-0.000714881 -0.00017355 0)
(-0.00071258 -0.000171116 0)
(-0.000707047 -0.000168913 0)
(-0.000698434 -0.00016692 0)
(-0.000686765 -0.000165112 0)
(-0.000672102 -0.000163467 0)
(-0.000654595 -0.000161938 0)
(-0.000634332 -0.000160472 0)
(-0.000611479 -0.000159019 0)
(-0.00058605 -0.000157511 0)
(-0.000558276 -0.000155915 0)
(-0.000528314 -0.000154143 0)
(-0.000496354 -0.000152179 0)
(-0.000462617 -0.000149932 0)
(-0.000427258 -0.000147393 0)
(-0.000390369 -0.000144474 0)
(-0.000352424 -0.000141251 0)
(-0.000313973 -0.000137536 0)
(-0.000275091 -0.000133409 0)
(-0.000235776 -0.000128707 0)
(-0.000196627 -0.000123652 0)
(-0.000158161 -0.00011796 0)
(-0.000120387 -0.000111813 0)
(-8.39031e-05 -0.00010515 0)
(-4.91331e-05 -9.8032e-05 0)
(-1.62437e-05 -9.04117e-05 0)
(1.42533e-05 -8.23534e-05 0)
(4.21945e-05 -7.38556e-05 0)
(6.73634e-05 -6.4979e-05 0)
(8.94576e-05 -5.57821e-05 0)
(0.000108105 -4.63875e-05 0)
(0.000122876 -3.6808e-05 0)
(0.000133976 -2.71616e-05 0)
(0.000140871 -1.75324e-05 0)
(0.000143735 -7.99137e-06 0)
(0.000142212 1.25024e-06 0)
(0.000136268 1.01644e-05 0)
(0.000126169 1.85777e-05 0)
(0.000112488 2.64948e-05 0)
(9.46693e-05 3.3622e-05 0)
(7.33246e-05 4.01442e-05 0)
(4.92941e-05 4.56142e-05 0)
(2.2389e-05 5.0159e-05 0)
(-6.94687e-06 5.35581e-05 0)
(-3.80117e-05 5.59105e-05 0)
(-6.98688e-05 5.70209e-05 0)
(-0.000102243 5.69161e-05 0)
(-0.000134337 5.55222e-05 0)
(-0.000165597 5.2945e-05 0)
(-0.000195091 4.9096e-05 0)
(-0.000222358 4.4129e-05 0)
(-0.000246573 3.81049e-05 0)
(-0.000267057 3.11065e-05 0)
(-0.000283314 2.32906e-05 0)
(-0.000294798 1.48242e-05 0)
(-0.000301061 5.89048e-06 0)
(-0.000301482 -3.28895e-06 0)
(-0.000295676 -1.25146e-05 0)
(-0.000283736 -2.15705e-05 0)
(-0.00026598 -3.02457e-05 0)
(-0.000242646 -3.82846e-05 0)
(-0.000214205 -4.54799e-05 0)
(-0.00018114 -5.15657e-05 0)
(-0.000144181 -5.63914e-05 0)
(-0.000104154 -5.97349e-05 0)
(-6.20498e-05 -6.15077e-05 0)
(-1.89912e-05 -6.15772e-05 0)
(2.3906e-05 -5.99177e-05 0)
(6.52194e-05 -5.65263e-05 0)
(0.000103958 -5.1469e-05 0)
(0.000138668 -4.48758e-05 0)
(0.000168387 -3.68798e-05 0)
(0.000191869 -2.7833e-05 0)
(0.00020846 -1.78014e-05 0)
(0.000217568 -7.4331e-06 0)
(0.000218157 3.28443e-06 0)
(0.000210252 1.35623e-05 0)
(0.000194104 2.33959e-05 0)
(0.000170529 3.2139e-05 0)
(0.000140296 3.95858e-05 0)
(0.000104447 4.52667e-05 0)
(6.45384e-05 4.90955e-05 0)
(2.20413e-05 5.06418e-05 0)
(-2.11902e-05 4.99017e-05 0)
(-6.30262e-05 4.68772e-05 0)
(-0.000101322 4.16933e-05 0)
(-0.00013455 3.43996e-05 0)
(-0.000160874 2.55988e-05 0)
(-0.000178763 1.53679e-05 0)
(-0.000187322 4.50421e-06 0)
(-0.000185362 -6.72967e-06 0)
(-0.000172687 -1.74258e-05 0)
(-0.000149952 -2.73211e-05 0)
(-0.000118603 -3.56628e-05 0)
(-8.01026e-05 -4.19867e-05 0)
(-3.65033e-05 -4.59375e-05 0)
(1.05257e-05 -4.6977e-05 0)
(5.74905e-05 -4.52966e-05 0)
(0.000100915 -4.06115e-05 0)
(0.000138643 -3.35805e-05 0)
(0.000168005 -2.40851e-05 0)
(0.000187059 -1.32621e-05 0)
(0.000194255 -1.2899e-06 0)
(0.000188214 1.05338e-05 0)
(0.000169085 2.18304e-05 0)
(0.000138384 3.14967e-05 0)
(9.81569e-05 3.91119e-05 0)
(5.10135e-05 4.36814e-05 0)
(-6.33567e-07 4.51801e-05 0)
(-5.20557e-05 4.31186e-05 0)
(-9.88558e-05 3.78228e-05 0)
(-0.000137956 2.96103e-05 0)
(-0.000166193 1.91606e-05 0)
(-0.000181239 7.28797e-06 0)
(-0.000181351 -4.97315e-06 0)
(-0.000166294 -1.65603e-05 0)
(-0.000137791 -2.6575e-05 0)
(-9.83781e-05 -3.40325e-05 0)
(-5.15387e-05 -3.82808e-05 0)
(-8.73659e-07 -3.8912e-05 0)
(4.83307e-05 -3.5734e-05 0)
(9.07184e-05 -2.93255e-05 0)
(0.00012292 -2.02719e-05 0)
(0.000142025 -9.58559e-06 0)
(0.000146035 1.55803e-06 0)
(0.000134794 1.19727e-05 0)
(0.000110356 2.0519e-05 0)
(7.59252e-05 2.6336e-05 0)
(3.56458e-05 2.86662e-05 0)
(-5.75645e-06 2.74515e-05 0)
(-4.26005e-05 2.27912e-05 0)
(-7.01995e-05 1.55267e-05 0)
(-8.58459e-05 6.73708e-06 0)
(-8.76331e-05 -2.3748e-06 0)
(-7.59333e-05 -1.05174e-05 0)
(-5.34097e-05 -1.66053e-05 0)
(-2.37694e-05 -1.97699e-05 0)
(8.97287e-06 -1.96178e-05 0)
(3.85714e-05 -1.62183e-05 0)
(5.96747e-05 -1.03813e-05 0)
(6.9991e-05 -3.15386e-06 0)
(6.77782e-05 4.17655e-06 0)
(5.38909e-05 1.041e-05 0)
(3.14779e-05 1.44597e-05 0)
(3.77961e-06 1.56743e-05 0)
(-2.31755e-05 1.37e-05 0)
(-4.32357e-05 9.25108e-06 0)
(-5.37356e-05 3.19801e-06 0)
(-5.26568e-05 -3.15464e-06 0)
(-4.04557e-05 -8.6486e-06 0)
(-1.99966e-05 -1.2252e-05 0)
(5.5883e-06 -1.32936e-05 0)
(3.02794e-05 -1.16407e-05 0)
(4.85612e-05 -7.98262e-06 0)
(5.84374e-05 -3.29178e-06 0)
(5.8934e-05 1.25619e-06 0)
(5.12446e-05 4.69651e-06 0)
(3.86541e-05 6.43563e-06 0)
(2.49824e-05 6.41304e-06 0)
(1.33701e-05 5.09809e-06 0)
(5.5712e-06 3.37909e-06 0)
(1.35217e-06 2.15137e-06 0)
(-5.26757e-07 0.000576629 0)
(-1.51265e-07 0.000595149 0)
(2.57401e-08 0.0005975 0)
(-2.91631e-07 0.000600555 0)
(-1.32086e-06 0.000604545 0)
(-3.24525e-06 0.000609404 0)
(-6.35075e-06 0.000615015 0)
(-1.08699e-05 0.000621223 0)
(-1.69074e-05 0.000627834 0)
(-2.48445e-05 0.000634672 0)
(-3.48053e-05 0.000641434 0)
(-4.69257e-05 0.000647926 0)
(-6.13472e-05 0.000653791 0)
(-7.80457e-05 0.000658872 0)
(-9.70554e-05 0.000662772 0)
(-0.00011843 0.000665339 0)
(-0.000142105 0.000666249 0)
(-0.000167842 0.000665331 0)
(-0.000195428 0.000662327 0)
(-0.00022473 0.000657089 0)
(-0.000255469 0.000649445 0)
(-0.000287308 0.000639297 0)
(-0.000320094 0.000626538 0)
(-0.000353228 0.000611179 0)
(-0.000386447 0.000593211 0)
(-0.000419526 0.000572681 0)
(-0.000451996 0.000549688 0)
(-0.000483474 0.000524376 0)
(-0.000513753 0.000496901 0)
(-0.000542437 0.000467471 0)
(-0.000569185 0.00043622 0)
(-0.000593716 0.000403441 0)
(-0.000615824 0.000369328 0)
(-0.000635247 0.000334115 0)
(-0.000651665 0.000298017 0)
(-0.000665077 0.000261211 0)
(-0.000675309 0.000223985 0)
(-0.000682068 0.000186514 0)
(-0.000685412 0.00014902 0)
(-0.000685875 0.000111866 0)
(-0.000683272 7.53837e-05 0)
(-0.000677244 3.98632e-05 0)
(-0.000667809 5.49508e-06 0)
(-0.000654942 -2.75004e-05 0)
(-0.000638621 -5.89666e-05 0)
(-0.000618941 -8.87217e-05 0)
(-0.000596017 -0.000116625 0)
(-0.000569972 -0.000142521 0)
(-0.000540962 -0.000166301 0)
(-0.000509239 -0.000187786 0)
(-0.00047501 -0.000206904 0)
(-0.000438538 -0.000223473 0)
(-0.00040002 -0.000237544 0)
(-0.000359978 -0.00024885 0)
(-0.000318429 -0.000257579 0)
(-0.000275908 -0.000263385 0)
(-0.000232664 -0.000266545 0)
(-0.000189362 -0.00026666 0)
(-0.000146054 -0.000264226 0)
(-0.000103034 -0.000258816 0)
(-6.1395e-05 -0.000250909 0)
(-2.11343e-05 -0.000240251 0)
(1.72529e-05 -0.000227194 0)
(5.35943e-05 -0.000211653 0)
(8.71732e-05 -0.000193967 0)
(0.000117852 -0.000174147 0)
(0.000145166 -0.00015257 0)
(0.000168587 -0.000129374 0)
(0.000187953 -0.000104942 0)
(0.000202864 -7.9484e-05 0)
(0.000213255 -5.33416e-05 0)
(0.000218816 -2.68846e-05 0)
(0.000219239 -4.22895e-07 0)
(0.00021435 2.55192e-05 0)
(0.000204323 5.07971e-05 0)
(0.000189575 7.48554e-05 0)
(0.000170232 9.75193e-05 0)
(0.00014645 0.000118042 0)
(0.000118306 0.000136569 0)
(8.6426e-05 0.000152265 0)
(5.15054e-05 0.000165171 0)
(1.38903e-05 0.000174715 0)
(-2.56069e-05 0.000180951 0)
(-6.63069e-05 0.000183403 0)
(-0.000107483 0.000182264 0)
(-0.000148072 0.000177118 0)
(-0.00018757 0.00016836 0)
(-0.000224894 0.000155804 0)
(-0.000259086 0.000139808 0)
(-0.000289589 0.000120503 0)
(-0.00031543 9.83351e-05 0)
(-0.000335873 7.36277e-05 0)
(-0.000350323 4.69786e-05 0)
(-0.000358197 1.88779e-05 0)
(-0.000358875 -9.94353e-06 0)
(-0.000352034 -3.88746e-05 0)
(-0.000337773 -6.72222e-05 0)
(-0.000316339 -9.42999e-05 0)
(-0.000288021 -0.000119348 0)
(-0.000253315 -0.000141677 0)
(-0.000212914 -0.000160558 0)
(-0.000167709 -0.00017542 0)
(-0.000118738 -0.000185691 0)
(-6.72712e-05 -0.000190983 0)
(-1.46215e-05 -0.000191016 0)
(3.77249e-05 -0.00018564 0)
(8.80999e-05 -0.000174895 0)
(0.000135164 -0.000158924 0)
(0.000177308 -0.000138232 0)
(0.000213017 -0.000113227 0)
(0.000241259 -8.48649e-05 0)
(0.000260675 -5.37633e-05 0)
(0.000270917 -2.11284e-05 0)
(0.00027068 1.19011e-05 0)
(0.000259986 4.41761e-05 0)
(0.000239518 7.44776e-05 0)
(0.000209653 0.000101773 0)
(0.000171664 0.000124665 0)
(0.000126913 0.000142285 0)
(7.70998e-05 0.000153767 0)
(2.39165e-05 0.000158481 0)
(-2.97621e-05 0.000155957 0)
(-8.15199e-05 0.000146338 0)
(-0.000129116 0.000129825 0)
(-0.000170001 0.000107162 0)
(-0.000202315 7.9216e-05 0)
(-0.000224176 4.73716e-05 0)
(-0.000234349 1.3046e-05 0)
(-0.000231505 -2.17464e-05 0)
(-0.000215517 -5.55145e-05 0)
(-0.000187461 -8.61448e-05 0)
(-0.000148431 -0.00011212 0)
(-0.000100772 -0.000131735 0)
(-4.64513e-05 -0.000143678 0)
(1.17448e-05 -0.000146963 0)
(6.97963e-05 -0.000141251 0)
(0.000123347 -0.000126804 0)
(0.000169933 -0.000104264 0)
(0.000206049 -7.4968e-05 0)
(0.000229255 -4.06164e-05 0)
(0.000237812 -3.62829e-06 0)
(0.00023005 3.35729e-05 0)
(0.00020659 6.84368e-05 0)
(0.000168952 9.8728e-05 0)
(0.000119476 0.00012181 0)
(6.15195e-05 0.000136233 0)
(-1.56853e-06 0.000140313 0)
(-6.44533e-05 0.00013375 0)
(-0.000121378 0.000116987 0)
(-0.000168728 9.12427e-05 0)
(-0.000202587 5.85584e-05 0)
(-0.000220141 2.15948e-05 0)
(-0.000219359 -1.64784e-05 0)
(-0.000200335 -5.25633e-05 0)
(-0.000165018 -8.33453e-05 0)
(-0.000116424 -0.000106245 0)
(-5.89956e-05 -0.000118968 0)
(2.92155e-06 -0.000120437 0)
(6.2551e-05 -0.000110271 0)
(0.000113413 -8.99889e-05 0)
(0.000151575 -6.16374e-05 0)
(0.00017336 -2.82589e-05 0)
(0.000176633 6.34934e-06 0)
(0.000161405 3.85945e-05 0)
(0.000130292 6.49198e-05 0)
(8.71157e-05 8.25337e-05 0)
(3.71793e-05 8.93559e-05 0)
(-1.36047e-05 8.49238e-05 0)
(-5.8375e-05 7.00248e-05 0)
(-9.12043e-05 4.71807e-05 0)
(-0.000109007 1.96008e-05 0)
(-0.000109709 -8.75605e-06 0)
(-9.39393e-05 -3.39964e-05 0)
(-6.49933e-05 -5.26506e-05 0)
(-2.7514e-05 -6.21546e-05 0)
(1.32871e-05 -6.12585e-05 0)
(4.97032e-05 -5.03356e-05 0)
(7.5252e-05 -3.19107e-05 0)
(8.71587e-05 -9.17488e-06 0)
(8.35975e-05 1.37254e-05 0)
(6.57542e-05 3.30543e-05 0)
(3.74914e-05 4.55297e-05 0)
(2.94285e-06 4.9003e-05 0)
(-3.0311e-05 4.26542e-05 0)
(-5.47816e-05 2.85477e-05 0)
(-6.72268e-05 9.62445e-06 0)
(-6.53981e-05 -1.02511e-05 0)
(-5.01343e-05 -2.72417e-05 0)
(-2.48898e-05 -3.81907e-05 0)
(6.20898e-06 -4.11446e-05 0)
(3.57213e-05 -3.5676e-05 0)
(5.70283e-05 -2.40435e-05 0)
(6.77061e-05 -9.33866e-06 0)
(6.68614e-05 4.77428e-06 0)
(5.63305e-05 1.52517e-05 0)
(4.03265e-05 2.0253e-05 0)
(2.37079e-05 1.96772e-05 0)
(1.04995e-05 1.50804e-05 0)
(2.81038e-06 9.25234e-06 0)
(2.09675e-07 5.21418e-06 0)
(2.92396e-06 -0.0002917 0)
(8.95822e-06 -0.000320244 0)
(1.41878e-05 -0.0003137 0)
(1.80971e-05 -0.000302789 0)
(2.01112e-05 -0.000288038 0)
(1.95671e-05 -0.000269562 0)
(1.59471e-05 -0.00024729 0)
(8.5745e-06 -0.000221443 0)
(-2.65595e-06 -0.000192156 0)
(-1.8639e-05 -0.000159913 0)
(-3.9418e-05 -0.000125196 0)
(-6.52931e-05 -8.87417e-05 0)
(-9.59885e-05 -5.11835e-05 0)
(-0.00013162 -1.33012e-05 0)
(-0.000171981 2.41651e-05 0)
(-0.000216401 6.04519e-05 0)
(-0.000264838 9.4852e-05 0)
(-0.000316622 0.000126665 0)
(-0.00037139 0.000155338 0)
(-0.000428345 0.000180265 0)
(-0.000486935 0.000201043 0)
(-0.000546467 0.000217263 0)
(-0.000606058 0.000228732 0)
(-0.000664796 0.000235239 0)
(-0.000722256 0.000236859 0)
(-0.000777524 0.000233357 0)
(-0.000829848 0.000225318 0)
(-0.000878803 0.000212433 0)
(-0.000923647 0.000195519 0)
(-0.000964296 0.000174541 0)
(-0.00100031 0.000150151 0)
(-0.00103109 0.000122468 0)
(-0.00105712 9.2165e-05 0)
(-0.00107782 5.96242e-05 0)
(-0.00109337 2.53006e-05 0)
(-0.00110375 -1.0419e-05 0)
(-0.00110877 -4.69566e-05 0)
(-0.00110896 -8.40649e-05 0)
(-0.00110337 -0.000121348 0)
(-0.00109136 -0.000158682 0)
(-0.00107325 -0.000195832 0)
(-0.0010499 -0.00023249 0)
(-0.00102175 -0.000268355 0)
(-0.000989051 -0.000303116 0)
(-0.000952174 -0.000336447 0)
(-0.000911326 -0.000368068 0)
(-0.000866842 -0.000397665 0)
(-0.000818925 -0.000424949 0)
(-0.000767716 -0.000449671 0)
(-0.000713596 -0.000471539 0)
(-0.000656791 -0.0004904 0)
(-0.000598074 -0.000505943 0)
(-0.000537277 -0.000517963 0)
(-0.000475128 -0.000526325 0)
(-0.00041176 -0.000530915 0)
(-0.00034805 -0.000531409 0)
(-0.000283943 -0.000527991 0)
(-0.000220372 -0.000520346 0)
(-0.000157815 -0.000508587 0)
(-9.65935e-05 -0.000492694 0)
(-3.76046e-05 -0.000472683 0)
(1.92333e-05 -0.000448681 0)
(7.2796e-05 -0.000420692 0)
(0.000123052 -0.000389071 0)
(0.000169095 -0.00035393 0)
(0.000210681 -0.000315626 0)
(0.000247121 -0.000274488 0)
(0.000278158 -0.000230948 0)
(0.000303275 -0.000185404 0)
(0.000322235 -0.000138417 0)
(0.000334692 -9.04933e-05 0)
(0.000340397 -4.23176e-05 0)
(0.00033898 5.73992e-06 0)
(0.000330742 5.27897e-05 0)
(0.000315702 9.83341e-05 0)
(0.000294119 0.000141603 0)
(0.000265928 0.000182013 0)
(0.000231819 0.000218908 0)
(0.000192176 0.00025155 0)
(0.00014748 0.000279375 0)
(9.86091e-05 0.000302002 0)
(4.60754e-05 0.000318661 0)
(-9.02462e-06 0.000329202 0)
(-6.53441e-05 0.000333143 0)
(-0.000122322 0.000330374 0)
(-0.000178513 0.00032081 0)
(-0.000232675 0.000304431 0)
(-0.000284003 0.000281511 0)
(-0.000331057 0.000252247 0)
(-0.000372851 0.000217238 0)
(-0.000408178 0.000177077 0)
(-0.00043618 0.000132476 0)
(-0.000455915 8.44339e-05 0)
(-0.000466656 3.38792e-05 0)
(-0.000467583 -1.79669e-05 0)
(-0.000458545 -6.99595e-05 0)
(-0.000439554 -0.00012084 0)
(-0.000410873 -0.000169339 0)
(-0.000372848 -0.000214054 0)
(-0.00032619 -0.000253824 0)
(-0.000271829 -0.000287368 0)
(-0.000211006 -0.000313574 0)
(-0.000145135 -0.000331638 0)
(-7.60395e-05 -0.000340674 0)
(-5.49255e-06 -0.000340307 0)
(6.45415e-05 -0.000330171 0)
(0.000131907 -0.0003105 0)
(0.0001945 -0.000281564 0)
(0.00025028 -0.000244174 0)
(0.000297261 -0.000199134 0)
(0.000333864 -0.000147924 0)
(0.000358916 -9.20599e-05 0)
(0.000370828 -3.36102e-05 0)
(0.000368855 2.56111e-05 0)
(0.000353011 8.34854e-05 0)
(0.00032401 0.000137646 0)
(0.000282431 0.000186217 0)
(0.000229622 0.000226955 0)
(0.000167916 0.000258103 0)
(9.94935e-05 0.000277964 0)
(2.67683e-05 0.00028578 0)
(-4.66688e-05 0.000280615 0)
(-0.000117295 0.000262757 0)
(-0.000181811 0.000232613 0)
(-0.000237345 0.000191391 0)
(-0.000280945 0.000140817 0)
(-0.000310138 8.3271e-05 0)
(-0.000323009 2.15524e-05 0)
(-0.000318422 -4.10409e-05 0)
(-0.00029625 -0.000101604 0)
(-0.000257377 -0.000156522 0)
(-0.000204158 -0.000202922 0)
(-0.000138717 -0.000237686 0)
(-6.45357e-05 -0.000258562 0)
(1.47651e-05 -0.000264084 0)
(9.34201e-05 -0.000253321 0)
(0.000166194 -0.000226871 0)
(0.000229155 -0.000186152 0)
(0.000277904 -0.000133317 0)
(0.000308863 -7.17566e-05 0)
(0.000319517 -5.34355e-06 0)
(0.00030851 6.1319e-05 0)
(0.000276624 0.000123723 0)
(0.000225515 0.000177458 0)
(0.000158717 0.000218488 0)
(8.05996e-05 0.00024339 0)
(-4.42724e-06 0.000250353 0)
(-8.82902e-05 0.000237814 0)
(-0.00016421 0.000207152 0)
(-0.000226813 0.000160722 0)
(-0.000270939 0.000101937 0)
(-0.00029283 3.5816e-05 0)
(-0.000290392 -3.21581e-05 0)
(-0.000263531 -9.61185e-05 0)
(-0.00021501 -0.000150633 0)
(-0.000149095 -0.000190504 0)
(-7.16136e-05 -0.000212317 0)
(1.10461e-05 -0.000213887 0)
(8.9961e-05 -0.000194828 0)
(0.000156542 -0.00015759 0)
(0.00020557 -0.000106386 0)
(0.000232052 -4.65585e-05 0)
(0.000233585 1.52177e-05 0)
(0.000210656 7.24924e-05 0)
(0.000166664 0.000118859 0)
(0.000106943 0.000149249 0)
(3.87577e-05 0.000160559 0)
(-2.95283e-05 0.000150886 0)
(-8.86265e-05 0.000123354 0)
(-0.000131036 8.16518e-05 0)
(-0.0001526 3.17936e-05 0)
(-0.0001509 -1.89921e-05 0)
(-0.000127192 -6.39234e-05 0)
(-8.59645e-05 -9.66636e-05 0)
(-3.36841e-05 -0.00011281 0)
(2.21852e-05 -0.000109955 0)
(7.11735e-05 -8.94898e-05 0)
(0.000104927 -5.57406e-05 0)
(0.000119625 -1.46005e-05 0)
(0.000113215 2.66067e-05 0)
(8.77502e-05 6.10121e-05 0)
(4.83076e-05 8.27157e-05 0)
(8.69233e-07 8.82484e-05 0)
(-4.41184e-05 7.61417e-05 0)
(-7.6722e-05 5.03181e-05 0)
(-9.26532e-05 1.61323e-05 0)
(-8.92389e-05 -1.94532e-05 0)
(-6.78964e-05 -4.95314e-05 0)
(-3.35351e-05 -6.84334e-05 0)
(7.92894e-06 -7.29172e-05 0)
(4.64198e-05 -6.23064e-05 0)
(7.31858e-05 -4.08834e-05 0)
(8.51041e-05 -1.42757e-05 0)
(8.1456e-05 1.07759e-05 0)
(6.52909e-05 2.88932e-05 0)
(4.26702e-05 3.67552e-05 0)
(2.04679e-05 3.44292e-05 0)
(4.30579e-06 2.48094e-05 0)
(-2.932e-06 1.31135e-05 0)
(-2.10704e-06 5.4076e-06 0)
(2.48326e-05 0.000428798 0)
(7.72855e-05 0.000446886 0)
(0.000129114 0.000467218 0)
(0.000179861 0.000497236 0)
(0.00022829 0.000537241 0)
(0.000273855 0.000585878 0)
(0.000315556 0.000643139 0)
(0.000352087 0.000705875 0)
(0.00038191 0.000774329 0)
(0.000402515 0.000844663 0)
(0.000412583 0.000916363 0)
(0.000411212 0.000986676 0)
(0.000398262 0.00105463 0)
(0.000373366 0.00111815 0)
(0.000336953 0.00117603 0)
(0.000289537 0.00122665 0)
(0.000231807 0.00126904 0)
(0.000165206 0.00130171 0)
(9.06085e-05 0.00132461 0)
(9.28724e-06 0.00133621 0)
(-7.69179e-05 0.00133637 0)
(-0.000166347 0.00132472 0)
(-0.000257612 0.00130173 0)
(-0.000348552 0.00126697 0)
(-0.000439023 0.00122192 0)
(-0.00052604 0.00116656 0)
(-0.0006095 0.00110285 0)
(-0.000687945 0.00103108 0)
(-0.000759798 0.000953653 0)
(-0.000825701 0.000870798 0)
(-0.000884736 0.000784472 0)
(-0.000936722 0.000695074 0)
(-0.00098036 0.000603817 0)
(-0.00101663 0.000511218 0)
(-0.00104548 0.000418065 0)
(-0.00106631 0.000324995 0)
(-0.00107954 0.000232566 0)
(-0.00108575 0.000141249 0)
(-0.00108554 5.20831e-05 0)
(-0.00108012 -3.41879e-05 0)
(-0.00106873 -0.000117199 0)
(-0.00105099 -0.000196609 0)
(-0.00102706 -0.000272108 0)
(-0.000996974 -0.000343481 0)
(-0.000960983 -0.000410381 0)
(-0.000919351 -0.000472642 0)
(-0.000872261 -0.000529766 0)
(-0.000820208 -0.000581686 0)
(-0.000763414 -0.000628303 0)
(-0.000702586 -0.000669112 0)
(-0.000637945 -0.000704176 0)
(-0.000569644 -0.000733165 0)
(-0.000498593 -0.000755867 0)
(-0.000425744 -0.000772059 0)
(-0.000350405 -0.000781819 0)
(-0.000274341 -0.000784853 0)
(-0.000197829 -0.000781199 0)
(-0.000121272 -0.000770994 0)
(-4.58961e-05 -0.00075384 0)
(2.83667e-05 -0.000730339 0)
(9.99607e-05 -0.000700017 0)
(0.000168936 -0.000663556 0)
(0.000233997 -0.000620915 0)
(0.000294627 -0.000572587 0)
(0.000350145 -0.000518896 0)
(0.00039971 -0.000460382 0)
(0.000442678 -0.00039757 0)
(0.000478448 -0.000331056 0)
(0.00050651 -0.000261648 0)
(0.000526201 -0.000189953 0)
(0.000537116 -0.000116928 0)
(0.000539596 -4.33574e-05 0)
(0.00053279 2.95721e-05 0)
(0.000516222 0.000101111 0)
(0.000490657 0.000170206 0)
(0.000456374 0.000235944 0)
(0.000413896 0.000296993 0)
(0.000363135 0.000352613 0)
(0.000304627 0.000401664 0)
(0.000240113 0.000443434 0)
(0.000169805 0.000476829 0)
(9.48274e-05 0.000501316 0)
(1.69263e-05 0.000516222 0)
(-6.29967e-05 0.000521153 0)
(-0.000143101 0.000515644 0)
(-0.000222025 0.000499825 0)
(-0.000298236 0.000473504 0)
(-0.000370138 0.000437182 0)
(-0.000435909 0.00039128 0)
(-0.00049401 0.000336527 0)
(-0.000543275 0.000273972 0)
(-0.00058206 0.000204781 0)
(-0.000609339 0.000130273 0)
(-0.000624123 5.21237e-05 0)
(-0.000625451 -2.79393e-05 0)
(-0.000613124 -0.000108094 0)
(-0.000587131 -0.000186434 0)
(-0.000547599 -0.000260905 0)
(-0.000495246 -0.000329561 0)
(-0.000431122 -0.000390454 0)
(-0.000356248 -0.000441545 0)
(-0.000272777 -0.000481401 0)
(-0.000182448 -0.000508522 0)
(-8.7649e-05 -0.000521792 0)
(9.03976e-06 -0.000520617 0)
(0.000104731 -0.000504371 0)
(0.000196345 -0.000473442 0)
(0.000281293 -0.000428218 0)
(0.000356905 -0.000369926 0)
(0.000420367 -0.000300234 0)
(0.000469307 -0.000221012 0)
(0.000501443 -0.000134943 0)
(0.000515921 -4.47967e-05 0)
(0.00051171 4.63825e-05 0)
(0.000488001 0.000135092 0)
(0.00044621 0.00021833 0)
(0.000387301 0.00029234 0)
(0.000313044 0.000354424 0)
(0.000226148 0.000401521 0)
(0.000130388 0.000431458 0)
(2.909e-05 0.000442626 0)
(-7.28571e-05 0.000433779 0)
(-0.000170494 0.000405175 0)
(-0.000259909 0.000357686 0)
(-0.000336375 0.000293339 0)
(-0.000396071 0.000214793 0)
(-0.000435492 0.000125801 0)
(-0.000452119 3.05041e-05 0)
(-0.000444798 -6.65126e-05 0)
(-0.000413273 -0.000159667 0)
(-0.000359006 -0.000244408 0)
(-0.000284374 -0.000315282 0)
(-0.000192987 -0.000368341 0)
(-8.98453e-05 -0.000399849 0)
(1.995e-05 -0.000407783 0)
(0.000128934 -0.000390457 0)
(0.000229124 -0.00034901 0)
(0.000315681 -0.000285601 0)
(0.000382307 -0.00020371 0)
(0.000424236 -0.000108512 0)
(0.000438268 -6.30459e-06 0)
(0.000422279 9.62122e-05 0)
(0.000377631 0.000191957 0)
(0.000306961 0.00027419 0)
(0.00021448 0.000336252 0)
(0.000107002 0.000373852 0)
(-9.25791e-06 0.000383276 0)
(-0.000124306 0.000363134 0)
(-0.000227143 0.000315247 0)
(-0.000311507 0.000242966 0)
(-0.000370206 0.000152417 0)
(-0.000398075 5.06356e-05 0)
(-0.000392493 -5.34312e-05 0)
(-0.000354079 -0.000151232 0)
(-0.000286173 -0.000233565 0)
(-0.000194805 -0.000293388 0)
(-8.85179e-05 -0.000325279 0)
(2.43222e-05 -0.000325901 0)
(0.000131205 -0.000294967 0)
(0.000220202 -0.000236678 0)
(0.000284216 -0.00015724 0)
(0.000317037 -6.50515e-05 0)
(0.000315736 2.9725e-05 0)
(0.000281185 0.000116883 0)
(0.000218065 0.000186709 0)
(0.000134344 0.000231632 0)
(3.92166e-05 0.000247038 0)
(-5.44338e-05 0.000230051 0)
(-0.000133693 0.000186083 0)
(-0.000189754 0.00012077 0)
(-0.00021617 4.34968e-05 0)
(-0.000210516 -3.47332e-05 0)
(-0.000174868 -0.000103268 0)
(-0.00011543 -0.00015257 0)
(-4.12161e-05 -0.000175999 0)
(3.65446e-05 -0.000169351 0)
(0.000103426 -0.000136527 0)
(0.00014871 -8.33794e-05 0)
(0.000167071 -1.9512e-05 0)
(0.000156185 4.40611e-05 0)
(0.000119069 9.65882e-05 0)
(6.3153e-05 0.000129215 0)
(-3.01645e-06 0.000136527 0)
(-6.49531e-05 0.00011682 0)
(-0.000109062 7.61326e-05 0)
(-0.000129675 2.28952e-05 0)
(-0.000123549 -3.17538e-05 0)
(-9.30664e-05 -7.74137e-05 0)
(-4.52258e-05 -0.000105326 0)
(1.13256e-05 -0.000110843 0)
(6.26946e-05 -9.31649e-05 0)
(9.70916e-05 -5.92559e-05 0)
(0.000110359 -1.79506e-05 0)
(0.000102146 2.03621e-05 0)
(7.7379e-05 4.70873e-05 0)
(4.48471e-05 5.74011e-05 0)
(1.43924e-05 5.16592e-05 0)
(-6.03308e-06 3.42347e-05 0)
(-1.21102e-05 1.46651e-05 0)
(-5.68188e-06 2.03239e-06 0)
(6.78867e-05 -0.000920192 0)
(0.000206596 -0.000952591 0)
(0.000342267 -0.00092613 0)
(0.000472147 -0.000884781 0)
(0.000590623 -0.000826495 0)
(0.000696703 -0.00075512 0)
(0.000781448 -0.000664359 0)
(0.000843286 -0.000561449 0)
(0.000875296 -0.000436081 0)
(0.000875894 -0.000294918 0)
(0.000851 -0.000137346 0)
(0.000798575 2.46965e-05 0)
(0.000722913 0.000190025 0)
(0.00062367 0.000351358 0)
(0.000504347 0.000506391 0)
(0.000367349 0.000650454 0)
(0.00021455 0.000780714 0)
(5.14018e-05 0.000894803 0)
(-0.000122058 0.000990589 0)
(-0.00030281 0.00106483 0)
(-0.000485396 0.00111865 0)
(-0.000666129 0.00115094 0)
(-0.000844203 0.00116361 0)
(-0.00101349 0.00115411 0)
(-0.00117204 0.00112761 0)
(-0.00131636 0.00108026 0)
(-0.001445 0.00102166 0)
(-0.00155556 0.000945019 0)
(-0.00164827 0.000864773 0)
(-0.00172486 0.000771322 0)
(-0.00178497 0.000675982 0)
(-0.00183118 0.000574224 0)
(-0.00186359 0.000471079 0)
(-0.00188379 0.000366169 0)
(-0.00189183 0.000261529 0)
(-0.00188924 0.000157613 0)
(-0.00187726 5.49357e-05 0)
(-0.00185471 -4.55577e-05 0)
(-0.00181989 -0.000144098 0)
(-0.00177524 -0.000240263 0)
(-0.00172255 -0.000333512 0)
(-0.00166273 -0.00042342 0)
(-0.00159671 -0.000509471 0)
(-0.00152461 -0.00059124 0)
(-0.00144698 -0.000668235 0)
(-0.00136355 -0.000740152 0)
(-0.00127504 -0.000806515 0)
(-0.0011832 -0.000867199 0)
(-0.00108663 -0.000921287 0)
(-0.00098634 -0.000968869 0)
(-0.000883268 -0.00100911 0)
(-0.000777096 -0.0010423 0)
(-0.000668281 -0.00106751 0)
(-0.000558555 -0.00108473 0)
(-0.000447764 -0.00109344 0)
(-0.000336733 -0.00109379 0)
(-0.000226902 -0.00108515 0)
(-0.000117682 -0.00106777 0)
(-1.1141e-05 -0.00104121 0)
(9.26547e-05 -0.0010059 0)
(0.000192592 -0.000961666 0)
(0.000287345 -0.000908879 0)
(0.000376529 -0.000847769 0)
(0.000458918 -0.000778758 0)
(0.000533609 -0.00070245 0)
(0.000599748 -0.000619367 0)
(0.000656617 -0.000530421 0)
(0.00070325 -0.000436324 0)
(0.000739277 -0.000338178 0)
(0.00076405 -0.00023705 0)
(0.000776851 -0.000134036 0)
(0.000777132 -3.04027e-05 0)
(0.000764701 7.20108e-05 0)
(0.000740243 0.000172494 0)
(0.000703684 0.000269477 0)
(0.000654734 0.000361469 0)
(0.000593974 0.000446869 0)
(0.000522732 0.00052442 0)
(0.000441673 0.000592614 0)
(0.000351657 0.000650383 0)
(0.000254071 0.000696187 0)
(0.000150717 0.000729375 0)
(4.31944e-05 0.000748866 0)
(-6.66264e-05 0.000754116 0)
(-0.000176717 0.000744665 0)
(-0.000284949 0.000720367 0)
(-0.000389215 0.000681397 0)
(-0.000487212 0.000628096 0)
(-0.000576998 0.000561472 0)
(-0.000656211 0.000482115 0)
(-0.000722805 0.000391974 0)
(-0.000775435 0.000292383 0)
(-0.000812227 0.00018556 0)
(-0.000831716 7.35764e-05 0)
(-0.000833072 -4.09946e-05 0)
(-0.000816007 -0.000155563 0)
(-0.000780308 -0.000267239 0)
(-0.000726423 -0.00037329 0)
(-0.000655221 -0.000470805 0)
(-0.000567575 -0.000556932 0)
(-0.000465734 -0.000629315 0)
(-0.000352321 -0.000685318 0)
(-0.000229609 -0.000723075 0)
(-0.000101404 -0.000741083 0)
(2.93752e-05 -0.000738193 0)
(0.000158733 -0.000714075 0)
(0.000282499 -0.000669024 0)
(0.000397031 -0.00060358 0)
(0.000497977 -0.000520023 0)
(0.000582269 -0.000419924 0)
(0.000646684 -0.000306577 0)
(0.000688609 -0.000183277 0)
(0.000706222 -5.46515e-05 0)
(0.000697889 7.54839e-05 0)
(0.000663941 0.000201894 0)
(0.000605113 0.000320085 0)
(0.000522961 0.000425352 0)
(0.000420426 0.000512952 0)
(0.000301022 0.00057915 0)
(0.000169731 0.000620526 0)
(3.07777e-05 0.000635091 0)
(-0.000109017 0.000621083 0)
(-0.000242614 0.000579207 0)
(-0.000363987 0.000510256 0)
(-0.000467506 0.000417499 0)
(-0.000547776 0.000304141 0)
(-0.00060031 0.000176236 0)
(-0.000622347 3.91512e-05 0)
(-0.000611083 -9.94379e-05 0)
(-0.000566927 -0.000232778 0)
(-0.000491562 -0.000353401 0)
(-0.000388626 -0.000454157 0)
(-0.000263274 -0.000529032 0)
(-0.000122164 -0.000573184 0)
(2.78515e-05 -0.000583423 0)
(0.000176425 -0.000557498 0)
(0.000312868 -0.00049743 0)
(0.000430237 -0.000405447 0)
(0.000520264 -0.000288142 0)
(0.000576034 -0.00015154 0)
(0.00059353 -5.61571e-06 0)
(0.000570874 0.000140353 0)
(0.000509479 0.00027656 0)
(0.000412249 0.000392516 0)
(0.000286283 0.000480209 0)
(0.000140218 0.000531985 0)
(-1.75714e-05 0.000543969 0)
(-0.000172123 0.000513581 0)
(-0.000310701 0.000443775 0)
(-0.000423156 0.000340057 0)
(-0.000500284 0.000210412 0)
(-0.000535548 6.53028e-05 0)
(-0.00052574 -8.22692e-05 0)
(-0.000471249 -0.000220132 0)
(-0.000377184 -0.00033617 0)
(-0.000252658 -0.000419079 0)
(-0.000108168 -0.000461796 0)
(4.40146e-05 -0.000460126 0)
(0.000186664 -0.000413923 0)
(0.000304329 -0.000329096 0)
(0.000387732 -0.000214579 0)
(0.000428314 -8.28797e-05 0)
(0.000422474 5.14547e-05 0)
(0.000371883 0.000174329 0)
(0.000283275 0.0002717 0)
(0.000167703 0.000333053 0)
(3.74745e-05 0.000352151 0)
(-8.90071e-05 0.000325717 0)
(-0.000194268 0.000260358 0)
(-0.00026743 0.000165611 0)
(-0.00029973 5.44831e-05 0)
(-0.000288254 -5.72475e-05 0)
(-0.000236306 -0.000154094 0)
(-0.000152656 -0.0002226 0)
(-4.91163e-05 -0.000254003 0)
(5.719e-05 -0.000241874 0)
(0.000146883 -0.000193054 0)
(0.000206915 -0.000115613 0)
(0.000229516 -2.3215e-05 0)
(0.000212257 6.76378e-05 0)
(0.000159629 0.00014178 0)
(8.1739e-05 0.000186818 0)
(-9.16117e-06 0.000195549 0)
(-9.31418e-05 0.000165742 0)
(-0.000152205 0.000106442 0)
(-0.00017845 2.99869e-05 0)
(-0.00016817 -4.80667e-05 0)
(-0.000125204 -0.000112202 0)
(-5.93802e-05 -0.000150401 0)
(1.69961e-05 -0.000156231 0)
(8.50198e-05 -0.000129114 0)
(0.000128936 -7.92064e-05 0)
(0.000143512 -1.97036e-05 0)
(0.000128691 3.44126e-05 0)
(9.19699e-05 7.08996e-05 0)
(4.60595e-05 8.31256e-05 0)
(4.39674e-06 7.16122e-05 0)
(-2.12109e-05 4.35357e-05 0)
(-2.49552e-05 1.34728e-05 0)
(-1.06873e-05 -5.86792e-06 0)
(0.000110166 -0.00111806 0)
(0.000336876 -0.00109665 0)
(0.000559102 -0.00101247 0)
(0.000788158 -0.000885225 0)
(0.00100905 -0.00070739 0)
(0.00123879 -0.00048783 0)
(0.00145072 -0.000199278 0)
(0.00165926 0.000118857 0)
(0.00183574 0.000518966 0)
(0.00195114 0.000901398 0)
(0.00202043 0.00127386 0)
(0.00202484 0.00161373 0)
(0.00197888 0.00193057 0)
(0.00187735 0.00221532 0)
(0.00173294 0.00246557 0)
(0.00154542 0.00267652 0)
(0.00132458 0.00284566 0)
(0.0010772 0.00297127 0)
(0.000808247 0.00305317 0)
(0.000526525 0.00309206 0)