/*--------------------------------*- C++ -*----------------------------------*\
  =========                 |
  \\      /  F ield         | OpenFOAM: The Open Source CFD Toolbox
   \\    /   O peration     | Website:  https://openfoam.org
    \\  /    A nd           | Version:  12
     \\/     M anipulation  |
\*---------------------------------------------------------------------------*/
FoamFile
{
    format      ascii;
    class       volVectorField;
    location    "14.86";
    object      zeta;
}
// * * * * * * * * * * * * * * * * * * * * * * * * * * * * * * * * * * * * * //

dimensions      [0 1 0 0 0 0 0];

internalField   uniform (0 0 0);

boundaryField
{
    freeSurface
    {
        type            calculated;
        value           nonuniform List<vector> 
181
(
(0 0.00388742 0)
(0 0.00388787 0)
(0 0.00388706 0)
(0 0.00388518 0)
(0 0.00388377 0)
(0 0.00388075 0)
(0 0.00388003 0)
(0 0.0038763 0)
(0 0.00150255 0)
(0 0.00150095 0)
(0 0.00150415 0)
(0 0.00150288 0)
(0 0.00150462 0)
(0 0.00150252 0)
(0 0.00150006 0)
(0 0.00149387 0)
(0 0.0014852 0)
(0 0.0014713 0)
(0 0.0014528 0)
(0 0.00142822 0)
(0 0.00139795 0)
(0 0.00136133 0)
(0 0.00131823 0)
(0 0.00126803 0)
(0 0.00121046 0)
(0 0.0011453 0)
(0 0.00107261 0)
(0 0.000992607 0)
(0 0.000905595 0)
(0 0.000811997 0)
(0 0.000712193 0)
(0 0.000606709 0)
(0 0.000496079 0)
(0 0.000381134 0)
(0 0.000262702 0)
(0 0.000141763 0)
(0 1.93122e-05 0)
(0 -0.000103614 0)
(0 -0.000225987 0)
(0 -0.00034658 0)
(0 -0.000464106 0)
(0 -0.000577306 0)
(0 -0.000684873 0)
(0 -0.000785564 0)
(0 -0.000877981 0)
(0 -0.000960829 0)
(0 -0.00103285 0)
(0 -0.0010928 0)
(0 -0.00113952 0)
(0 -0.00117216 0)
(0 -0.00118986 0)
(0 -0.00119192 0)
(0 -0.00117793 0)
(0 -0.00114766 0)
(0 -0.0011012 0)
(0 -0.00103869 0)
(0 -0.000960668 0)
(0 -0.00086787 0)
(0 -0.000761288 0)
(0 -0.000642243 0)
(0 -0.000512253 0)
(0 -0.000373146 0)
(0 -0.000227162 0)
(0 -7.66162e-05 0)
(0 7.58757e-05 0)
(0 0.00022765 0)
(0 0.000375663 0)
(0 0.000517038 0)
(0 0.000648838 0)
(0 0.0007682 0)
(0 0.000872377 0)
(0 0.000958656 0)
(0 0.00102487 0)
(0 0.00106885 0)
(0 0.00108909 0)
(0 0.00108442 0)
(0 0.00105424 0)
(0 0.000998605 0)
(0 0.000918325 0)
(0 0.000814748 0)
(0 0.000690007 0)
(0 0.000546757 0)
(0 0.000388713 0)
(0 0.000219486 0)
(0 4.40001e-05 0)
(0 -0.000133118 0)
(0 -0.000306639 0)
(0 -0.000471268 0)
(0 -0.000621677 0)
(0 -0.000752736 0)
(0 -0.00085964 0)
(0 -0.000938319 0)
(0 -0.000985427 0)
(0 -0.000997986 0)
(0 -0.000974973 0)
(0 -0.000916246 0)
(0 -0.000823198 0)
(0 -0.000698559 0)
(0 -0.000546467 0)
(0 -0.000372685 0)
(0 -0.000184108 0)
(0 1.1579e-05 0)
(0 0.000205902 0)
(0 0.000390006 0)
(0 0.000555303 0)
(0 0.000693244 0)
(0 0.000796616 0)
(0 0.000859663 0)
(0 0.000878435 0)
(0 0.000851002 0)
(0 0.000778217 0)
(0 0.000663074 0)
(0 0.000511919 0)
(0 0.000331877 0)
(0 0.000134416 0)
(0 -6.95171e-05 0)
(0 -0.000268268 0)
(0 -0.000449052 0)
(0 -0.000600232 0)
(0 -0.000711608 0)
(0 -0.000775293 0)
(0 -0.000786604 0)
(0 -0.000743935 0)
(0 -0.000650184 0)
(0 -0.000511471 0)
(0 -0.00033775 0)
(0 -0.000142096 0)
(0 6.03278e-05 0)
(0 0.000254305 0)
(0 0.00042444 0)
(0 0.000556243 0)
(0 0.000638635 0)
(0 0.000663811 0)
(0 0.000629904 0)
(0 0.000539571 0)
(0 0.000401221 0)
(0 0.00022775 0)
(0 3.6239e-05 0)
(0 -0.000154326 0)
(0 -0.000326199 0)
(0 -0.000461457 0)
(0 -0.000545843 0)
(0 -0.000570693 0)
(0 -0.000533502 0)
(0 -0.000439066 0)
(0 -0.000298919 0)
(0 -0.000130139 0)
(0 4.61944e-05 0)
(0 0.000208991 0)
(0 0.00033864 0)
(0 0.000418725 0)
(0 0.000439429 0)
(0 0.000398818 0)
(0 0.000303783 0)
(0 0.000169166 0)
(0 1.56998e-05 0)
(0 -0.000133684 0)
(0 -0.000258207 0)
(0 -0.000339109 0)
(0 -0.000365152 0)
(0 -0.000333745 0)
(0 -0.000251828 0)
(0 -0.000135116 0)
(0 -5.55029e-06 0)
(0 0.000115852 0)
(0 0.000208304 0)
(0 0.000256653 0)
(0 0.000254716 0)
(0 0.000205822 0)
(0 0.000122198 0)
(0 2.29066e-05 0)
(0 -7.26183e-05 0)
(0 -0.000146356 0)
(0 -0.000186063 0)
(0 -0.000187823 0)
(0 -0.000155173 0)
(0 -9.87989e-05 0)
(0 -3.14635e-05 0)
(0 3.32696e-05 0)
(0 8.36221e-05 0)
(0 0.000111146 0)
)
;
    }
    walls
    {
        type            calculated;
        value           uniform (0 0 0);
    }
    floatingObject
    {
        type            calculated;
        value           uniform (0 0 0);
    }
    frontAndBack
    {
        type            empty;
    }
}


// ************************************************************************* //
