/*--------------------------------*- C++ -*----------------------------------*\
  =========                 |
  \\      /  F ield         | OpenFOAM: The Open Source CFD Toolbox
   \\    /   O peration     | Website:  https://openfoam.org
    \\  /    A nd           | Version:  12
     \\/     M anipulation  |
\*---------------------------------------------------------------------------*/
FoamFile
{
    format      ascii;
    class       volScalarField;
    location    "3.58";
    object      p_rgh;
}
// * * * * * * * * * * * * * * * * * * * * * * * * * * * * * * * * * * * * * //

dimensions      [1 -1 -2 0 0 0 0];

internalField   nonuniform List<scalar> 
3829
(
1.58779
1.58728
1.58622
1.5846
1.5824
1.57959
1.57613
1.57199
1.56713
1.56151
1.55509
1.54783
1.53966
1.53055
1.52043
1.50927
1.49701
1.48361
1.46902
1.45319
1.43609
1.41769
1.39794
1.37686
1.35441
1.33061
1.30547
1.27901
1.25127
1.2223
1.19216
1.16091
1.12863
1.09542
1.06137
1.02658
0.991167
0.955244
0.918931
0.88235
0.845628
0.808893
0.772273
0.735897
0.699891
0.664379
0.62948
0.595302
0.561938
0.530003
0.499362
0.470078
0.442222
0.415854
0.391026
0.367773
0.346123
0.326085
0.307657
0.290825
0.275565
0.261848
0.249626
0.238836
0.229395
0.221201
0.214142
0.208087
0.202897
0.198422
0.194501
0.190979
0.187659
0.184382
0.180978
0.177279
0.173124
0.168362
0.162855
0.15648
0.149135
0.140741
0.131257
0.120547
0.108665
0.0956631
0.0816018
0.066559
0.0506337
0.0339564
0.0166838
-0.00100495
-0.0189089
-0.0368132
-0.0544949
-0.0717212
-0.0882628
-0.10389
-0.11839
-0.13156
-0.143217
-0.15321
-0.161418
-0.167758
-0.172195
-0.174246
-0.174361
-0.172575
-0.168954
-0.163608
-0.156682
-0.148354
-0.138827
-0.128326
-0.117092
-0.105372
-0.0934201
-0.0814932
-0.0698322
-0.058671
-0.0482264
-0.0386966
-0.0302535
-0.0230422
-0.0171795
-0.0127523
-0.00981528
-0.00839341
-0.00848382
-0.0100476
-0.0130248
-0.0173289
-0.0228517
-0.0294664
-0.0370309
-0.0453907
-0.054381
-0.063833
-0.0735769
-0.0834433
-0.0932672
-0.102851
-0.112117
-0.120897
-0.129066
-0.136517
-0.143158
-0.148913
-0.153727
-0.157559
-0.160388
-0.16221
-0.163048
-0.16292
-0.161869
-0.159948
-0.157224
-0.153774
-0.149683
-0.145041
-0.139946
-0.134495
-0.128789
-0.122928
-0.117009
-0.111128
-0.105371
-0.0998246
-0.094564
-0.0896583
-0.0851683
-0.081146
-0.0776341
-0.0746665
-0.0722662
-0.0704479
-0.0692167
-0.068568
-0.0684886
-0.0689574
-0.0699418
-0.0714067
-0.0733089
-0.0755992
-0.0782236
-0.0811238
-0.0842391
-0.087507
-0.0908642
-0.0942467
-0.0975909
-0.100835
-0.103919
-0.106784
-0.109375
-0.111639
-0.113527
-0.114996
-0.116006
-0.116524
1.63967
1.63926
1.63843
1.63716
1.6354
1.63313
1.63031
1.62688
1.62281
1.61803
1.61249
1.60611
1.5988
1.59049
1.58107
1.57045
1.55854
1.54526
1.53053
1.51428
1.49644
1.47696
1.45578
1.43287
1.40822
1.38183
1.35371
1.32392
1.29251
1.25957
1.22521
1.18953
1.15266
1.11475
1.07594
1.03639
0.996236
0.955611
0.914671
0.873572
0.832476
0.791548
0.750953
0.710855
0.671417
0.632799
0.595159
0.558653
0.523476
0.489173
0.456749
0.426133
0.397366
0.370492
0.345547
0.322554
0.301526
0.282463
0.265356
0.250179
0.236896
0.225451
0.215764
0.207735
0.201244
0.196152
0.192305
0.189535
0.187665
0.186502
0.185856
0.185498
0.185208
0.184788
0.184032
0.182741
0.180722
0.177798
0.173807
0.168609
0.162079
0.154111
0.144617
0.133569
0.121028
0.107048
0.091701
0.0750942
0.0573718
0.0387075
0.0193047
-0.000608211
-0.0207784
-0.040941
-0.0608213
-0.0801362
-0.098609
-0.115966
-0.131952
-0.146335
-0.158902
-0.169476
-0.177902
-0.184076
-0.187892
-0.189664
-0.189121
-0.186351
-0.181487
-0.174698
-0.166177
-0.156153
-0.14487
-0.132598
-0.119621
-0.106219
-0.0926795
-0.0792917
-0.0663173
-0.0540082
-0.0425955
-0.0322846
-0.0232524
-0.015641
-0.00956212
-0.00509296
-0.00227598
-0.0011207
-0.00159948
-0.00366286
-0.00722896
-0.0121917
-0.0184245
-0.02578
-0.0340985
-0.0432092
-0.0529327
-0.0630866
-0.0734894
-0.0839612
-0.0943281
-0.104415
-0.114094
-0.123219
-0.131665
-0.139323
-0.146105
-0.151937
-0.156768
-0.160563
-0.163304
-0.164988
-0.165669
-0.165345
-0.164072
-0.161909
-0.158932
-0.15522
-0.150866
-0.145964
-0.140615
-0.134922
-0.128987
-0.122914
-0.116803
-0.110749
-0.104842
-0.0991662
-0.0937983
-0.088807
-0.0842527
-0.0801864
-0.0766499
-0.0736755
-0.0712853
-0.0694922
-0.0682997
-0.0677016
-0.067683
-0.0682204
-0.0692821
-0.0708295
-0.0728177
-0.075196
-0.0779087
-0.0808961
-0.0840961
-0.0874453
-0.0908794
-0.0943338
-0.0977447
-0.10105
-0.104189
-0.107103
-0.109736
-0.112036
-0.113954
-0.115445
-0.116471
-0.116997
1.71324
1.71317
1.71302
1.71275
1.71233
1.71171
1.7108
1.70952
1.70776
1.7054
1.7023
1.69832
1.69333
1.68721
1.67988
1.67116
1.66087
1.64882
1.63484
1.61876
1.60042
1.57965
1.55632
1.53032
1.50159
1.47018
1.43626
1.40002
1.36168
1.32141
1.27943
1.23587
1.19088
1.14463
1.09731
1.04909
1.00022
0.950928
0.901447
0.852013
0.802863
0.754227
0.70633
0.659388
0.613618
0.569229
0.526418
0.485346
0.44613
0.408919
0.373911
0.341676
0.312036
0.284968
0.260475
0.238566
0.219248
0.202512
0.188334
0.176665
0.167433
0.16053
0.155822
0.153145
0.152314
0.153128
0.155365
0.158784
0.163123
0.168113
0.173475
0.178929
0.184186
0.188967
0.192996
0.196011
0.19777
0.198053
0.19668
0.193509
0.188457
0.181541
0.171339
0.159236
0.145151
0.129085
0.111125
0.0914336
0.0702192
0.0477354
0.0242724
0.00015121
-0.0242789
-0.0486584
-0.0726156
-0.0957756
-0.117777
-0.138269
-0.156939
-0.173493
-0.187677
-0.199293
-0.208185
-0.214255
-0.217452
-0.217979
-0.215738
-0.21086
-0.203533
-0.193988
-0.182491
-0.169346
-0.154875
-0.139421
-0.123334
-0.106962
-0.090651
-0.0747287
-0.0594995
-0.0452442
-0.0322137
-0.0206229
-0.0106514
-0.00243448
0.0039295
0.00838298
0.0109093
0.0115264
0.010298
0.00730658
0.0026675
-0.0034777
-0.0109687
-0.0196273
-0.029263
-0.0396769
-0.0506645
-0.0620221
-0.0735495
-0.0850504
-0.0963313
-0.107233
-0.117607
-0.127305
-0.136201
-0.144193
-0.151194
-0.157138
-0.161981
-0.165698
-0.168284
-0.169757
-0.170119
-0.169442
-0.16778
-0.165201
-0.161787
-0.157629
-0.152826
-0.147482
-0.141704
-0.135601
-0.129282
-0.122853
-0.116419
-0.110078
-0.103919
-0.098029
-0.0924839
-0.0873521
-0.082693
-0.0785561
-0.0749809
-0.0719979
-0.0696272
-0.0678789
-0.0667538
-0.0662429
-0.0663286
-0.0669844
-0.0681764
-0.0698632
-0.071997
-0.0745239
-0.0773856
-0.0805198
-0.0838622
-0.0873476
-0.0909104
-0.0944852
-0.0980074
-0.101415
-0.104645
-0.107641
-0.110345
-0.112705
-0.114672
-0.116202
-0.117253
-0.117792
1.7942
1.79501
1.79662
1.79899
1.80206
1.80572
1.80979
1.81411
1.81841
1.8224
1.82572
1.82792
1.82863
1.82748
1.82407
1.81815
1.80966
1.79849
1.78472
1.7685
1.74884
1.72568
1.69905
1.66899
1.63557
1.59884
1.55879
1.51551
1.46913
1.41855
1.36497
1.30881
1.25048
1.19041
1.12902
1.06672
1.00392
0.940981
0.878276
0.816152
0.754946
0.694977
0.636547
0.579952
0.525438
0.473244
0.423577
0.376676
0.332733
0.291887
0.253321
0.219761
0.189576
0.162803
0.139493
0.119672
0.103353
0.0905146
0.0810993
0.0750003
0.0720634
0.0721029
0.0749041
0.0802194
0.087775
0.0972723
0.108387
0.120774
0.134068
0.147888
0.16185
0.175561
0.188627
0.200665
0.211304
0.220185
0.22698
0.231391
0.233141
0.231994
0.227756
0.220216
0.210394
0.197313
0.181091
0.161896
0.139969
0.115606
0.089141
0.0609595
0.0314888
0.00119334
-0.0294363
-0.0598983
-0.089687
-0.118293
-0.145246
-0.170086
-0.192405
-0.211858
-0.228138
-0.24102
-0.250348
-0.256042
-0.258113
-0.256682
-0.251844
-0.243818
-0.232881
-0.219362
-0.203635
-0.186106
-0.167207
-0.147379
-0.127068
-0.106697
-0.0867141
-0.0674573
-0.0493027
-0.0325633
-0.0175078
-0.00435949
0.0067061
0.0155685
0.0221545
0.0264371
0.0284385
0.0282198
0.0258886
0.0215761
0.0154429
0.00767683
-0.00151815
-0.0119214
-0.0233036
-0.0354322
-0.0480703
-0.0609885
-0.073967
-0.0867984
-0.0991914
-0.111133
-0.122376
-0.132782
-0.142227
-0.150613
-0.157861
-0.163913
-0.168738
-0.172322
-0.174672
-0.175816
-0.175787
-0.174651
-0.17248
-0.169357
-0.165376
-0.16064
-0.15526
-0.149349
-0.143023
-0.136398
-0.12959
-0.122711
-0.115872
-0.10917
-0.102696
-0.0965393
-0.0907752
-0.0854712
-0.0806849
-0.0764636
-0.0728448
-0.0698559
-0.0675141
-0.0658263
-0.0647902
-0.0643932
-0.0646141
-0.0654223
-0.0667815
-0.0686467
-0.0709663
-0.0736828
-0.0767339
-0.0800543
-0.0835768
-0.087234
-0.0909588
-0.0946849
-0.098347
-0.101882
-0.105228
-0.108325
-0.111118
-0.113554
-0.115583
-0.11716
-0.118244
-0.1188
1.83916
1.84197
1.84763
1.85608
1.86719
1.88077
1.89651
1.91406
1.93304
1.95307
1.97334
1.99293
2.01085
2.02599
2.03707
2.04178
2.04382
2.04167
2.0342
2.02045
2.00096
1.97537
1.94343
1.90509
1.86034
1.80937
1.75244
1.69028
1.62335
1.5536
1.47905
1.40155
1.32199
1.24096
1.15904
1.07677
0.994723
0.9134
0.833271
0.754772
0.678311
0.604272
0.533011
0.464862
0.400148
0.339165
0.282175
0.229401
0.181073
0.137449
0.0988356
0.0622531
0.0312749
0.00531203
-0.0157779
-0.0320593
-0.0436036
-0.0505253
-0.0529787
-0.0511753
-0.0453553
-0.0357944
-0.0228118
-0.00676706
0.011953
0.0329276
0.0557042
0.0798054
0.104726
0.129945
0.154943
0.17919
0.202152
0.223323
0.242217
0.258363
0.271348
0.280789
0.286362
0.287819
0.284924
0.277572
0.266124
0.25034
0.230323
0.206308
0.178632
0.147713
0.114031
0.0781351
0.0406295
0.00215504
-0.0366069
-0.0749718
-0.11226
-0.147803
-0.180973
-0.211193
-0.237952
-0.260821
-0.279451
-0.293594
-0.30311
-0.307949
-0.308208
-0.304021
-0.295647
-0.28342
-0.267743
-0.249085
-0.227957
-0.204907
-0.180493
-0.155281
-0.129827
-0.104671
-0.0803017
-0.0571501
-0.0356325
-0.0160908
0.00119285
0.0159932
0.0281479
0.0375622
0.0442004
0.0480796
0.0492711
0.0479047
0.0441305
0.0381355
0.0301393
0.020383
0.00912349
-0.00336815
-0.0168214
-0.0309642
-0.045525
-0.0602433
-0.0748731
-0.089174
-0.102923
-0.115992
-0.128188
-0.139361
-0.14939
-0.158183
-0.16567
-0.171805
-0.176567
-0.179959
-0.182004
-0.18275
-0.182242
-0.18056
-0.177789
-0.174029
-0.16939
-0.163988
-0.157944
-0.151384
-0.144432
-0.137215
-0.129853
-0.122466
-0.115179
-0.10807
-0.101246
-0.0947945
-0.0887901
-0.0832989
-0.0783762
-0.0740667
-0.0704051
-0.0674157
-0.0651121
-0.0634979
-0.0625668
-0.0623027
-0.0626806
-0.0636634
-0.065214
-0.067283
-0.0698144
-0.0727463
-0.0760124
-0.0795434
-0.0832689
-0.087119
-0.0910253
-0.0949207
-0.0987392
-0.102417
-0.105891
-0.109102
-0.111994
-0.114515
-0.116613
-0.118243
-0.119363
-0.119937
1.78207
1.78854
1.80155
1.82103
1.84668
1.87804
1.9144
1.95482
1.99806
2.04262
2.0874
2.13141
2.17379
2.21394
2.25416
2.29052
2.31715
2.33414
2.34106
2.33745
2.32291
2.29727
2.26042
2.21252
2.15397
2.08522
1.99847
1.91192
1.81771
1.71686
1.61208
1.50582
1.39808
1.28957
1.18096
1.07265
0.966209
0.861956
0.760438
0.662181
0.567676
0.477338
0.391536
0.310585
0.234758
0.164305
0.0994479
0.0403698
-0.0127892
-0.0599301
-0.101006
-0.136054
-0.164593
-0.187153
-0.203637
-0.214055
-0.218498
-0.217146
-0.210233
-0.198041
-0.180898
-0.159189
-0.133346
-0.103856
-0.0712429
-0.0360742
0.00104221
0.0394698
0.0785321
0.11755
0.155833
0.192687
0.227417
0.259369
0.287917
0.312465
0.332484
0.34752
0.357201
0.361214
0.359349
0.351257
0.337371
0.317679
0.292404
0.261906
0.226655
0.187236
0.144318
0.0986534
0.0510679
0.00243635
-0.0463334
-0.0943321
-0.140673
-0.184492
-0.224991
-0.261439
-0.29322
-0.319821
-0.340853
-0.356062
-0.36534
-0.368711
-0.366342
-0.358502
-0.345584
-0.328076
-0.30655
-0.281645
-0.254041
-0.224451
-0.193587
-0.162151
-0.130819
-0.100327
-0.0710785
-0.0436625
-0.0185307
0.00395333
0.0235017
0.0399009
0.0530198
0.0627995
0.0692495
0.0724436
0.0725081
0.0696966
0.0641559
0.0561543
0.0459782
0.0339326
0.0203299
0.00548991
-0.0102664
-0.0266274
-0.0432898
-0.0599662
-0.0763811
-0.0922239
-0.107388
-0.121652
-0.134833
-0.146785
-0.157393
-0.166574
-0.174268
-0.180443
-0.185093
-0.188234
-0.189907
-0.190197
-0.189149
-0.186854
-0.183419
-0.17896
-0.173603
-0.167476
-0.160716
-0.153457
-0.145837
-0.137988
-0.130038
-0.122111
-0.114354
-0.106819
-0.0996305
-0.0928735
-0.0866227
-0.0809412
-0.0758817
-0.0714865
-0.0677868
-0.0648037
-0.062547
-0.0610166
-0.060202
-0.0600835
-0.0606336
-0.0618035
-0.0635598
-0.0658476
-0.0686058
-0.0717681
-0.0752634
-0.0790182
-0.0829585
-0.087012
-0.0911091
-0.0951822
-0.0991647
-0.102992
-0.1066
-0.10993
-0.112926
-0.115535
-0.117705
-0.119392
-0.12055
-0.121144
1.59755
1.61169
1.64019
1.68291
1.73938
1.80866
1.88933
1.97938
2.0762
2.17706
2.27937
2.38057
2.47788
2.56792
2.64523
2.71252
2.76709
2.80676
2.82982
2.83499
2.82138
2.78848
2.73615
2.66395
2.57483
2.46919
2.349
2.21775
2.0786
1.93481
1.78387
1.63093
1.47851
1.32839
1.18183
1.03968
0.902605
0.771041
0.645306
0.525662
0.412334
0.305567
0.205568
0.112515
0.026558
-0.0521465
-0.123461
-0.187272
-0.243493
-0.292082
-0.333036
-0.366457
-0.391191
-0.408667
-0.418682
-0.421247
-0.416517
-0.404732
-0.386191
-0.361263
-0.330379
-0.294046
-0.252825
-0.207352
-0.158311
-0.106443
-0.0525272
0.00261165
0.0581074
0.113076
0.166639
0.217914
0.266019
0.310129
0.349459
0.383268
0.410907
0.431824
0.445585
0.451919
0.450822
0.440764
0.423304
0.398419
0.366407
0.327749
0.283095
0.233239
0.179086
0.121646
0.0620113
0.00133424
-0.0591743
-0.118401
-0.175189
-0.228439
-0.277169
-0.320486
-0.357662
-0.38811
-0.411408
-0.42732
-0.435791
-0.43695
-0.431088
-0.418627
-0.400134
-0.376288
-0.347862
-0.3157
-0.280672
-0.243677
-0.205602
-0.167301
-0.12959
-0.0932792
-0.058884
-0.0270312
0.00179182
0.0272061
0.0489287
0.0667698
0.0806408
0.0905352
0.0965214
0.0987488
0.0974487
0.0928368
0.0852274
0.0749407
0.0623315
0.0477659
0.0316159
0.0142536
-0.00395555
-0.0226602
-0.041525
-0.0602419
-0.0785489
-0.0958451
-0.112487
-0.127958
-0.142113
-0.154819
-0.165973
-0.175501
-0.183359
-0.189526
-0.194014
-0.196851
-0.198084
-0.197885
-0.196249
-0.193296
-0.189154
-0.183957
-0.177847
-0.170965
-0.163461
-0.155482
-0.147173
-0.138677
-0.130129
-0.12166
-0.113411
-0.105454
-0.0979018
-0.0908425
-0.0843492
-0.0784822
-0.0732918
-0.0688172
-0.0650863
-0.0621168
-0.0599143
-0.058475
-0.0577841
-0.0578182
-0.0585518
-0.0599119
-0.0618816
-0.0643954
-0.0673873
-0.0707864
-0.0745169
-0.0785004
-0.0826591
-0.0869184
-0.0912081
-0.0954604
-0.0996083
-0.103586
-0.10733
-0.110779
-0.113879
-0.116576
-0.11882
-0.120563
-0.12176
-0.122374
1.11962
1.14625
1.2002
1.28189
1.39117
1.52745
1.68877
1.87331
2.07672
2.28504
2.48751
2.67297
2.84818
3.00882
3.15049
3.2701
3.36534
3.43453
3.47629
3.48954
3.4734
3.42704
3.34984
3.24239
3.10549
2.94142
2.75288
2.5468
2.33071
2.11023
1.89992
1.6952
1.4972
1.30671
1.12409
0.949667
0.783771
0.626711
0.478739
0.339655
0.209574
0.0884615
-0.0236652
-0.126774
-0.220836
-0.305805
-0.381615
-0.448182
-0.505382
-0.553082
-0.591159
-0.619364
-0.640897
-0.652643
-0.654948
-0.648119
-0.632468
-0.608351
-0.576179
-0.536427
-0.489651
-0.436493
-0.377668
-0.313974
-0.246277
-0.175508
-0.102647
-0.0287268
0.0451654
0.117925
0.188461
0.255676
0.318475
0.375842
0.426809
0.470472
0.506039
0.532827
0.550253
0.557837
0.555133
0.543794
0.522263
0.491108
0.450936
0.40248
0.346647
0.284497
0.21722
0.146129
0.0726259
-0.00183795
-0.0755571
-0.147423
-0.215832
-0.279452
-0.337092
-0.387707
-0.430446
-0.464659
-0.489914
-0.506014
-0.512995
-0.51115
-0.500904
-0.482859
-0.457803
-0.42664
-0.390376
-0.35008
-0.306835
-0.261745
-0.21588
-0.170253
-0.125852
-0.083485
-0.0438131
-0.00749336
0.0249631
0.0531769
0.0768887
0.0959454
0.110307
0.120031
0.125258
0.126213
0.123253
0.116621
0.106711
0.0939271
0.0786977
0.0614546
0.0426264
0.0226375
0.0018969
-0.0192047
-0.0402984
-0.0610446
-0.081119
-0.100164
-0.11814
-0.134756
-0.149836
-0.163248
-0.174897
-0.184722
-0.192691
-0.198804
-0.203086
-0.205581
-0.206288
-0.205612
-0.203351
-0.199709
-0.194836
-0.188882
-0.182004
-0.174357
-0.166104
-0.157401
-0.148404
-0.139263
-0.130122
-0.121117
-0.112385
-0.104013
-0.0961077
-0.0887569
-0.0820316
-0.0759894
-0.0706775
-0.0661319
-0.0623774
-0.0594279
-0.0572856
-0.0559423
-0.055379
-0.0555662
-0.0564581
-0.0580377
-0.0602247
-0.0629654
-0.0661916
-0.0698278
-0.0737931
-0.0780042
-0.0823789
-0.0868408
-0.0913195
-0.0957477
-0.100058
-0.104184
-0.10806
-0.111626
-0.114827
-0.117611
-0.119927
-0.121726
-0.122961
-0.123595
0.28164
0.324777
0.412169
0.544219
0.720678
0.940024
1.20058
1.49856
1.82406
2.16446
2.51192
2.86534
3.19032
3.4834
3.74093
3.95962
4.13651
4.26876
4.35397
4.39012
4.37564
4.30922
4.19215
4.02474
3.80924
3.54945
3.25232
2.92727
2.6049
2.29527
1.99951
1.72088
1.4609
1.21942
0.995705
0.788597
0.596786
0.419061
0.254136
0.100955
-0.0409868
-0.171997
-0.292314
-0.402094
-0.501374
-0.590136
-0.668335
-0.735894
-0.792734
-0.83877
-0.87395
-0.898325
-0.912194
-0.915332
-0.907774
-0.889696
-0.861379
-0.823209
-0.775668
-0.719324
-0.654849
-0.583032
-0.504747
-0.420977
-0.33278
-0.241288
-0.147712
-0.0533223
0.0405684
0.132604
0.221464
0.30581
0.384316
0.455761
0.518988
0.572916
0.616611
0.649288
0.670313
0.679258
0.675945
0.660595
0.63321
0.594223
0.544335
0.484472
0.415786
0.33964
0.25754
0.171141
0.0822024
-0.00745058
-0.0958707
-0.18144
-0.262363
-0.33703
-0.404031
-0.46215
-0.510426
-0.548166
-0.574943
-0.590607
-0.595301
-0.589713
-0.574227
-0.549704
-0.517185
-0.477844
-0.432952
-0.383809
-0.331738
-0.278052
-0.224004
-0.170752
-0.119572
-0.0710677
-0.0261308
0.0145594
0.0504874
0.0812894
0.106742
0.126743
0.141314
0.15059
0.154787
0.15415
0.149354
0.140489
0.128096
0.112664
0.0946935
0.0746798
0.0531098
0.0304557
0.00716608
-0.0163302
-0.0396367
-0.0623889
-0.0842173
-0.104872
-0.124169
-0.141876
-0.15782
-0.171877
-0.183962
-0.194027
-0.202059
-0.208071
-0.212115
-0.214272
-0.214718
-0.213247
-0.210306
-0.205958
-0.200347
-0.193637
-0.185994
-0.177589
-0.168596
-0.159181
-0.14951
-0.13974
-0.130021
-0.120497
-0.111301
-0.102531
-0.0942888
-0.0866627
-0.0797203
-0.073516
-0.0680937
-0.0634861
-0.0597154
-0.0567917
-0.0547138
-0.0534693
-0.0530352
-0.0533775
-0.0544508
-0.0562228
-0.0586214
-0.0615849
-0.065041
-0.0689099
-0.0731054
-0.0775383
-0.0821226
-0.0867798
-0.0914401
-0.0960373
-0.100504
-0.104773
-0.108776
-0.112453
-0.115751
-0.118618
-0.121004
-0.122857
-0.124129
-0.124782
-1.04111
-0.975495
-0.840033
-0.628259
-0.333226
0.0619636
0.566537
1.20064
2.08359
2.77766
3.38008
3.89513
4.3395
4.71864
5.0351
5.29132
5.48908
5.6293
5.71192
5.73597
5.69961
5.60092
5.43349
5.19341
4.87037
4.45783
3.94878
3.23623
2.72224
2.28099
1.9015
1.57106
1.2756
1.00896
0.765664
0.543156
0.339498
0.154303
-0.0194385
-0.180063
-0.328262
-0.464552
-0.589303
-0.702662
-0.804651
-0.895182
-0.974114
-1.04127
-1.09647
-1.13955
-1.17037
-1.18882
-1.19508
-1.18898
-1.17062
-1.14021
-1.09805
-1.04459
-0.980381
-0.906099
-0.822541
-0.73065
-0.631462
-0.526168
-0.416037
-0.302423
-0.186766
-0.070644
0.0444643
0.156892
0.265061
0.367388
0.462305
0.548368
0.624221
0.688595
0.740418
0.778797
0.803032
0.812666
0.807528
0.787695
0.75347
0.70545
0.644522
0.571847
0.488861
0.397259
0.298891
0.195795
0.0901266
-0.015904
-0.120007
-0.220141
-0.314233
-0.400381
-0.476967
-0.542604
-0.59624
-0.637153
-0.664946
-0.679537
-0.680974
-0.671102
-0.649567
-0.617748
-0.576997
-0.52878
-0.474631
-0.416121
-0.354814
-0.292231
-0.229804
-0.168854
-0.11083
-0.0562748
-0.00622232
0.0386401
0.0778002
0.110925
0.137836
0.158497
0.173002
0.181576
0.184547
0.182374
0.17528
0.163982
0.148976
0.130806
0.110036
0.0872224
0.0629042
0.0375983
0.0117942
-0.01405
-0.0395125
-0.0642157
-0.0877112
-0.109884
-0.130438
-0.149163
-0.165901
-0.180536
-0.192995
-0.203246
-0.211291
-0.217163
-0.220929
-0.222689
-0.222573
-0.220584
-0.216994
-0.211949
-0.20561
-0.198155
-0.189764
-0.180621
-0.170909
-0.160807
-0.150486
-0.14011
-0.129838
-0.119821
-0.110185
-0.101037
-0.0924792
-0.084597
-0.0774548
-0.071103
-0.0655818
-0.0609214
-0.0571412
-0.0542478
-0.0522369
-0.0510919
-0.0507859
-0.0512815
-0.0525301
-0.05449
-0.0570929
-0.0602717
-0.0639502
-0.068044
-0.0724615
-0.0771077
-0.081892
-0.0867344
-0.0915665
-0.0963239
-0.10094
-0.105343
-0.109466
-0.113248
-0.116637
-0.119584
-0.122036
-0.12394
-0.125248
-0.125919
-2.89944
-2.82301
-2.66342
-2.41027
-2.04624
-1.54828
-0.882528
-0.0244986
1.29497
2.31633
3.21761
4.00065
4.67331
5.24555
5.72323
6.11146
6.41351
6.63125
6.76513
6.81422
6.77617
6.64724
6.42099
6.09002
5.64199
5.06371
4.35845
3.33108
2.66932
2.11603
1.66627
1.29227
0.972613
0.694103
0.447547
0.225036
0.0317769
-0.155352
-0.328655
-0.489441
-0.638449
-0.776034
-0.902247
-1.01699
-1.12002
-1.21104
-1.28969
-1.35562
-1.40848
-1.44794
-1.47375
-1.48569
-1.48377
-1.46786
-1.43808
-1.39463
-1.33786
-1.26829
-1.18653
-1.09339
-0.98978
-0.876825
-0.755743
-0.627922
-0.494852
-0.358138
-0.219481
-0.0806835
0.0564339
0.18997
0.318074
0.4389
0.550623
0.651573
0.740179
0.814991
0.87479
0.918567
0.945547
0.955249
0.947498
0.922422
0.880465
0.822401
0.749338
0.662706
0.564256
0.456023
0.340245
0.219371
0.0959907
-0.0272514
-0.147732
-0.263011
-0.370653
-0.468494
-0.554679
-0.627675
-0.686364
-0.730015
-0.758311
-0.77143
-0.770118
-0.754055
-0.725533
-0.685698
-0.63611
-0.578496
-0.514666
-0.446465
-0.375694
-0.304087
-0.233263
-0.164728
-0.0998725
-0.0394881
0.0154423
0.0642098
0.106314
0.141467
0.169547
0.190589
0.20477
0.212406
0.213909
0.209809
0.200511
0.186718
0.169042
0.148104
0.124532
0.0989407
0.0719155
0.0440185
0.0157732
-0.0123367
-0.0398639
-0.0664115
-0.0915172
-0.115097
-0.136818
-0.156481
-0.173935
-0.18908
-0.201854
-0.21224
-0.220257
-0.225955
-0.229419
-0.23076
-0.230113
-0.227569
-0.223346
-0.217621
-0.210574
-0.202396
-0.193284
-0.183431
-0.173032
-0.162273
-0.151333
-0.140383
-0.129586
-0.119108
-0.109059
-0.0995571
-0.0907067
-0.0825895
-0.0752654
-0.0687809
-0.0631723
-0.0584676
-0.0546835
-0.0518241
-0.0498811
-0.0488344
-0.0486536
-0.049298
-0.0507139
-0.0528546
-0.0556526
-0.0590369
-0.0629277
-0.0672363
-0.0718655
-0.0767144
-0.0816873
-0.0867031
-0.0916956
-0.096603
-0.101359
-0.10589
-0.110125
-0.114004
-0.117478
-0.120499
-0.123013
-0.124966
-0.126308
-0.126995
-5.25658
-5.22835
-5.17021
-5.09102
-4.99335
-4.89363
-4.82598
-4.72587
1.32834
1.16366
1.03839
0.862492
0.665695
0.465205
0.259371
0.0616763
-0.129162
-0.310835
-0.485203
-0.651136
-0.807931
-0.955112
-1.09221
-1.21872
-1.33406
-1.43763
-1.52879
-1.60693
-1.67144
-1.72179
-1.75748
-1.77812
-1.78346
-1.77305
-1.74706
-1.70554
-1.6487
-1.57692
-1.49075
-1.39095
-1.27839
-1.15417
-1.01955
-0.875965
-0.725014
-0.568427
-0.40806
-0.24588
-0.0839493
0.0756147
0.230619
0.378949
0.518484
0.647135
0.762992
0.864281
0.94936
1.01686
1.06566
1.09491
1.10411
1.09311
1.06211
1.01167
0.942751
0.856715
0.755258
0.640474
0.514755
0.380752
0.241342
0.0995816
-0.0413465
-0.178634
-0.309345
-0.43069
-0.540209
-0.635836
-0.715903
-0.779228
-0.8251
-0.853298
-0.864118
-0.858325
-0.836598
-0.800733
-0.752433
-0.693597
-0.626256
-0.552515
-0.474482
-0.394192
-0.313592
-0.234463
-0.158564
-0.0871214
-0.0211595
0.0383581
0.0907199
0.135459
0.172337
0.201304
0.222469
0.236104
0.242608
0.242482
0.236353
0.224757
0.208431
0.188078
0.164392
0.138062
0.109757
0.0801068
0.0497131
0.0191293
-0.0111389
-0.0406215
-0.0688818
-0.0955315
-0.120404
-0.143196
-0.16371
-0.181806
-0.197393
-0.210426
-0.220903
-0.228858
-0.234357
-0.237502
-0.23842
-0.23726
-0.234158
-0.229318
-0.222936
-0.215208
-0.20634
-0.196539
-0.186012
-0.174962
-0.163583
-0.152061
-0.140571
-0.129279
-0.118379
-0.107941
-0.098112
-0.0889931
-0.0806623
-0.0731744
-0.0665714
-0.0608863
-0.0561449
-0.0523616
-0.0495383
-0.0476631
-0.0467122
-0.0466521
-0.0474393
-0.049013
-0.0513256
-0.0543081
-0.0578863
-0.0619778
-0.0664895
-0.0713189
-0.0763585
-0.0815075
-0.0866841
-0.0918247
-0.0968713
-0.101757
-0.106407
-0.110746
-0.114715
-0.118267
-0.121356
-0.123929
-0.125928
-0.127301
-0.128005
-7.46968
-7.45411
-7.42185
-7.37738
-7.31917
-7.25653
-7.20824
-7.11976
0.756232
0.617279
0.513628
0.373204
0.214425
0.0576702
-0.137445
-0.304681
-0.474191
-0.642073
-0.806561
-0.966129
-1.11937
-1.26505
-1.402
-1.52914
-1.64544
-1.74989
-1.84153
-1.91945
-1.98282
-2.03086
-2.06294
-2.0785
-2.07712
-2.05845
-2.02245
-1.96918
-1.89887
-1.81195
-1.70906
-1.59102
-1.45885
-1.31379
-1.15729
-0.990978
-0.816686
-0.636386
-0.45219
-0.266328
-0.0811498
0.10093
0.277433
0.445964
0.60413
0.749574
0.880154
0.993881
1.08893
1.16377
1.21719
1.24825
1.25643
1.24168
1.20419
1.14469
1.06435
0.964746
0.847885
0.7162
0.572469
0.419754
0.261362
0.100799
-0.0578386
-0.212154
-0.358348
-0.493319
-0.614316
-0.719077
-0.805825
-0.873326
-0.920899
-0.948438
-0.956395
-0.945787
-0.917736
-0.874149
-0.81707
-0.748746
-0.671527
-0.587812
-0.499971
-0.410273
-0.320842
-0.233601
-0.150717
-0.0729703
-0.00174174
0.0620275
0.117652
0.164708
0.203023
0.232615
0.253682
0.266582
0.271807
0.269933
0.261723
0.247792
0.22894
0.205946
0.179571
0.150564
0.119643
0.0874812
0.0547099
0.0219111
-0.0103914
-0.0417087
-0.0715593
-0.099639
-0.125703
-0.149472
-0.170753
-0.189417
-0.205385
-0.218627
-0.229156
-0.237022
-0.242307
-0.245126
-0.245622
-0.243967
-0.240318
-0.234886
-0.227876
-0.219501
-0.209977
-0.199527
-0.188365
-0.176704
-0.164745
-0.15268
-0.140687
-0.128931
-0.117648
-0.106848
-0.0967178
-0.0873546
-0.0788312
-0.0711971
-0.0644891
-0.0587373
-0.0539656
-0.0501871
-0.047401
-0.0455923
-0.0447336
-0.0447883
-0.0457113
-0.0474329
-0.0499071
-0.0530623
-0.0568222
-0.0611016
-0.0658039
-0.0708209
-0.0760387
-0.0813509
-0.0866751
-0.0919515
-0.0971263
-0.102133
-0.106893
-0.111328
-0.115378
-0.119001
-0.122154
-0.124782
-0.126823
-0.128225
-0.128943
-9.50422
-9.49609
-9.47855
-9.45644
-9.42717
-9.39932
-9.37908
-9.34553
0.19478
0.116054
0.0450385
-0.0538494
-0.183
-0.312599
-0.469068
-0.625951
-0.785319
-0.945602
-1.10503
-1.26174
-1.41395
-1.55998
-1.69822
-1.82716
-1.94537
-2.05151
-2.14431
-2.22261
-2.28532
-2.3315
-2.36032
-2.3711
-2.36331
-2.33657
-2.29075
-2.2259
-2.14228
-2.04035
-1.92084
-1.78466
-1.63298
-1.46718
-1.2889
-1.09998
-0.902473
-0.698603
-0.490741
-0.28139
-0.0731823
0.131169
0.328906
0.517347
0.693826
0.855719
1.00065
1.12643
1.23103
1.31281
1.37042
1.40289
1.40965
1.39071
1.34633
1.27739
1.18526
1.07176
0.939193
0.790341
0.628375
0.456781
0.279279
0.0995784
-0.0761558
-0.247676
-0.409184
-0.557492
-0.689613
-0.803095
-0.896057
-0.967246
-1.01603
-1.04242
-1.04705
-1.03127
-0.996522
-0.944944
-0.878921
-0.801031
-0.713944
-0.620353
-0.522883
-0.424014
-0.326045
-0.230982
-0.141526
-0.0578028
0.0183233
0.0859841
0.144534
0.193604
0.233085
0.263072
0.283853
0.295876
0.299724
0.296015
0.285726
0.269465
0.24813
0.222566
0.193596
0.162024
0.128611
0.0940676
0.0590565
0.02418
-0.0100236
-0.0430586
-0.0743535
-0.103756
-0.130913
-0.155567
-0.177533
-0.196696
-0.212989
-0.226396
-0.236947
-0.244703
-0.249764
-0.252257
-0.252341
-0.25021
-0.246037
-0.240039
-0.232435
-0.22345
-0.213311
-0.202253
-0.190498
-0.178267
-0.165771
-0.153203
-0.140745
-0.128555
-0.116931
-0.105792
-0.0953868
-0.0858028
-0.077107
-0.069343
-0.0625424
-0.0567328
-0.0519364
-0.0481653
-0.0454169
-0.0436726
-0.0429015
-0.0430644
-0.044116
-0.0459745
-0.0485993
-0.0519154
-0.055844
-0.0602982
-0.065178
-0.0703699
-0.0757531
-0.0812154
-0.0866743
-0.0920742
-0.0973663
-0.102485
-0.107346
-0.111868
-0.115992
-0.11968
-0.122891
-0.125569
-0.12765
-0.129079
-0.12981
-11.339
-11.3347
-11.3251
-11.3137
-11.2984
-11.2847
-11.2737
-11.2593
-0.188204
-0.259288
-0.316981
-0.389976
-0.505955
-0.625997
-0.763188
-0.909727
-1.06256
-1.2191
-1.37694
-1.53377
-1.68743
-1.83583
-1.977
-2.10908
-2.23031
-2.33908
-2.43383
-2.51317
-2.57582
-2.62064
-2.64665
-2.65305
-2.63922
-2.60473
-2.54941
-2.4733
-2.37667
-2.26005
-2.12423
-1.97026
-1.79941
-1.61324
-1.41357
-1.20244
-0.982147
-0.755151
-0.524088
-0.291735
-0.0609982
0.165121
0.383571
0.5914
0.785666
0.963489
1.12226
1.25959
1.37327
1.46152
1.52292
1.55643
1.56152
1.538
1.48646
1.40789
1.30382
1.17634
1.02802
0.862012
0.68188
0.491537
0.295195
0.0972242
-0.0969297
-0.284672
-0.461008
-0.6222
-0.764971
-0.886682
-0.985359
-1.05975
-1.10928
-1.13411
-1.13502
-1.11384
-1.07217
-1.01248
-0.937489
-0.850106
-0.753309
-0.650071
-0.543262
-0.435567
-0.329458
-0.227136
-0.131126
-0.0419888
0.0386325
0.109822
0.170968
0.221763
0.262166
0.292352
0.312695
0.323739
0.326163
0.32075
0.308242
0.289687
0.265944
0.237909
0.206462
0.172457
0.136693
0.0999141
0.0628105
0.0260018
-0.00996296
-0.0445987
-0.0771912
-0.107815
-0.135966
-0.161417
-0.183993
-0.203592
-0.22016
-0.233695
-0.244241
-0.251875
-0.256708
-0.258881
-0.258566
-0.255982
-0.251311
-0.24478
-0.236619
-0.227063
-0.216351
-0.204726
-0.192421
-0.179665
-0.166672
-0.153642
-0.140758
-0.128164
-0.116235
-0.104781
-0.0941275
-0.0843452
-0.0754959
-0.0676169
-0.0607352
-0.0548753
-0.050059
-0.0462975
-0.043586
-0.0419035
-0.041215
-0.0414789
-0.0426517
-0.0446358
-0.0474003
-0.0508649
-0.0549494
-0.0595652
-0.0646093
-0.0699632
-0.0754992
-0.0810989
-0.0866798
-0.0921913
-0.0975903
-0.102811
-0.107765
-0.112367
-0.116558
-0.120304
-0.123568
-0.126293
-0.128411
-0.129863
-0.130607
-12.9782
-12.9757
-12.9701
-12.9636
-12.9547
-12.9472
-12.9407
-12.9337
-0.48572
-0.536943
-0.593637
-0.661992
-0.765363
-0.880916
-1.01195
-1.15452
-1.30554
-1.46212
-1.6215
-1.7811
-1.9384
-2.091
-2.2366
-2.37306
-2.49835
-2.61059
-2.70802
-2.78903
-2.85216
-2.8961
-2.91976
-2.9222
-2.90275
-2.86091
-2.79649
-2.70953
-2.60034
-2.4695
-2.31788
-2.14663
-1.95718
-1.75122
-1.53078
-1.29809
-1.05567
-0.806247
-0.552695
-0.298067
-0.0455273
0.201629
0.440071
0.666577
0.877941
1.07103
1.24302
1.39131
1.51355
1.60781
1.67258
1.70677
1.70984
1.68166
1.62287
1.53465
1.4187
1.27735
1.11348
0.930544
0.732551
0.52381
0.309019
0.0930352
-0.11872
-0.322355
-0.512985
-0.686509
-0.839373
-0.968775
-1.07266
-1.14977
-1.19965
-1.2226
-1.21949
-1.19278
-1.14409
-1.0763
-0.992456
-0.895781
-0.789546
-0.676992
-0.561226
-0.445126
-0.331322
-0.222167
-0.12005
-0.0258971
0.0588249
0.133189
0.196626
0.248882
0.289993
0.320215
0.340005
0.349999
0.350968
0.343718
0.329179
0.308418
0.28237
0.251984
0.218197
0.181903
0.14394
0.105079
0.066034
0.0274421
-0.0101409
-0.0462518
-0.0800241
-0.111766
-0.140812
-0.166976
-0.190092
-0.210071
-0.22687
-0.240502
-0.251025
-0.258527
-0.263133
-0.264998
-0.2643
-0.26129
-0.256149
-0.24912
-0.24044
-0.230353
-0.21911
-0.206963
-0.19415
-0.18091