/*--------------------------------*- C++ -*----------------------------------*\
  =========                 |
  \\      /  F ield         | OpenFOAM: The Open Source CFD Toolbox
   \\    /   O peration     | Website:  https://openfoam.org
    \\  /    A nd           | Version:  12
     \\/     M anipulation  |
\*---------------------------------------------------------------------------*/
FoamFile
{
    format      ascii;
    class       volVectorField;
    location    "17.08";
    object      U;
}
// * * * * * * * * * * * * * * * * * * * * * * * * * * * * * * * * * * * * * //

dimensions      [0 1 -1 0 0 0 0];

internalField   nonuniform List<vector> 
3829
(
(2.84884e-06 -0.000541286 0)
(6.72925e-06 -0.000574839 0)
(1.25984e-05 -0.000574496 0)
(1.72244e-05 -0.000572657 0)
(2.24337e-05 -0.000570191 0)
(2.7265e-05 -0.000567071 0)
(3.20096e-05 -0.000563308 0)
(3.64718e-05 -0.000558908 0)
(4.06988e-05 -0.000553876 0)
(4.45591e-05 -0.00054823 0)
(4.80723e-05 -0.000541991 0)
(5.11652e-05 -0.000535181 0)
(5.3772e-05 -0.000527827 0)
(5.59629e-05 -0.000519944 0)
(5.77009e-05 -0.000511567 0)
(5.90306e-05 -0.000502716 0)
(5.99803e-05 -0.000493425 0)
(6.06094e-05 -0.00048372 0)
(6.10056e-05 -0.000473636 0)
(6.12622e-05 -0.000463203 0)
(6.14786e-05 -0.000452468 0)
(6.18198e-05 -0.000441461 0)
(6.23742e-05 -0.000430232 0)
(6.32831e-05 -0.000418832 0)
(6.46412e-05 -0.000407291 0)
(6.65108e-05 -0.000395663 0)
(6.90554e-05 -0.000383969 0)
(7.22594e-05 -0.000372278 0)
(7.63407e-05 -0.000360536 0)
(8.13332e-05 -0.000348841 0)
(8.7015e-05 -0.000337166 0)
(9.36648e-05 -0.000325523 0)
(0.00010091 -0.00031393 0)
(0.000109129 -0.000302319 0)
(0.000118291 -0.000290733 0)
(0.00012792 -0.000279104 0)
(0.000138277 -0.000267428 0)
(0.000149139 -0.00025569 0)
(0.000160463 -0.000243854 0)
(0.000172158 -0.000231917 0)
(0.000184131 -0.000219888 0)
(0.000196238 -0.000207766 0)
(0.000208343 -0.000195542 0)
(0.000220285 -0.000183237 0)
(0.0002319 -0.000170867 0)
(0.000243 -0.000158445 0)
(0.000253363 -0.000145999 0)
(0.000262878 -0.000133538 0)
(0.000271294 -0.000121115 0)
(0.000278405 -0.000108725 0)
(0.000284002 -9.64332e-05 0)
(0.000287827 -8.421e-05 0)
(0.00028984 -7.21166e-05 0)
(0.000289928 -6.02784e-05 0)
(0.000287569 -4.87699e-05 0)
(0.000282607 -3.75335e-05 0)
(0.00027536 -2.67296e-05 0)
(0.000265715 -1.63532e-05 0)
(0.000253329 -6.48179e-06 0)
(0.000238738 2.95616e-06 0)
(0.000221963 1.17252e-05 0)
(0.000202613 1.98402e-05 0)
(0.000181262 2.73061e-05 0)
(0.000157921 3.39793e-05 0)
(0.000132502 3.98909e-05 0)
(0.000105576 4.49687e-05 0)
(7.72035e-05 4.91374e-05 0)
(4.77669e-05 5.24264e-05 0)
(1.79146e-05 5.47164e-05 0)
(-1.29893e-05 5.60053e-05 0)
(-4.41413e-05 5.63029e-05 0)
(-7.46086e-05 5.56218e-05 0)
(-0.000104293 5.39488e-05 0)
(-0.00013267 5.12869e-05 0)
(-0.000159319 4.76948e-05 0)
(-0.000184104 4.32023e-05 0)
(-0.000206026 3.78956e-05 0)
(-0.000225204 3.17674e-05 0)
(-0.000241084 2.50807e-05 0)
(-0.000253059 1.78124e-05 0)
(-0.000261423 1.00685e-05 0)
(-0.000265232 2.15565e-06 0)
(-0.000264336 -5.98358e-06 0)
(-0.000258705 -1.40894e-05 0)
(-0.000248179 -2.20294e-05 0)
(-0.000232979 -2.97188e-05 0)
(-0.000213498 -3.68631e-05 0)
(-0.000189833 -4.3398e-05 0)
(-0.000162467 -4.91272e-05 0)
(-0.000131794 -5.39013e-05 0)
(-9.83027e-05 -5.75931e-05 0)
(-6.26806e-05 -6.00745e-05 0)
(-2.56211e-05 -6.12641e-05 0)
(1.20956e-05 -6.10823e-05 0)
(4.96258e-05 -5.95064e-05 0)
(8.60212e-05 -5.65236e-05 0)
(0.000120413 -5.21748e-05 0)
(0.000151896 -4.65278e-05 0)
(0.000179644 -3.96984e-05 0)
(0.000202769 -3.18036e-05 0)
(0.000220611 -2.30476e-05 0)
(0.000232571 -1.36689e-05 0)
(0.000238182 -3.87217e-06 0)
(0.000236714 6.02826e-06 0)
(0.000227875 1.5786e-05 0)
(0.000212177 2.50788e-05 0)
(0.000189907 3.36587e-05 0)
(0.000161826 4.12626e-05 0)
(0.000128553 4.75192e-05 0)
(9.09323e-05 5.22265e-05 0)
(5.01059e-05 5.51554e-05 0)
(7.37329e-06 5.62477e-05 0)
(-3.57284e-05 5.52634e-05 0)
(-7.74639e-05 5.23654e-05 0)
(-0.000116485 4.73741e-05 0)
(-0.000151169 4.07069e-05 0)
(-0.000180104 3.22549e-05 0)
(-0.000201924 2.26715e-05 0)
(-0.000215606 1.18644e-05 0)
(-0.000220386 6.96669e-07 0)
(-0.000215078 -1.0653e-05 0)
(-0.000200007 -2.16562e-05 0)
(-0.000175746 -3.17137e-05 0)
(-0.000143071 -4.0524e-05 0)
(-0.000103244 -4.75485e-05 0)
(-5.79745e-05 -5.24973e-05 0)
(-8.79031e-06 -5.49265e-05 0)
(4.18094e-05 -5.46858e-05 0)
(9.09299e-05 -5.18039e-05 0)
(0.000136442 -4.62758e-05 0)
(0.000175929 -3.83885e-05 0)
(0.000207347 -2.84225e-05 0)
(0.000228617 -1.70189e-05 0)
(0.00023853 -4.63344e-06 0)
(0.000235852 7.95254e-06 0)
(0.000220109 2.00673e-05 0)
(0.000192692 3.10252e-05 0)
(0.000155017 4.00547e-05 0)
(0.000109136 4.67442e-05 0)
(5.78463e-05 5.0237e-05 0)
(3.64582e-06 5.0677e-05 0)
(-4.94966e-05 4.75722e-05 0)
(-9.745e-05 4.14613e-05 0)
(-0.000137324 3.24023e-05 0)
(-0.000166341 2.13938e-05 0)
(-0.000182471 8.85661e-06 0)
(-0.000183894 -3.93749e-06 0)
(-0.000170429 -1.62824e-05 0)
(-0.000143599 -2.69309e-05 0)
(-0.000105517 -3.52369e-05 0)
(-5.96329e-05 -4.03054e-05 0)
(-8.9977e-06 -4.1752e-05 0)
(4.12184e-05 -3.92692e-05 0)
(8.56557e-05 -3.3118e-05 0)
(0.000120761 -2.39582e-05 0)
(0.000143015 -1.24942e-05 0)
(0.000150026 1.38226e-08 0)
(0.000140415 1.23407e-05 0)
(0.000115426 2.33273e-05 0)
(7.77377e-05 3.17493e-05 0)
(3.09745e-05 3.67065e-05 0)
(-2.08949e-05 3.75701e-05 0)
(-7.09946e-05 3.40585e-05 0)
(-0.000112613 2.6691e-05 0)
(-0.000142063 1.62581e-05 0)
(-0.000155628 3.97817e-06 0)
(-0.000150856 -8.64016e-06 0)
(-0.000128095 -2.01752e-05 0)
(-9.04565e-05 -2.91478e-05 0)
(-4.21851e-05 -3.44597e-05 0)
(1.18606e-05 -3.53714e-05 0)
(6.36095e-05 -3.16035e-05 0)
(0.000105514 -2.38115e-05 0)
(0.000133265 -1.30855e-05 0)
(0.000143117 -8.98038e-07 0)
(0.0001336 1.08142e-05 0)
(0.000106444 2.06214e-05 0)
(6.62886e-05 2.70307e-05 0)
(1.8527e-05 2.91226e-05 0)
(-2.86432e-05 2.63842e-05 0)
(-6.69857e-05 1.96433e-05 0)
(-9.13839e-05 9.90479e-06 0)
(-9.76814e-05 -1.07953e-06 0)
(-8.50825e-05 -1.15431e-05 0)
(-5.64231e-05 -1.96845e-05 0)
(-1.54989e-05 -2.42369e-05 0)
(2.96529e-05 -2.42677e-05 0)
(6.97637e-05 -2.00003e-05 0)
(9.88687e-05 -1.22884e-05 0)
(0.000111926 -2.62873e-06 0)
(0.000106431 7.14523e-06 0)
(8.39047e-05 1.53036e-05 0)
(4.86391e-05 2.02811e-05 0)
(7.55538e-06 2.13536e-05 0)
(-3.14285e-05 1.80922e-05 0)
(-6.06888e-05 1.1591e-05 0)
(-7.47226e-05 2.95745e-06 0)
(-7.12111e-05 -5.9001e-06 0)
(-5.08257e-05 -1.31685e-05 0)
(-1.8436e-05 -1.73057e-05 0)
(6.99522e-06 0.000393188 0)
(2.30117e-05 0.000417731 0)
(3.90662e-05 0.000419144 0)
(5.50229e-05 0.000420473 0)
(7.07401e-05 0.000422163 0)
(8.61188e-05 0.000424197 0)
(0.000101026 0.000426523 0)
(0.000115328 0.000429057 0)
(0.000128976 0.000431699 0)
(0.000141713 0.000434309 0)
(0.00015356 0.000436711 0)
(0.000164405 0.000438698 0)
(0.000174231 0.000440033 0)
(0.000183101 0.000440495 0)
(0.000190943 0.00043977 0)
(0.000197829 0.00043773 0)
(0.000203753 0.000434261 0)
(0.000208795 0.000429282 0)
(0.000213025 0.000422689 0)
(0.000216461 0.000414453 0)
(0.000219232 0.00040453 0)
(0.000221499 0.000392939 0)
(0.000223215 0.00037967 0)
(0.000224676 0.000364844 0)
(0.000225994 0.000348529 0)
(0.000227297 0.000330833 0)
(0.000228646 0.000311912 0)
(0.000230559 0.000291922 0)
(0.000233076 0.000271199 0)
(0.000236021 0.000250096 0)
(0.000239748 0.00022887 0)
(0.000244238 0.000207733 0)
(0.000249604 0.000186988 0)
(0.000256065 0.000166713 0)
(0.000263547 0.00014712 0)
(0.000271869 0.000128335 0)
(0.000280984 0.000110508 0)
(0.000290904 9.37883e-05 0)
(0.000301565 7.83656e-05 0)
(0.000312621 6.44264e-05 0)
(0.000323953 5.21174e-05 0)
(0.000335511 4.15928e-05 0)
(0.000347022 3.29171e-05 0)
(0.000358177 2.62105e-05 0)
(0.000368854 2.14986e-05 0)
(0.000378812 1.87961e-05 0)
(0.000387846 1.81201e-05 0)
(0.000395711 1.93901e-05 0)
(0.000402254 2.25297e-05 0)
(0.000407213 2.7481e-05 0)
(0.000410488 3.4105e-05 0)
(0.000411886 4.22785e-05 0)
(0.000410561 5.16453e-05 0)
(0.000406377 6.24372e-05 0)
(0.000399725 7.41222e-05 0)
(0.000390074 8.68298e-05 0)
(0.000377466 0.000100017 0)
(0.000362231 0.000113782 0)
(0.000344325 0.000127499 0)
(0.000323571 0.000141332 0)
(0.000299734 0.00015457 0)
(0.000273566 0.000167309 0)
(0.00024492 0.000178969 0)
(0.000213936 0.000189505 0)
(0.000180856 0.000198505 0)
(0.000145784 0.000205876 0)
(0.000109247 0.000211247 0)
(7.14652e-05 0.000214561 0)
(3.29354e-05 0.000215525 0)
(-6.43105e-06 0.000213984 0)
(-4.57503e-05 0.000209992 0)
(-8.42116e-05 0.000203425 0)
(-0.000121747 0.000194247 0)
(-0.000157545 0.000182414 0)
(-0.000191096 0.000168124 0)
(-0.000222176 0.000151322 0)
(-0.000249937 0.000132334 0)
(-0.000273846 0.000111229 0)
(-0.000293446 8.84243e-05 0)
(-0.000308742 6.40745e-05 0)
(-0.000318831 3.87216e-05 0)
(-0.000323408 1.25638e-05 0)
(-0.000322541 -1.38275e-05 0)
(-0.000315541 -4.00976e-05 0)
(-0.000302901 -6.55967e-05 0)
(-0.000284321 -9.01095e-05 0)
(-0.000260307 -0.000112906 0)
(-0.000231327 -0.000133665 0)
(-0.000197603 -0.00015176 0)
(-0.000159798 -0.000166875 0)
(-0.000118503 -0.000178499 0)
(-7.45763e-05 -0.000186381 0)
(-2.88868e-05 -0.000190077 0)
(1.7587e-05 -0.000189544 0)
(6.37848e-05 -0.000184611 0)
(0.000108561 -0.000175274 0)
(0.000150811 -0.000161678 0)
(0.000189416 -0.000144032 0)
(0.00022342 -0.000122669 0)
(0.000251712 -9.80611e-05 0)
(0.000273313 -7.07336e-05 0)
(0.000287662 -4.14297e-05 0)
(0.000294127 -1.08839e-05 0)
(0.000291907 1.99595e-05 0)
(0.00028075 5.03347e-05 0)
(0.000261217 7.93679e-05 0)
(0.000233806 0.000106023 0)
(0.000198994 0.000129514 0)
(0.000157617 0.000148862 0)
(0.000110946 0.0001634 0)
(6.05248e-05 0.000172458 0)
(7.65732e-06 0.000175593 0)
(-4.55504e-05 0.000172505 0)
(-9.71961e-05 0.00016309 0)
(-0.000145319 0.000147623 0)
(-0.000188127 0.000126431 0)
(-0.00022369 0.000100274 0)
(-0.000250636 6.9941e-05 0)
(-0.000267512 3.66324e-05 0)
(-0.000272961 1.58123e-06 0)
(-0.000266672 -3.36997e-05 0)
(-0.00024807 -6.77817e-05 0)
(-0.000218317 -9.92542e-05 0)
(-0.000178395 -0.000126605 0)
(-0.00012966 -0.000148384 0)
(-7.40853e-05 -0.000163487 0)
(-1.35463e-05 -0.000170866 0)
(4.84102e-05 -0.000170111 0)
(0.000108576 -0.000160813 0)
(0.000164295 -0.000143583 0)
(0.000212588 -0.000118767 0)
(0.000250736 -8.77849e-05 0)
(0.000276371 -5.20693e-05 0)
(0.000288088 -1.34572e-05 0)
(0.000284314 2.56101e-05 0)
(0.000264863 6.33348e-05 0)
(0.000231026 9.71765e-05 0)
(0.000184824 0.000125282 0)
(0.000128235 0.000145444 0)
(6.51511e-05 0.000156522 0)
(-1.2066e-06 0.000157179 0)
(-6.61522e-05 0.000147578 0)
(-0.000124564 0.00012801 0)
(-0.000172797 0.000100024 0)
(-0.000207491 6.5147e-05 0)
(-0.000226242 2.63501e-05 0)
(-0.000226839 -1.37208e-05 0)
(-0.00020927 -5.1892e-05 0)
(-0.000175258 -8.51156e-05 0)
(-0.000127615 -0.00011064 0)
(-7.02951e-05 -0.000126178 0)
(-7.36784e-06 -0.000130352 0)
(5.49376e-05 -0.000122205 0)
(0.000109739 -0.000102931 0)
(0.000152846 -7.4017e-05 0)
(0.000179896 -3.83467e-05 0)
(0.000187804 8.12329e-07 0)
(0.000175478 3.92522e-05 0)
(0.000144293 7.33683e-05 0)
(9.74202e-05 9.94307e-05 0)
(3.94574e-05 0.000114561 0)
(-2.46659e-05 0.000116995 0)
(-8.64078e-05 0.000105747 0)
(-0.000137566 8.26471e-05 0)
(-0.000173551 5.00149e-05 0)
(-0.000189758 1.17853e-05 0)
(-0.000183593 -2.75165e-05 0)
(-0.000155584 -6.32756e-05 0)
(-0.000109398 -9.10327e-05 0)
(-5.03637e-05 -0.000107239 0)
(1.55213e-05 -0.000109688 0)
(7.83637e-05 -9.76183e-05 0)
(0.000128902 -7.31427e-05 0)
(0.000161887 -3.97227e-05 0)
(0.00017264 -1.96458e-06 0)
(0.000159887 3.44543e-05 0)
(0.000126038 6.47124e-05 0)
(7.64576e-05 8.43103e-05 0)
(1.77937e-05 9.04052e-05 0)
(-3.96708e-05 8.16552e-05 0)
(-8.5959e-05 6.03204e-05 0)
(-0.000114984 3.00878e-05 0)
(-0.000121837 -4.06625e-06 0)
(-0.000105807 -3.6314e-05 0)
(-7.0412e-05 -6.14134e-05 0)
(-2.05109e-05 -7.51298e-05 0)
(3.41822e-05 -7.4942e-05 0)
(8.24741e-05 -6.14175e-05 0)
(0.000117106 -3.74897e-05 0)
(0.000132106 -7.63977e-06 0)
(0.000124848 2.25033e-05 0)
(9.72514e-05 4.74488e-05 0)
(5.47294e-05 6.25931e-05 0)
(5.41027e-06 6.55166e-05 0)
(-4.09773e-05 5.54313e-05 0)
(-7.53379e-05 3.51837e-05 0)
(-9.14699e-05 8.68402e-06 0)
(-8.64834e-05 -1.84951e-05 0)
(-6.15143e-05 -4.08177e-05 0)
(-2.22845e-05 -5.34722e-05 0)
(6.60233e-06 -0.000711707 0)
(2.06124e-05 -0.000754808 0)
(3.43454e-05 -0.000751644 0)
(4.74385e-05 -0.000745243 0)
(5.97079e-05 -0.000736472 0)
(7.07879e-05 -0.000725494 0)
(8.05374e-05 -0.000712123 0)
(8.8434e-05 -0.000696695 0)
(9.41272e-05 -0.000679015 0)
(9.69721e-05 -0.000659494 0)
(9.65919e-05 -0.000638216 0)
(9.25437e-05 -0.000615624 0)
(8.47535e-05 -0.000591949 0)
(7.28421e-05 -0.000567557 0)
(5.75852e-05 -0.000542613 0)
(4.05351e-05 -0.000517502 0)
(2.21053e-05 -0.00049286 0)
(2.46825e-06 -0.00046926 0)
(-1.79091e-05 -0.000447122 0)
(-3.85183e-05 -0.000426871 0)
(-5.89272e-05 -0.000408698 0)
(-7.87304e-05 -0.000392899 0)
(-9.72156e-05 -0.000379474 0)
(-0.000113767 -0.000368501 0)
(-0.000128384 -0.000359715 0)
(-0.000140515 -0.000353162 0)
(-0.00014978 -0.000348209 0)
(-0.000155078 -0.000344892 0)
(-0.000155179 -0.000342674 0)
(-0.000150641 -0.0003418 0)
(-0.000142538 -0.000341858 0)
(-0.000130457 -0.000342818 0)
(-0.000115532 -0.000344098 0)
(-9.79685e-05 -0.000345293 0)
(-7.75304e-05 -0.000346006 0)
(-5.50947e-05 -0.000345811 0)
(-3.05179e-05 -0.000344198 0)
(-3.9671e-06 -0.000341024 0)
(2.45162e-05 -0.000336024 0)
(5.45113e-05 -0.000329086 0)
(8.57344e-05 -0.000320073 0)
(0.00011766 -0.000308841 0)
(0.000149976 -0.000295348 0)
(0.000182314 -0.000279552 0)
(0.000214008 -0.000261435 0)
(0.000244835 -0.000241014 0)
(0.000274127 -0.000218368 0)
(0.00030135 -0.000193553 0)
(0.000326398 -0.000166692 0)
(0.000348806 -0.000137946 0)
(0.000368103 -0.000107547 0)
(0.000383145 -7.56872e-05 0)
(0.00039541 -4.26589e-05 0)
(0.000404102 -8.46392e-06 0)
(0.000408323 2.62783e-05 0)
(0.000407989 6.1314e-05 0)
(0.000403222 9.61706e-05 0)
(0.000393766 0.000130676 0)
(0.000379572 0.000164298 0)
(0.000360891 0.000196638 0)
(0.000337443 0.000227427 0)
(0.000309656 0.000256281 0)
(0.000277469 0.000282625 0)
(0.00024169 0.00030619 0)
(0.00020211 0.000326524 0)
(0.000159483 0.000343257 0)
(0.000114098 0.000356072 0)
(6.66699e-05 0.000364646 0)
(1.75143e-05 0.000368761 0)
(-3.26296e-05 0.000368104 0)
(-8.28029e-05 0.000362778 0)
(-0.000132435 0.000352378 0)
(-0.000181133 0.000337215 0)
(-0.000227494 0.000317157 0)
(-0.00027116 0.000292376 0)
(-0.000311597 0.000263123 0)
(-0.000347402 0.000229727 0)
(-0.000378381 0.000192633 0)
(-0.000403784 0.000152211 0)
(-0.000422728 0.000109015 0)
(-0.000435273 6.40076e-05 0)
(-0.00044059 1.74656e-05 0)
(-0.000438131 -2.94054e-05 0)
(-0.000427644 -7.60451e-05 0)
(-0.00040956 -0.000121513 0)
(-0.000383911 -0.000165022 0)
(-0.000350893 -0.000205605 0)
(-0.000311043 -0.000242342 0)
(-0.000264913 -0.000274453 0)
(-0.000213369 -0.000301043 0)
(-0.000157173 -0.000321438 0)
(-9.72968e-05 -0.000335076 0)
(-3.50921e-05 -0.000341331 0)
(2.7827e-05 -0.00033991 0)
(9.04851e-05 -0.000330639 0)
(0.000151032 -0.000313562 0)
(0.000208024 -0.000288799 0)
(0.000260077 -0.000256883 0)
(0.000305695 -0.000218239 0)
(0.000343567 -0.000173895 0)
(0.000372397 -0.000124733 0)
(0.000391159 -7.20255e-05 0)
(0.000399006 -1.73115e-05 0)
(0.000395258 3.81224e-05 0)
(0.00037996 9.25623e-05 0)
(0.000353121 0.000144505 0)
(0.000315402 0.000192169 0)
(0.000267817 0.000233993 0)
(0.00021143 0.000268365 0)
(0.000147983 0.000294163 0)
(7.9272e-05 0.000310021 0)
(7.51402e-06 0.000315433 0)
(-6.4878e-05 0.000309435 0)
(-0.000134865 0.000292308 0)
(-0.000200098 0.000264275 0)
(-0.000257937 0.000226019 0)
(-0.000306019 0.000178914 0)
(-0.000342189 0.000124352 0)
(-0.000364579 6.46171e-05 0)
(-0.000371875 1.66451e-06 0)
(-0.000362813 -6.13896e-05 0)
(-0.000338036 -0.000122548 0)
(-0.000298194 -0.000178785 0)
(-0.000244213 -0.000227465 0)
(-0.000178364 -0.000266013 0)
(-0.000103321 -0.000292711 0)
(-2.21027e-05 -0.000305572 0)
(6.13713e-05 -0.000303753 0)
(0.000142239 -0.000286794 0)
(0.000216934 -0.000255409 0)
(0.000281594 -0.000210913 0)
(0.000332248 -0.000155286 0)
(0.000366226 -9.12412e-05 0)
(0.000380743 -2.21665e-05 0)
(0.000374837 4.78265e-05 0)
(0.000348184 0.000115226 0)
(0.000302305 0.000175561 0)
(0.000239499 0.000225219 0)
(0.00016321 0.000260757 0)
(7.79907e-05 0.000279795 0)
(-1.13544e-05 0.000280566 0)
(-9.80996e-05 0.000262522 0)
(-0.000175853 0.00022701 0)
(-0.000239812 0.000176132 0)
(-0.000285111 0.000113533 0)
(-0.000308194 4.36631e-05 0)
(-0.000307214 -2.82559e-05 0)
(-0.000281708 -9.63981e-05 0)
(-0.000234152 -0.000155757 0)
(-0.000168154 -0.000200781 0)
(-8.94423e-05 -0.000228006 0)
(-3.26184e-06 -0.000234571 0)
(8.13772e-05 -0.000219282 0)
(0.00015554 -0.000183784 0)
(0.000213423 -0.000131407 0)
(0.000249198 -6.69783e-05 0)
(0.0002589 3.28779e-06 0)
(0.000241084 7.23615e-05 0)
(0.000198008 0.000133305 0)
(0.000133668 0.0001796 0)
(5.46187e-05 0.000206125 0)
(-3.24524e-05 0.000209828 0)
(-0.000115867 0.000189126 0)
(-0.000184672 0.000147165 0)
(-0.000232687 8.84613e-05 0)
(-0.000253678 1.98777e-05 0)
(-0.000244726 -5.03536e-05 0)
(-0.000206664 -0.000114006 0)
(-0.000144272 -0.000163008 0)
(-6.48479e-05 -0.000191273 0)
(2.32024e-05 -0.000194857 0)
(0.000106608 -0.000172502 0)
(0.000172954 -0.000128479 0)
(0.00021529 -6.85242e-05 0)
(0.000227656 -1.26999e-06 0)
(0.000208756 6.35989e-05 0)
(0.000162048 0.000116997 0)
(9.46797e-05 0.000151123 0)
(1.57512e-05 0.000161128 0)
(-6.09036e-05 0.000144682 0)
(-0.000121747 0.000106158 0)
(-0.000159033 5.18397e-05 0)
(-0.000166692 -8.86567e-06 0)
(-0.00014404 -6.60023e-05 0)
(-9.59194e-05 -0.000109945 0)
(-2.91837e-05 -0.000133582 0)
(4.31554e-05 -0.000132395 0)
(0.000106415 -0.000107882 0)
(0.000150962 -6.50339e-05 0)
(0.000169415 -1.22377e-05 0)
(0.000158653 4.0826e-05 0)
(0.000121512 8.43137e-05 0)
(6.54487e-05 0.00011044 0)
(1.08584e-06 0.00011481 0)
(-5.88022e-05 9.6697e-05 0)
(-0.000102448 6.07402e-05 0)
(-0.000122167 1.41777e-05 0)
(-0.000114487 -3.34844e-05 0)
(-8.10842e-05 -7.23897e-05 0)
(-2.93028e-05 -9.43985e-05 0)
(2.11328e-05 9.13766e-05 0)
(6.70789e-05 0.000108196 0)
(0.000112766 0.000121557 0)
(0.000158292 0.000140993 0)
(0.000202424 0.000167461 0)
(0.00024523 0.000199727 0)
(0.000285309 0.000238788 0)
(0.000322917 0.000281303 0)
(0.000357851 0.000328533 0)
(0.000388147 0.000376018 0)
(0.00041395 0.000423398 0)
(0.000434241 0.000467537 0)
(0.000449542 0.000507796 0)
(0.000460292 0.000542721 0)
(0.000466531 0.000571873 0)
(0.000465839 0.000593901 0)
(0.000457239 0.000608895 0)
(0.00044228 0.000615524 0)
(0.000421993 0.000615036 0)
(0.000397863 0.000606227 0)
(0.000371018 0.000589547 0)
(0.000342899 0.000564741 0)
(0.000314725 0.000532755 0)
(0.000288264 0.000493509 0)
(0.00026376 0.000448527 0)
(0.000243177 0.000398047 0)
(0.000226672 0.00034403 0)
(0.000214076 0.000286504 0)
(0.000204323 0.000227719 0)
(0.000196512 0.000167985 0)
(0.000192037 0.000110206 0)
(0.000191614 5.43242e-05 0)
(0.000196933 1.53148e-06 0)
(0.000207125 -4.81962e-05 0)
(0.000221991 -9.43828e-05 0)
(0.000241863 -0.000136732 0)
(0.000265603 -0.000174636 0)
(0.000292191 -0.000207748 0)
(0.000321389 -0.000235574 0)
(0.000352214 -0.000257771 0)
(0.000384488 -0.000274105 0)
(0.000417571 -0.000284435 0)
(0.000450672 -0.000288677 0)
(0.000483313 -0.000286865 0)
(0.000515056 -0.000279052 0)
(0.00054521 -0.000265528 0)
(0.000573375 -0.000246354 0)
(0.000599123 -0.000221891 0)
(0.000621873 -0.000192588 0)
(0.00064096 -0.000158838 0)
(0.000656156 -0.00012095 0)
(0.000666996 -7.95349e-05 0)
(0.00067371 -3.51251e-05 0)
(0.000674866 1.14317e-05 0)
(0.00066979 5.99712e-05 0)
(0.000658713 0.00010991 0)
(0.000642076 0.00016058 0)
(0.000620008 0.000211147 0)
(0.000591708 0.000261171 0)
(0.000558094 0.000309482 0)
(0.000519128 0.000355854 0)
(0.000474478 0.000399123 0)
(0.000424537 0.000438899 0)
(0.000370037 0.00047437 0)
(0.00031089 0.000505006 0)
(0.000247826 0.000530171 0)
(0.000181585 0.000549319 0)
(0.000112853 0.000562067 0)
(4.21749e-05 0.000567843 0)
(-2.93485e-05 0.000566554 0)
(-0.000101089 0.000557781 0)
(-0.000171615 0.000541507 0)
(-0.000239944 0.000517578 0)
(-0.00030563 0.000486382 0)
(-0.000367051 0.000447826 0)
(-0.000423538 0.000402545 0)
(-0.000473631 0.000350894 0)
(-0.000516805 0.00029341 0)
(-0.000552385 0.000231043 0)
(-0.000578631 0.000164569 0)
(-0.000595654 9.49791e-05 0)
(-0.000602597 2.34388e-05 0)
(-0.000598791 -4.89667e-05 0)
(-0.000584487 -0.000120741 0)
(-0.000559682 -0.00019077 0)
(-0.000524222 -0.000257532 0)
(-0.000478406 -0.000319784 0)
(-0.000423346 -0.000376064 0)
(-0.000359505 -0.000425048 0)
(-0.000288002 -0.000465554 0)
(-0.000210426 -0.000496443 0)
(-0.000127869 -0.000516777 0)
(-4.20223e-05 -0.000525913 0)
(4.48863e-05 -0.000523124 0)
(0.000130965 -0.00050831 0)
(0.000214263 -0.000481473 0)
(0.000292519 -0.000442941 0)
(0.000363909 -0.000393192 0)
(0.000426348 -0.000333384 0)
(0.000477804 -0.000264646 0)
(0.000516862 -0.000188801 0)
(0.000541592 -0.000107588 0)
(0.000551531 -2.32801e-05 0)
(0.000545722 6.21613e-05 0)
(0.000523718 0.000146018 0)
(0.00048613 0.000225772 0)
(0.000433556 0.000298928 0)
(0.000367137 0.000363037 0)
(0.000288877 0.000415705 0)
(0.000200796 0.0004549 0)
(0.000105865 0.000478886 0)
(6.44449e-06 0.000486416 0)
(-9.371e-05 0.000476761 0)
(-0.000190192 0.000449838 0)
(-0.000280264 0.000406256 0)
(-0.000359902 0.00034708 0)
(-0.000425935 0.000274117 0)
(-0.00047543 0.000190088 0)
(-0.000506048 9.78765e-05 0)
(-0.000515192 1.11054e-06 0)
(-0.000502691 -9.60119e-05 0)
(-0.000468641 -0.000190059 0)
(-0.000413268 -0.000276129 0)
(-0.000338678 -0.000350459 0)
(-0.000248252 -0.000409385 0)
(-0.000145281 -0.00044976 0)
(-3.34328e-05 -0.000469322 0)
(8.09895e-05 -0.000465471 0)
(0.000191968 -0.000439107 0)
(0.000293876 -0.00039019 0)
(0.000381746 -0.000321392 0)
(0.000450662 -0.000235493 0)
(0.00049628 -0.000136984 0)
(0.000515207 -3.11238e-05 0)
(0.000506145 7.67221e-05 0)
(0.000468778 0.000179563 0)
(0.00040468 0.000271988 0)
(0.000317826 0.000347452 0)
(0.000212528 0.00040116 0)
(9.54843e-05 0.000429246 0)
(-2.70984e-05 0.000429287 0)
(-0.000145777 0.000400667 0)
(-0.000251623 0.000344844 0)
(-0.000337879 0.000266091 0)
(-0.000398061 0.000169098 0)
(-0.000427883 6.14205e-05 0)
(-0.000423819 -4.91641e-05 0)
(-0.000386585 -0.000153792 0)
(-0.000318847 -0.000244442 0)
(-0.000225961 -0.000312858 0)
(-0.000115927 -0.00035378 0)
(3.92536e-06 -0.000362484 0)
(0.000121261 -0.000337763 0)
(0.000223409 -0.000282079 0)
(0.000302339 -0.000200419 0)
(0.0003504 -0.000100421 0)
(0.000362235 8.21267e-06 0)
(0.000336414 0.000114526 0)
(0.000275582 0.000208039 0)
(0.000185622 0.000278539 0)
(7.57595e-05 0.00031849 0)
(-4.45801e-05 0.000322991 0)
(-0.000159453 0.000290304 0)
(-0.000253692 0.000224881 0)
(-0.000318794 0.000134228 0)
(-0.0003464 2.87115e-05 0)
(-0.000333002 -7.92845e-05 0)
(-0.000279945 -0.000176426 0)
(-0.000193813 -0.000250759 0)
(-8.48971e-05 -0.000292745 0)
(3.52838e-05 -0.00029691 0)
(0.000148059 -0.000261803 0)
(0.000236972 -0.000193122 0)
(0.00029267 -0.000100852 0)
(0.000306993 1.93578e-06 0)
(0.000278842 0.000100914 0)
(0.000213146 0.000181675 0)
(0.000119976 0.000232509 0)
(1.17291e-05 0.000246225 0)
(-9.22786e-05 0.000219734 0)
(-0.00017393 0.000159785 0)
(-0.00022281 7.64304e-05 0)
(-0.000231118 -1.6363e-05 0)
(-0.00019854 -0.000102935 0)
(-0.000131784 -0.000168962 0)
(-4.0791e-05 -0.000203621 0)
(5.67706e-05 -0.000200469 0)
(0.000141291 -0.000162084 0)
(0.000199765 -9.65578e-05 0)
(0.000222626 -1.6266e-05 0)
(0.000206525 6.36266e-05 0)
(0.000155528 0.00012849 0)
(8.00524e-05 0.000166943 0)
(-5.6773e-06 0.000172374 0)
(-8.45192e-05 0.000144319 0)
(-0.000141122 8.95777e-05 0)
(-0.00016578 1.9466e-05 0)
(-0.000154026 -5.18968e-05 0)
(-0.00010855 -0.000110113 0)
(-3.91514e-05 -0.000143028 0)
(4.81353e-05 -0.00129685 0)
(0.000149144 -0.00135264 0)
(0.000249122 -0.00134199 0)
(0.000348146 -0.00132351 0)
(0.000442124 -0.00129529 0)
(0.0005325 -0.00126257 0)
(0.00060891 -0.0012168 0)
(0.000670429 -0.00116616 0)
(0.000706541 -0.00109733 0)
(0.000710652 -0.00101554 0)
(0.000689777 -0.000915063 0)
(0.000643533 -0.00080887 0)
(0.000581358 -0.000696375 0)
(0.000505216 -0.000585516 0)
(0.000416562 -0.000478549 0)
(0.000319758 -0.000380263 0)
(0.000216023 -0.000292642 0)
(0.000111683 -0.00021721 0)
(6.36263e-06 -0.000155045 0)
(-9.97691e-05 -0.00010959 0)
(-0.000202851 -7.87511e-05 0)
(-0.000300428 -6.29328e-05 0)
(-0.000390801 -5.94231e-05 0)
(-0.000470329 -7.09689e-05 0)
(-0.000538001 -9.14919e-05 0)
(-0.000590887 -0.000125714 0)
(-0.000630536 -0.000162254 0)
(-0.000654421 -0.000209998 0)
(-0.000661597 -0.00025238 0)
(-0.000648752 -0.000301835 0)
(-0.000619513 -0.000347495 0)
(-0.000580817 -0.000395362 0)
(-0.000533515 -0.000440281 0)
(-0.00048106 -0.0004823 0)
(-0.00042224 -0.000519149 0)
(-0.000357872 -0.000550463 0)
(-0.000288463 -0.000575615 0)
(-0.000215108 -0.00059404 0)
(-0.000137992 -0.000605626 0)
(-5.85684e-05 -0.000610112 0)
(2.21872e-05 -0.000607422 0)
(0.000103242 -0.000597572 0)
(0.000183645 -0.000580549 0)
(0.000262489 -0.000556536 0)
(0.000338279 -0.000525805 0)
(0.000410739 -0.000488338 0)
(0.00047904 -0.000444696 0)
(0.000541362 -0.000395271 0)
(0.000597471 -0.000340195 0)
(0.000647546 -0.000280454 0)
(0.000690457 -0.000216275 0)
(0.000724517 -0.000148403 0)
(0.00075029 -7.73816e-05 0)
(0.000768424 -4.04972e-06 0)
(0.000779043 7.12764e-05 0)
(0.000780506 0.00014722 0)
(0.000772314 0.000223225 0)
(0.000755107 0.000298284 0)
(0.000727851 0.000371683 0)
(0.000691654 0.000442438 0)
(0.000646557 0.000509671 0)
(0.000592443 0.000572287 0)
(0.000530642 0.000629575 0)
(0.00046157 0.000680462 0)
(0.000385724 0.000724104 0)
(0.000303902 0.000759821 0)
(0.000217321 0.00078682 0)
(0.000126721 0.000804448 0)
(3.33544e-05 0.000812142 0)
(-6.1517e-05 0.000809579 0)
(-0.000156698 0.000796378 0)
(-0.000250771 0.000772573 0)
(-0.000342148 0.00073787 0)
(-0.000429353 0.000692546 0)
(-0.000511298 0.000637009 0)
(-0.000586322 0.000571684 0)
(-0.000653313 0.000497388 0)
(-0.000710603 0.000414911 0)
(-0.000757012 0.00032543 0)
(-0.00079158 0.000230258 0)
(-0.000813505 0.000130577 0)
(-0.000821977 2.84337e-05 0)
(-0.000815818 -7.47748e-05 0)
(-0.000794949 -0.000177152 0)
(-0.000759898 -0.000277028 0)
(-0.000710591 -0.000371986 0)
(-0.000647665 -0.000460424 0)
(-0.000571699 -0.000540259 0)
(-0.000484067 -0.000609579 0)
(-0.000386312 -0.000666861 0)
(-0.000280019 -0.000710181 0)
(-0.000167413 -0.00073851 0)
(-5.04874e-05 -0.000750616 0)
(6.78373e-05 -0.00074602 0)
(0.000184845 -0.00072418 0)
(0.000297763 -0.000685116 0)
(0.000404105 -0.000629327 0)
(0.000500775 -0.000557694 0)
(0.000584959 -0.000471769 0)
(0.00065415 -0.000373274 0)
(0.000706005 -0.000264519 0)
(0.000738739 -0.000148528 0)
(0.000751406 -2.77756e-05 0)
(0.000742715 9.40034e-05 0)
(0.000711899 0.000213427 0)
(0.00065983 0.000327154 0)
(0.000587584 0.000431023 0)
(0.000496699 0.000521986 0)
(0.000389427 0.000596377 0)
(0.000268984 0.000651481 0)
(0.000138952 0.000684955 0)
(3.51525e-06 0.000694826 0)
(-0.000132622 0.000680265 0)
(-0.000263906 0.000641279 0)
(-0.000386033 0.000578455 0)
(-0.000494262 0.000493659 0)
(-0.000583569 0.000389187 0)
(-0.000650237 0.000269017 0)
(-0.000691155 0.000137332 0)
(-0.000703083 -4.33217e-07 0)
(-0.000685669 -0.000138978 0)
(-0.000638836 -0.000272786 0)
(-0.00056306 -0.000394994 0)
(-0.000461799 -0.000500646 0)
(-0.000338794 -0.000583964 0)
(-0.000199243 -0.000640926 0)
(-4.73128e-05 -0.000667224 0)
(0.000107918 -0.000661318 0)
(0.000257603 -0.000622525 0)
(0.000395501 -0.000552596 0)
(0.00051373 -0.000453748 0)
(0.00060594 -0.000330754 0)
(0.000666162 -0.000190138 0)
(0.000690831 -3.91883e-05 0)
(0.000677103 0.000113509 0)
(0.000625177 0.000259894 0)
(0.000537761 0.000390285 0)
(0.000418665 0.000496986 0)
(0.000275423 0.000572208 0)
(0.000116273 0.000611183 0)
(-4.94402e-05 0.00060977 0)
(-0.000209695 0.000567389 0)
(-0.000351799 0.000486633 0)
(-0.000467025 0.000372912 0)
(-0.000546743 0.000233745 0)
(-0.000584097 7.98045e-05 0)
(-0.000576187 -7.79282e-05 0)
(-0.000523072 -0.000227089 0)
(-0.000428608 -0.000355154 0)
(-0.000300423 -0.000451836 0)
(-0.000149031 -0.000508393 0)
(1.51969e-05 -0.000519238 0)
(0.000174705 -0.000481774 0)
(0.000313416 -0.000400774 0)
(0.000419988 -0.000282845 0)
(0.000483838 -0.0001393 0)
(0.000497958 1.60727e-05 0)
(0.00046087 0.000168139 0)
(0.000376423 0.000300862 0)
(0.000252541 0.00040047 0)
(0.000102065 0.000456065 0)
(-6.18096e-05 0.000460778 0)
(-0.000217505 0.000412815 0)
(-0.00034468 0.000318453 0)
(-0.000431609 0.000188304 0)
(-0.000467765 3.74833e-05 0)
(-0.00044814 -0.000115802 0)
(-0.000374869 -0.0002532 0)
(-0.000257212 -0.00035755 0)
(-0.000109367 -0.000415691 0)
(5.21704e-05 -0.000419935 0)
(0.000203405 -0.000367755 0)
(0.000321557 -0.00026931 0)
(0.000393489 -0.000137487 0)
(0.000409964 8.62055e-06 0)
(0.000369395 0.000148392 0)
(0.000278426 0.000261341 0)
(0.000151266 0.000331525 0)
(4.98924e-06 0.00034878 0)
(-0.000134401 0.000309299 0)
(-0.000242415 0.000222694 0)
(-0.000305777 0.000103721 0)
(-0.0003145 -2.73521e-05 0)
(-0.000268452 -0.000148929 0)
(-0.00017718 -0.000240566 0)
(-5.45068e-05 -0.000287682 0)
(7.55925e-05 -0.000280998 0)
(0.000187039 -0.000225478 0)
(0.00026295 -0.000132342 0)
(0.000291121 -1.9443e-05 0)
(0.000267473 9.19899e-05 0)
(0.000198375 0.000181612 0)
(9.78407e-05 0.000233814 0)
(-1.51515e-05 0.000239762 0)
(-0.000118045 0.000199389 0)
(-0.000190891 0.00012231 0)
(-0.000221327 2.45211e-05 0)
(-0.000204325 -7.45095e-05 0)
(-0.000143596 -0.000155018 0)
(-5.1711e-05 -0.000200239 0)
(6.24759e-05 -0.00109756 0)
(0.000194555 -0.00109394 0)
(0.00032236 -0.00103598 0)
(0.000462688 -0.000948093 0)
(0.000597553 -0.000818832 0)
(0.000754607 -0.000658431 0)
(0.000905433 -0.00042701 0)
(0.00106913 -0.000172623 0)
(0.00121321 0.000176908 0)
(0.00132169 0.000484083 0)
(0.0014136 0.000764925 0)
(0.00145912 0.000993111 0)
(0.00146977 0.00119173 0)
(0.00143125 0.00135496 0)
(0.00135699 0.00148639 0)
(0.00124822 0.00158477 0)
(0.00111751 0.00164939 0)
(0.000969181 0.00168154 0)
(0.000807145 0.00168131 0)
(0.000640019 0.00164943 0)
(0.000470582 0.00158881 0)
(0.000310361 0.00149044 0)
(0.000157084 0.00136574 0)