# vtk DataFile Version 2.0
tracks
ASCII
DATASET POLYDATA
POINTS 18 float
-0.2 -0.2 0 -0.06 -0.2 -4.33681e-19 0.08 -0.2 0 0.22 -0.2
-3.46945e-18 0.36 -0.2 1.73472e-18 0.5 -0.2 0 0 0 0
0.1 3.90581e-11 8.67362e-19 0.2 7.81162e-11 1.73472e-18 0.3 1.17174e-10 1.73472e-18 0.4
1.56232e-10 3.46945e-18 0.5 1.9529e-10 -3.46945e-18 0.2 0.2 0 0.26 0.2
0 0.32 0.2 -3.46945e-18 0.38 0.2 -3.46945e-18 0.44 0.2 -3.46945e-18
0.5 0.2 -6.93889e-18 
LINES 3 21
6 0 1 2 3 4 5 6 6 7 8
9 10 11 6 12 13 14 15 16 17

POINT_DATA 18
FIELD attributes 2
age 1 18 float
0 0.0202786 0.0405575 0.0608366 0.0816361 0.106985 0 0.0115883 0.0244641 0.0389494 0.0555041
0.0748178 0 0.00869119 0.0180871 0.028312 0.0395265 0.0519424 
U 3 18 float
6.90384 2.02229e-09 0 6.90373 2.25823e-09 0 6.90363 2.49416e-09 0 6.73095 2.62898e-09
0 5.52283 2.15711e-09 0 4.31471 1.68524e-09 0 8.62942 3.37049e-09 0
7.76648 3.03344e-09 0 6.90354 2.69639e-09 0 6.0406 2.35934e-09 0 5.17765
2.02229e-09 0 4.31471 1.68524e-09 0 6.90354 2.69639e-09 0 6.38577 2.49416e-09
0 5.86801 2.29193e-09 0 5.35024 2.0897e-09 0 4.83248 1.88747e-09 0
4.31471 1.68524e-09 0 
