/*--------------------------------*- C++ -*----------------------------------*\
  =========                 |
  \\      /  F ield         | OpenFOAM: The Open Source CFD Toolbox
   \\    /   O peration     | Website:  https://openfoam.org
    \\  /    A nd           | Version:  12
     \\/     M anipulation  |
\*---------------------------------------------------------------------------*/
FoamFile
{
    format      ascii;
    class       volVectorField;
    location    "6.54";
    object      U;
}
// * * * * * * * * * * * * * * * * * * * * * * * * * * * * * * * * * * * * * //

dimensions      [0 1 -1 0 0 0 0];

internalField   nonuniform List<vector> 
3829
(
(-2.73055e-06 -9.03783e-06 0)
(-8.30445e-06 -9.53772e-06 0)
(-1.38981e-05 -9.53369e-06 0)
(-1.9529e-05 -9.52082e-06 0)
(-2.52223e-05 -9.50335e-06 0)
(-3.09615e-05 -9.47768e-06 0)
(-3.67105e-05 -9.44853e-06 0)
(-4.24837e-05 -9.40924e-06 0)
(-4.82448e-05 -9.35764e-06 0)
(-5.40434e-05 -9.29888e-06 0)
(-5.98735e-05 -9.21932e-06 0)
(-6.56964e-05 -9.10871e-06 0)
(-7.15118e-05 -8.97176e-06 0)
(-7.73708e-05 -8.80305e-06 0)
(-8.32635e-05 -8.57679e-06 0)
(-8.91727e-05 -8.30105e-06 0)
(-9.51472e-05 -7.95021e-06 0)
(-0.000101192 -7.52643e-06 0)
(-0.00010732 -7.01256e-06 0)
(-0.000113532 -6.40017e-06 0)
(-0.000119826 -5.68464e-06 0)
(-0.0001262 -4.86539e-06 0)
(-0.000132664 -3.9466e-06 0)
(-0.000139227 -2.93548e-06 0)
(-0.000145943 -1.8437e-06 0)
(-0.000152749 -6.7965e-07 0)
(-0.000159574 5.32328e-07 0)
(-0.000166477 1.76088e-06 0)
(-0.000173516 2.98867e-06 0)
(-0.000180618 4.19272e-06 0)
(-0.000187802 5.3269e-06 0)
(-0.000195046 6.37634e-06 0)
(-0.000202277 7.29995e-06 0)
(-0.000209588 8.08921e-06 0)
(-0.000216884 8.72557e-06 0)
(-0.000224138 9.17631e-06 0)
(-0.000231355 9.47929e-06 0)
(-0.000238444 9.59697e-06 0)
(-0.000245343 9.52351e-06 0)
(-0.000252 9.23109e-06 0)
(-0.000258335 8.72625e-06 0)
(-0.000264289 7.98095e-06 0)
(-0.000269824 7.00223e-06 0)
(-0.000274783 5.78669e-06 0)
(-0.000279096 4.33027e-06 0)
(-0.000282705 2.64479e-06 0)
(-0.000285513 7.42127e-07 0)
(-0.000287452 -1.36362e-06 0)
(-0.000288437 -3.65155e-06 0)
(-0.000288214 -6.08863e-06 0)
(-0.000286644 -8.68596e-06 0)
(-0.000283735 -1.14002e-05 0)
(-0.000279462 -1.42293e-05 0)
(-0.000273831 -1.71147e-05 0)
(-0.000266909 -2.00523e-05 0)
(-0.000258484 -2.29652e-05 0)
(-0.000248808 -2.58773e-05 0)
(-0.000237788 -2.86749e-05 0)
(-0.000225543 -3.13861e-05 0)
(-0.000212199 -3.38909e-05 0)
(-0.000197494 -3.62e-05 0)
(-0.000181786 -3.8257e-05 0)
(-0.000165052 -4.00271e-05 0)
(-0.000147538 -4.1457e-05 0)
(-0.000129114 -4.25242e-05 0)
(-0.000110173 -4.32611e-05 0)
(-9.08921e-05 -4.355e-05 0)
(-7.12865e-05 -4.34432e-05 0)
(-5.16882e-05 -4.28817e-05 0)
(-3.22236e-05 -4.18974e-05 0)
(-1.325e-05 -4.04796e-05 0)
(5.11054e-06 -3.86292e-05 0)
(2.28198e-05 -3.63291e-05 0)
(3.94619e-05 -3.36705e-05 0)
(5.4788e-05 -3.06035e-05 0)
(6.87344e-05 -2.72257e-05 0)
(8.10198e-05 -2.35498e-05 0)
(9.14198e-05 -1.9617e-05 0)
(9.9982e-05 -1.54902e-05 0)
(0.000106452 -1.12543e-05 0)
(0.00011067 -6.93323e-06 0)
(0.000112832 -2.63157e-06 0)
(0.000112559 1.58756e-06 0)
(0.000109966 5.65671e-06 0)
(0.000105105 9.50145e-06 0)
(9.80834e-05 1.30865e-05 0)
(8.92215e-05 1.63227e-05 0)
(7.85569e-05 1.91461e-05 0)
(6.63425e-05 2.15202e-05 0)
(5.28327e-05 2.33695e-05 0)
(3.82796e-05 2.46891e-05 0)
(2.30492e-05 2.54264e-05 0)
(7.44323e-06 2.55713e-05 0)
(-8.17807e-06 2.51304e-05 0)
(-2.34565e-05 2.41099e-05 0)
(-3.80218e-05 2.25435e-05 0)
(-5.15363e-05 2.04602e-05 0)
(-6.36862e-05 1.79275e-05 0)
(-7.41341e-05 1.50198e-05 0)
(-8.26568e-05 1.17819e-05 0)
(-8.90449e-05 8.33291e-06 0)
(-9.31482e-05 4.76369e-06 0)
(-9.4888e-05 1.18267e-06 0)
(-9.41001e-05 -2.28681e-06 0)
(-9.08432e-05 -5.57935e-06 0)
(-8.53482e-05 -8.5944e-06 0)
(-7.78399e-05 -1.12454e-05 0)
(-6.8594e-05 -1.34373e-05 0)
(-5.78986e-05 -1.51021e-05 0)
(-4.61255e-05 -1.61787e-05 0)
(-3.37006e-05 -1.66622e-05 0)
(-2.10938e-05 -1.65278e-05 0)
(-8.73005e-06 -1.57839e-05 0)
(2.87387e-06 -1.44855e-05 0)
(1.33389e-05 -1.26536e-05 0)
(2.22709e-05 -1.04075e-05 0)
(2.93106e-05 -7.8109e-06 0)
(3.42564e-05 -5.00273e-06 0)
(3.68667e-05 -2.09207e-06 0)
(3.70733e-05 7.9573e-07 0)
(3.48496e-05 3.51243e-06 0)
(3.0381e-05 5.96649e-06 0)
(2.39878e-05 8.04469e-06 0)
(1.60037e-05 9.64802e-06 0)
(6.85002e-06 1.07055e-05 0)
(-3.13606e-06 1.11758e-05 0)
(-1.33343e-05 1.10397e-05 0)
(-2.30707e-05 1.03162e-05 0)
(-3.19308e-05 9.06143e-06 0)
(-3.94443e-05 7.33014e-06 0)
(-4.52021e-05 5.24915e-06 0)
(-4.89207e-05 2.913e-06 0)
(-5.03802e-05 4.81965e-07 0)
(-4.94427e-05 -1.91205e-06 0)
(-4.61173e-05 -4.13324e-06 0)
(-4.0708e-05 -6.08617e-06 0)
(-3.35572e-05 -7.63827e-06 0)
(-2.50205e-05 -8.7354e-06 0)
(-1.5614e-05 -9.28554e-06 0)
(-5.8739e-06 -9.31123e-06 0)
(3.65867e-06 -8.7715e-06 0)
(1.2442e-05 -7.78025e-06 0)
(1.99157e-05 -6.35797e-06 0)
(2.5754e-05 -4.63067e-06 0)
(2.96368e-05 -2.7092e-06 0)
(3.13457e-05 -7.00229e-07 0)
(3.08245e-05 1.25006e-06 0)
(2.814e-05 3.05238e-06 0)
(2.35057e-05 4.59645e-06 0)
(1.72704e-05 5.80891e-06 0)
(9.84198e-06 6.62832e-06 0)
(1.59193e-06 7.01595e-06 0)
(-6.89052e-06 6.9715e-06 0)
(-1.50594e-05 6.5223e-06 0)
(-2.25029e-05 5.70276e-06 0)
(-2.8801e-05 4.58605e-06 0)
(-3.36045e-05 3.24233e-06 0)
(-3.66572e-05 1.75994e-06 0)
(-3.78193e-05 2.19961e-07 0)
(-3.70113e-05 -1.26813e-06 0)
(-3.42916e-05 -2.65473e-06 0)
(-2.98564e-05 -3.86432e-06 0)
(-2.39442e-05 -4.84088e-06 0)
(-1.68587e-05 -5.55446e-06 0)
(-8.97665e-06 -5.96742e-06 0)
(-5.9611e-07 -6.0854e-06 0)
(7.83799e-06 -5.92499e-06 0)
(1.58527e-05 -5.50831e-06 0)
(2.3195e-05 -4.86057e-06 0)
(2.95384e-05 -4.04263e-06 0)
(3.46439e-05 -3.0907e-06 0)
(3.83489e-05 -2.06293e-06 0)
(4.05377e-05 -1.00989e-06 0)
(4.11848e-05 1.69476e-08 0)
(4.03261e-05 9.80176e-07 0)
(3.80613e-05 1.8372e-06 0)
(3.45509e-05 2.56731e-06 0)
(2.99863e-05 3.13741e-06 0)
(2.46026e-05 3.55159e-06 0)
(1.86475e-05 3.79474e-06 0)
(1.23738e-05 3.88013e-06 0)
(6.03626e-06 3.81273e-06 0)
(-1.39136e-07 3.61141e-06 0)
(-5.94127e-06 3.29925e-06 0)
(-1.11884e-05 2.89437e-06 0)
(-1.57348e-05 2.4317e-06 0)
(-1.94738e-05 1.92152e-06 0)
(-2.23549e-05 1.39958e-06 0)
(-2.43334e-05 8.82283e-07 0)
(-2.54145e-05 3.8694e-07 0)
(-2.56512e-05 -7.83645e-08 0)
(-2.50859e-05 -4.88638e-07 0)
(-2.38003e-05 -8.52029e-07 0)
(-2.18816e-05 -1.15714e-06 0)
(-1.9419e-05 -1.4077e-06 0)
(-1.6503e-05 -1.60549e-06 0)
(-1.32251e-05 -1.75681e-06 0)
(-9.66457e-06 -1.86347e-06 0)
(-5.89418e-06 -1.93232e-06 0)
(-1.98329e-06 -1.96538e-06 0)
(-2.73881e-06 0.000119335 0)
(-8.19847e-06 0.000119925 0)
(-1.37184e-05 0.000119553 0)
(-1.92704e-05 0.000118993 0)
(-2.48567e-05 0.000118248 0)
(-3.05006e-05 0.000117339 0)
(-3.61403e-05 0.000116268 0)
(-4.17311e-05 0.000115055 0)
(-4.73384e-05 0.00011373 0)
(-5.29169e-05 0.000112287 0)
(-5.83353e-05 0.000110781 0)
(-6.37099e-05 0.000109212 0)
(-6.90822e-05 0.000107606 0)
(-7.42609e-05 0.000105997 0)
(-7.93489e-05 0.000104422 0)
(-8.43357e-05 0.000102876 0)
(-8.92278e-05 0.000101395 0)
(-9.41029e-05 9.999e-05 0)
(-9.88955e-05 9.86877e-05 0)
(-0.000103707 9.74694e-05 0)
(-0.000108595 9.63712e-05 0)
(-0.000113623 9.53883e-05 0)
(-0.000118854 9.45264e-05 0)
(-0.000124349 9.37961e-05 0)
(-0.000130163 9.31461e-05 0)
(-0.000136316 9.26164e-05 0)
(-0.000142886 9.21699e-05 0)
(-0.000149873 9.17507e-05 0)
(-0.000157265 9.13639e-05 0)
(-0.000165169 9.0971e-05 0)
(-0.000173541 9.05469e-05 0)
(-0.000182307 8.99922e-05 0)
(-0.000191345 8.92779e-05 0)
(-0.000200596 8.83114e-05 0)
(-0.000210107 8.7036e-05 0)
(-0.000219497 8.53515e-05 0)
(-0.000228799 8.31917e-05 0)
(-0.000238189 8.04876e-05 0)
(-0.000247535 7.71892e-05 0)
(-0.000256709 7.32759e-05 0)
(-0.000265626 6.87102e-05 0)
(-0.000274224 6.3476e-05 0)
(-0.000282319 5.75698e-05 0)
(-0.00028982 5.10016e-05 0)
(-0.000296572 4.37804e-05 0)
(-0.000302432 3.59441e-05 0)
(-0.000307295 2.75141e-05 0)
(-0.000311052 1.85603e-05 0)
(-0.000313525 9.13176e-06 0)
(-0.000314636 -6.81657e-07 0)
(-0.000314201 -1.0858e-05 0)
(-0.000312163 -2.12433e-05 0)
(-0.000308432 -3.17682e-05 0)
(-0.000303011 -4.23409e-05 0)
(-0.000295891 -5.2837e-05 0)
(-0.000287007 -6.30929e-05 0)
(-0.000276449 -7.32093e-05 0)
(-0.00026415 -8.27956e-05 0)
(-0.00025022 -9.19854e-05 0)
(-0.000234711 -0.000100405 0)
(-0.000217678 -0.00010816 0)
(-0.000199277 -0.000115003 0)
(-0.000179514 -0.0001209 0)
(-0.000158698 -0.000125694 0)
(-0.000137087 -0.000129328 0)
(-0.000114663 -0.000131702 0)
(-9.16922e-05 -0.000132786 0)
(-6.84555e-05 -0.00013253 0)
(-4.51925e-05 -0.000130872 0)
(-2.2237e-05 -0.000127842 0)
(1.84831e-07 -0.000123406 0)
(2.19797e-05 -0.000117592 0)
(4.27495e-05 -0.000110456 0)
(6.22075e-05 -0.000102093 0)
(8.00992e-05 -9.25679e-05 0)
(9.6122e-05 -8.19996e-05 0)
(0.000110223 -7.05285e-05 0)
(0.000121997 -5.83333e-05 0)
(0.000131349 -4.55334e-05 0)
(0.00013818 -3.23909e-05 0)
(0.000142274 -1.90118e-05 0)
(0.000143704 -5.66741e-06 0)
(0.000142246 7.35433e-06 0)
(0.000137988 1.99201e-05 0)
(0.000131109 3.17746e-05 0)
(0.000121683 4.27692e-05 0)
(0.000109948 5.26613e-05 0)
(9.61324e-05 6.1251e-05 0)
(8.0462e-05 6.8393e-05 0)
(6.33061e-05 7.39141e-05 0)
(4.50025e-05 7.77368e-05 0)
(2.59041e-05 7.97544e-05 0)
(6.50665e-06 7.99398e-05 0)
(-1.27788e-05 7.83006e-05 0)
(-3.15135e-05 7.48668e-05 0)
(-4.92616e-05 6.97469e-05 0)
(-6.55915e-05 6.30563e-05 0)
(-8.00634e-05 5.49784e-05 0)
(-9.24209e-05 4.57226e-05 0)
(-0.000102327 3.5536e-05 0)
(-0.000109455 2.47206e-05 0)
(-0.000113704 1.3555e-05 0)
(-0.000114926 2.35783e-06 0)
(-0.000113097 -8.47072e-06 0)
(-0.000108361 -1.87068e-05 0)
(-0.000100906 -2.80287e-05 0)
(-9.09867e-05 -3.61526e-05 0)
(-7.89449e-05 -4.28205e-05 0)
(-6.51742e-05 -4.78283e-05 0)
(-5.0222e-05 -5.10105e-05 0)
(-3.46131e-05 -5.23016e-05 0)
(-1.88527e-05 -5.16578e-05 0)
(-3.56797e-06 -4.91367e-05 0)
(1.06997e-05 -4.4854e-05 0)
(2.34204e-05 -3.89885e-05 0)
(3.41057e-05 -3.18173e-05 0)
(4.23687e-05 -2.36068e-05 0)
(4.79169e-05 -1.47675e-05 0)
(5.05602e-05 -5.63745e-06 0)
(5.01576e-05 3.36347e-06 0)
(4.67832e-05 1.18465e-05 0)
(4.0723e-05 1.94503e-05 0)
(3.2294e-05 2.58405e-05 0)
(2.19397e-05 3.07224e-05 0)
(1.02224e-05 3.38862e-05 0)
(-2.40122e-06 3.51831e-05 0)
(-1.5178e-05 3.46015e-05 0)
(-2.72745e-05 3.21948e-05 0)
(-3.82063e-05 2.81141e-05 0)
(-4.73665e-05 2.26261e-05 0)
(-5.42778e-05 1.6029e-05 0)
(-5.8605e-05 8.71395e-06 0)
(-6.00704e-05 1.0963e-06 0)
(-5.86061e-05 -6.3212e-06 0)
(-5.43103e-05 -1.32023e-05 0)
(-4.75103e-05 -1.91962e-05 0)
(-3.86411e-05 -2.39302e-05 0)
(-2.81478e-05 -2.71685e-05 0)
(-1.66976e-05 -2.87763e-05 0)
(-4.9271e-06 -2.86994e-05 0)
(6.45745e-06 -2.69573e-05 0)
(1.68056e-05 -2.37565e-05 0)
(2.55467e-05 -1.92994e-05 0)
(3.22041e-05 -1.39182e-05 0)
(3.65061e-05 -7.96131e-06 0)
(3.81865e-05 -1.79471e-06 0)
(3.72344e-05 4.18128e-06 0)
(3.37913e-05 9.6476e-06 0)
(2.81081e-05 1.4307e-05 0)
(2.06249e-05 1.79295e-05 0)
(1.18131e-05 2.03037e-05 0)
(2.14778e-06 2.14059e-05 0)
(-7.67472e-06 2.11807e-05 0)
(-1.70557e-05 1.97248e-05 0)
(-2.5516e-05 1.71759e-05 0)
(-3.25868e-05 1.37301e-05 0)
(-3.79035e-05 9.62852e-06 0)
(-4.12023e-05 5.13191e-06 0)
(-4.23215e-05 5.10758e-07 0)
(-4.12364e-05 -3.96297e-06 0)
(-3.8064e-05 -8.09809e-06 0)
(-3.29969e-05 -1.16782e-05 0)
(-2.63447e-05 -1.45594e-05 0)
(-1.84411e-05 -1.6613e-05 0)
(-9.71479e-06 -1.77978e-05 0)
(-5.39557e-07 -1.81009e-05 0)
(8.6186e-06 -1.75701e-05 0)
(1.72773e-05 -1.62723e-05 0)
(2.5135e-05 -1.43223e-05 0)
(3.18544e-05 -1.18521e-05 0)
(3.7205e-05 -9.01355e-06 0)
(4.10101e-05 -5.95868e-06 0)
(4.31673e-05 -2.84604e-06 0)
(4.3672e-05 1.87819e-07 0)
(4.25752e-05 3.01292e-06 0)
(4e-05 5.52598e-06 0)
(3.61211e-05 7.64188e-06 0)
(3.11613e-05 9.30611e-06 0)
(2.53786e-05 1.04888e-05 0)
(1.90312e-05 1.1174e-05 0)
(1.23952e-05 1.13919e-05 0)
(5.73077e-06 1.11679e-05 0)
(-7.16799e-07 1.05525e-05 0)
(-6.73887e-06 9.61597e-06 0)
(-1.21425e-05 8.41963e-06 0)
(-1.67923e-05 7.04378e-06 0)
(-2.0583e-05 5.55208e-06 0)
(-2.34589e-05 4.0195e-06 0)
(-2.53966e-05 2.51042e-06 0)
(-2.64114e-05 1.05652e-06 0)
(-2.65494e-05 -2.7637e-07 0)
(-2.58703e-05 -1.47394e-06 0)
(-2.44703e-05 -2.51723e-06 0)
(-2.24319e-05 -3.39577e-06 0)
(-1.98579e-05 -4.11366e-06 0)
(-1.68408e-05 -4.67887e-06 0)
(-1.34718e-05 -5.10544e-06 0)
(-9.8305e-06 -5.40701e-06 0)
(-5.98953e-06 -5.59995e-06 0)
(-2.01405e-06 -5.6938e-06 0)
(-4.25953e-06 8.10283e-05 0)
(-1.28084e-05 7.98729e-05 0)
(-2.13353e-05 7.90394e-05 0)
(-2.98024e-05 7.78233e-05 0)
(-3.80916e-05 7.62295e-05 0)
(-4.618e-05 7.43028e-05 0)
(-5.40606e-05 7.20951e-05 0)
(-6.15348e-05 6.96506e-05 0)
(-6.87674e-05 6.70249e-05 0)
(-7.5635e-05 6.42363e-05 0)
(-8.20844e-05 6.13582e-05 0)
(-8.83157e-05 5.84454e-05 0)
(-9.41056e-05 5.56427e-05 0)
(-9.94112e-05 5.30514e-05 0)
(-0.000104525 5.07794e-05 0)
(-0.000109436 4.89533e-05 0)
(-0.000114089 4.764e-05 0)
(-0.000118579 4.69843e-05 0)
(-0.000123109 4.70537e-05 0)
(-0.000127635 4.79479e-05 0)
(-0.00013207 4.96707e-05 0)
(-0.000136624 5.22637e-05 0)
(-0.000141214 5.56685e-05 0)
(-0.000146213 5.98721e-05 0)
(-0.000151487 6.47348e-05 0)
(-0.000156892 7.01675e-05 0)
(-0.00016295 7.60114e-05 0)
(-0.000169448 8.21246e-05 0)
(-0.000176316 8.82387e-05 0)
(-0.000183677 9.42202e-05 0)
(-0.000191878 9.99098e-05 0)
(-0.00020089 0.000104999 0)
(-0.000210569 0.000109507 0)
(-0.000221127 0.000113172 0)
(-0.000232493 0.000115924 0)
(-0.000244625 0.000117737 0)
(-0.000257335 0.000118333 0)
(-0.000270452 0.000117683 0)
(-0.000283634 0.000115656 0)
(-0.000296747 0.000112182 0)
(-0.000309678 0.000107198 0)
(-0.000322187 0.000100692 0)
(-0.000334084 9.26527e-05 0)
(-0.000345162 8.31161e-05 0)
(-0.00035521 7.21167e-05 0)
(-0.000364111 5.97438e-05 0)
(-0.000371625 4.60706e-05 0)
(-0.000377562 3.12379e-05 0)
(-0.000381759 1.53532e-05 0)
(-0.000384127 -1.35547e-06 0)
(-0.000384252 -1.88378e-05 0)
(-0.000381944 -3.68797e-05 0)
(-0.000377487 -5.52968e-05 0)
(-0.000370668 -7.39163e-05 0)
(-0.000361263 -9.24913e-05 0)
(-0.000350089 -0.000110837 0)
(-0.000336444 -0.000128714 0)
(-0.00032038 -0.000145839 0)
(-0.000302147 -0.000162046 0)
(-0.000281763 -0.000177149 0)
(-0.000259575 -0.000190855 0)
(-0.000235356 -0.000202982 0)
(-0.000209492 -0.000213274 0)
(-0.000182167 -0.000221683 0)
(-0.000153547 -0.000227945 0)
(-0.000124085 -0.000231951 0)
(-9.4184e-05 -0.000233605 0)
(-6.37833e-05 -0.000232854 0)
(-3.35022e-05 -0.000229584 0)
(-3.59206e-06 -0.000223824 0)
(2.56091e-05 -0.000215554 0)
(5.36635e-05 -0.000204843 0)
(8.02745e-05 -0.000191808 0)
(0.000105011 -0.000176572 0)
(0.000127578 -0.000159316 0)
(0.000147662 -0.000140235 0)
(0.000164817 -0.000119597 0)
(0.000178912 -9.76801e-05 0)
(0.000189757 -7.47865e-05 0)
(0.000197185 -5.12848e-05 0)
(0.000201043 -2.75229e-05 0)
(0.000200981 -3.86419e-06 0)
(0.000197136 1.92111e-05 0)
(0.000189765 4.14176e-05 0)
(0.00017892 6.2293e-05 0)
(0.000164795 8.15286e-05 0)
(0.000147591 9.87118e-05 0)
(0.000127692 0.000113531 0)
(0.00010546 0.000125678 0)
(8.13906e-05 0.000134933 0)
(5.59625e-05 0.000141078 0)
(2.9698e-05 0.000144013 0)
(3.25242e-06 0.000143662 0)
(-2.28503e-05 0.00014004 0)
(-4.79741e-05 0.00013325 0)
(-7.15234e-05 0.000123467 0)
(-9.2974e-05 0.000110925 0)
(-0.000111777 9.59685e-05 0)
(-0.00012747 7.89578e-05 0)
(-0.000139629 6.04089e-05 0)
(-0.000148 4.07935e-05 0)
(-0.000152446 2.06713e-05 0)
(-0.000152629 5.88355e-07 0)
(-0.000148694 -1.88373e-05 0)
(-0.000140963 -3.70666e-05 0)
(-0.000129561 -5.35494e-05 0)
(-0.000114915 -6.77781e-05 0)
(-9.75386e-05 -7.93141e-05 0)
(-7.79888e-05 -8.77981e-05 0)
(-5.70037e-05 -9.29943e-05 0)
(-3.53161e-05 -9.47376e-05 0)
(-1.36841e-05 -9.30189e-05 0)
(7.09105e-06 -8.79381e-05 0)
(2.62402e-05 -7.97304e-05 0)
(4.30371e-05 -6.87449e-05 0)
(5.69198e-05 -5.54531e-05 0)
(6.72903e-05 -4.04034e-05 0)
(7.38378e-05 -2.42609e-05 0)
(7.63594e-05 -7.70749e-06 0)
(7.47247e-05 8.46739e-06 0)
(6.91013e-05 2.36293e-05 0)
(5.98497e-05 3.71258e-05 0)
(4.74658e-05 4.83395e-05 0)
(3.25835e-05 5.67592e-05 0)
(1.59599e-05 6.20408e-05 0)
(-1.65245e-06 6.39579e-05 0)
(-1.9224e-05 6.24875e-05 0)
(-3.5762e-05 5.77592e-05 0)
(-5.04616e-05 5.00804e-05 0)
(-6.25954e-05 3.99276e-05 0)
(-7.15606e-05 2.78894e-05 0)
(-7.68988e-05 1.46528e-05 0)
(-7.82366e-05 9.97518e-07 0)
(-7.5639e-05 -1.22642e-05 0)
(-6.94412e-05 -2.44791e-05 0)
(-5.99299e-05 -3.4955e-05 0)
(-4.76934e-05 -4.3113e-05 0)
(-3.35296e-05 -4.85535e-05 0)
(-1.82942e-05 -5.10539e-05 0)
(-2.79689e-06 -5.0542e-05 0)
(1.1981e-05 -4.71583e-05 0)
(2.52045e-05 -4.12e-05 0)
(3.61391e-05 -3.31452e-05 0)
(4.42448e-05 -2.35093e-05 0)
(4.91911e-05 -1.29543e-05 0)
(5.07123e-05 -2.15556e-06 0)
(4.88713e-05 8.21427e-06 0)
(4.39348e-05 1.76138e-05 0)
(3.62823e-05 2.55175e-05 0)
(2.64261e-05 3.15468e-05 0)
(1.50983e-05 3.54033e-05 0)
(2.9174e-06 3.70284e-05 0)
(-9.34407e-06 3.63869e-05 0)
(-2.08673e-05 3.36541e-05 0)
(-3.11087e-05 2.90992e-05 0)
(-3.95188e-05 2.30664e-05 0)
(-4.56802e-05 1.59812e-05 0)
(-4.93216e-05 8.28654e-06 0)
(-5.0311e-05 4.59563e-07 0)
(-4.87022e-05 -7.10368e-06 0)
(-4.46535e-05 -1.40008e-05 0)
(-3.84379e-05 -1.99237e-05 0)
(-3.04282e-05 -2.46131e-05 0)
(-2.10699e-05 -2.78968e-05 0)
(-1.08947e-05 -2.97253e-05 0)
(-3.18557e-07 -3.00779e-05 0)
(1.01172e-05 -2.90487e-05 0)
(1.98651e-05 -2.67548e-05 0)
(2.85981e-05 -2.34173e-05 0)
(3.59559e-05 -1.92431e-05 0)
(4.16895e-05 -1.44971e-05 0)
(4.56397e-05 -9.42879e-06 0)
(4.77217e-05 -4.29789e-06 0)
(4.79557e-05 6.72642e-07 0)
(4.6426e-05 5.27281e-06 0)
(4.32919e-05 9.33295e-06 0)
(3.87745e-05 1.27287e-05 0)
(3.31319e-05 1.53754e-05 0)
(2.66453e-05 1.72155e-05 0)
(1.96265e-05 1.82567e-05 0)
(1.23723e-05 1.85275e-05 0)
(5.15642e-06 1.80881e-05 0)
(-1.75145e-06 1.7026e-05 0)
(-8.13402e-06 1.54527e-05 0)
(-1.38033e-05 1.34732e-05 0)
(-1.86174e-05 1.12114e-05 0)
(-2.24802e-05 8.78704e-06 0)
(-2.53441e-05 6.29848e-06 0)
(-2.72118e-05 3.85937e-06 0)
(-2.80918e-05 1.5366e-06 0)
(-2.80547e-05 -5.91657e-07 0)
(-2.71896e-05 -2.49546e-06 0)
(-2.55844e-05 -4.13946e-06 0)
(-2.33466e-05 -5.51762e-06 0)
(-2.05831e-05 -6.63555e-06 0)
(-1.73928e-05 -7.50896e-06 0)
(-1.38711e-05 -8.16307e-06 0)
(-1.00984e-05 -8.623e-06 0)
(-6.14304e-06 -8.91452e-06 0)
(-2.06407e-06 -9.05603e-06 0)
(-5.93268e-06 0.000275501 0)
(-1.75828e-05 0.000275241 0)
(-2.90624e-05 0.000273098 0)
(-4.01931e-05 0.000269889 0)
(-5.0804e-05 0.000265672 0)
(-6.06757e-05 0.000260468 0)
(-6.97795e-05 0.00025441 0)
(-7.80518e-05 0.000247525 0)
(-8.5758e-05 0.000240025 0)
(-9.27487e-05 0.000231935 0)
(-9.86831e-05 0.000223387 0)
(-0.000103261 0.000214466 0)
(-0.000106237 0.000205429 0)
(-0.000107725 0.000196435 0)
(-0.000107741 0.000187747 0)
(-0.000106574 0.000179628 0)
(-0.000104155 0.00017237 0)
(-0.000100596 0.000166238 0)
(-9.61722e-05 0.000161412 0)
(-9.13693e-05 0.000158058 0)
(-8.65804e-05 0.000156332 0)
(-8.22469e-05 0.000156253 0)
(-7.87171e-05 0.000157686 0)
(-7.65197e-05 0.000160575 0)
(-7.60784e-05 0.000164566 0)
(-7.74486e-05 0.000169601 0)
(-8.09973e-05 0.000175364 0)
(-8.72166e-05 0.000181631 0)
(-9.59737e-05 0.000188418 0)
(-0.000106745 0.000195402 0)
(-0.000120349 0.000202371 0)
(-0.000135769 0.00020889 0)
(-0.000152574 0.000214732 0)
(-0.000171136 0.000219491 0)
(-0.000190308 0.000222691 0)
(-0.00021071 0.000224111 0)
(-0.000232332 0.000223505 0)
(-0.000254561 0.00022082 0)
(-0.000277406 0.000215844 0)
(-0.000300405 0.000208479 0)
(-0.000323185 0.000198714 0)
(-0.000345419 0.000186512 0)
(-0.000366721 0.000171917 0)
(-0.000386792 0.000154992 0)
(-0.00040525 0.000135852 0)
(-0.000421814 0.000114601 0)
(-0.000436178 9.14577e-05 0)
(-0.000448106 6.66558e-05 0)
(-0.000457106 4.03404e-05 0)
(-0.000463376 1.27737e-05 0)
(-0.000466815 -1.58463e-05 0)
(-0.000466849 -4.51269e-05 0)
(-0.000463648 -7.49211e-05 0)
(-0.000456998 -0.000104607 0)
(-0.00044687 -0.000134243 0)
(-0.000433399 -0.00016331 0)
(-0.000416265 -0.00019145 0)
(-0.000395743 -0.000218292 0)
(-0.000372381 -0.000243656 0)
(-0.000345806 -0.00026708 0)
(-0.000316179 -0.000288219 0)
(-0.000283805 -0.000306859 0)
(-0.000249254 -0.000322568 0)
(-0.000212829 -0.00033528 0)
(-0.000174584 -0.000344575 0)
(-0.000135182 -0.000350429 0)
(-9.51075e-05 -0.00035254 0)
(-5.45545e-05 -0.00035088 0)
(-1.40863e-05 -0.000345338 0)
(2.56597e-05 -0.000335949 0)
(6.43128e-05 -0.000322714 0)
(0.000101333 -0.000305781 0)
(0.00013619 -0.000285268 0)
(0.000168387 -0.000261457 0)
(0.000197499 -0.000234537 0)
(0.00022302 -0.000204953 0)
(0.000244622 -0.000173018 0)
(0.000261899 -0.000139191 0)
(0.000274569 -0.000103957 0)
(0.000282436 -6.78864e-05 0)
(0.000285371 -3.15567e-05 0)
(0.000283118 4.40609e-06 0)
(0.000275789 3.95024e-05 0)
(0.000263611 7.30895e-05 0)
(0.000246743 0.000104603 0)
(0.000225489 0.0001334 0)
(0.000200152 0.00015897 0)
(0.000171303 0.000180807 0)
(0.000139472 0.000198472 0)
(0.000105328 0.000211613 0)
(6.95578e-05 0.000219931 0)
(3.29215e-05 0.000223271 0)
(-3.7692e-06 0.000221572 0)
(-3.96554e-05 0.00021488 0)
(-7.38987e-05 0.000203359 0)
(-0.000105752 0.000187257 0)
(-0.00013442 0.00016703 0)
(-0.000159198 0.000143167 0)
(-0.000179456 0.00011635 0)
(-0.000194683 8.72358e-05 0)
(-0.000204541 5.66501e-05 0)
(-0.000208832 2.54375e-05 0)
(-0.000207347 -5.47683e-06 0)
(-0.000200182 -3.52895e-05 0)
(-0.000187742 -6.30785e-05 0)
(-0.00017036 -8.79938e-05 0)
(-0.000148613 -0.000109303 0)
(-0.000123244 -0.000126328 0)
(-9.51414e-05 -0.000138584 0)
(-6.53118e-05 -0.000145678 0)
(-3.47876e-05 -0.000147419 0)
(-4.64289e-06 -0.000143795 0)
(2.40033e-05 -0.000135013 0)
(5.0125e-05 -0.000121451 0)
(7.27525e-05 -0.000103714 0)
(9.106e-05 -8.25062e-05 0)
(0.000104349 -5.87752e-05 0)
(0.000112161 -3.34989e-05 0)
(0.000114158 -7.77455e-06 0)
(0.000110371 1.71795e-05 0)
(0.000101236 4.047e-05 0)
(8.71565e-05 6.09513e-05 0)
(6.87904e-05 7.77704e-05 0)
(4.71465e-05 9.01669e-05 0)
(2.33542e-05 9.76537e-05 0)
(-1.52024e-06 9.98959e-05 0)
(-2.60803e-05 9.68882e-05 0)
(-4.89338e-05 8.88817e-05 0)
(-6.90149e-05 7.64457e-05 0)
(-8.52936e-05 6.02404e-05 0)
(-9.70055e-05 4.13317e-05 0)
(-0.000103565 2.0752e-05 0)
(-0.000104569 -2.60538e-07 0)
(-0.000100249 -2.06072e-05 0)
(-9.0994e-05 -3.91101e-05 0)
(-7.73122e-05 -5.47692e-05 0)
(-6.01606e-05 -6.67373e-05 0)
(-4.05996e-05 -7.44858e-05 0)
(-1.98298e-05 -7.76562e-05 0)
(9.52855e-07 -7.62564e-05 0)
(2.0487e-05 -7.05619e-05 0)
(3.76461e-05 -6.10455e-05 0)
(5.15745e-05 -4.84853e-05 0)
(6.15875e-05 -3.37024e-05 0)
(6.72421e-05 -1.77336e-05 0)
(6.83201e-05 -1.56096e-06 0)
(6.50653e-05 1.3834e-05 0)
(5.78846e-05 2.76134e-05 0)
(4.73017e-05 3.90205e-05 0)
(3.41006e-05 4.75215e-05 0)
(1.9219e-05 5.2803e-05 0)
(3.49625e-06 5.4679e-05 0)
(-1.20696e-05 5.33013e-05 0)
(-2.64853e-05 4.88994e-05 0)
(-3.90798e-05 4.19032e-05 0)
(-4.92142e-05 3.28693e-05 0)
(-5.64316e-05 2.24141e-05 0)
(-6.04448e-05 1.12047e-05 0)
(-6.11882e-05 -1.05562e-07 0)
(-5.87672e-05 -1.09209e-05 0)
(-5.34353e-05 -2.06867e-05 0)
(-4.55829e-05 -2.8959e-05 0)
(-3.56998e-05 -3.54086e-05 0)
(-2.43788e-05 -3.98331e-05 0)
(-1.22325e-05 -4.21489e-05 0)
(2.04735e-07 -4.23813e-05 0)
(1.23153e-05 -4.06764e-05 0)
(2.34857e-05 -3.7242e-05 0)
(3.33304e-05 -3.23615e-05 0)
(4.1481e-05 -2.63788e-05 0)
(4.76792e-05 -1.96388e-05 0)
(5.1774e-05 -1.25132e-05 0)
(5.37091e-05 -5.34907e-06 0)
(5.35484e-05 1.53546e-06 0)
(5.14126e-05 7.85846e-06 0)
(4.75237e-05 1.33988e-05 0)
(4.21514e-05 1.79885e-05 0)
(3.55915e-05 2.15104e-05 0)
(2.8194e-05 2.39214e-05 0)
(2.03035e-05 2.52166e-05 0)
(1.22438e-05 2.54612e-05 0)
(4.32608e-06 2.47365e-05 0)
(-3.16118e-06 2.31782e-05 0)
(-9.9995e-06 2.09298e-05 0)
(-1.59928e-05 1.81504e-05 0)
(-2.09995e-05 1.50083e-05 0)
(-2.49443e-05 1.16641e-05 0)
(-2.77839e-05 8.26563e-06 0)
(-2.95299e-05 4.94591e-06 0)
(-3.02314e-05 1.81407e-06 0)
(-2.99703e-05 -1.05199e-06 0)
(-2.8847e-05 -3.58561e-06 0)
(-2.69774e-05 -5.76525e-06 0)
(-2.44797e-05 -7.57459e-06 0)
(-2.14733e-05 -9.02892e-06 0)
(-1.80661e-05 -1.01557e-05 0)
(-1.43555e-05 -1.09889e-05 0)
(-1.04201e-05 -1.15709e-05 0)
(-6.32563e-06 -1.19371e-05 0)
(-2.12299e-06 -1.21127e-05 0)
(-1.134e-05 0.000262183 0)
(-3.3722e-05 0.000256862 0)
(-5.57645e-05 0.000250345 0)
(-7.70009e-05 0.000240641 0)
(-9.72359e-05 0.000227985 0)
(-0.000116 0.000212435 0)
(-0.000133276 0.000194818 0)
(-0.000148466 0.000174895 0)
(-0.000161771 0.000154355 0)
(-0.00017359 0.000132899 0)
(-0.000183556 0.000111969 0)
(-0.000191163 9.1745e-05 0)
(-0.000195857 7.30781e-05 0)
(-0.000197655 5.61969e-05 0)
(-0.000196298 4.14522e-05 0)
(-0.00019175 2.88103e-05 0)
(-0.000184072 1.86562e-05 0)
(-0.000174053 1.13762e-05 0)
(-0.000162466 7.17089e-06 0)
(-0.000149509 6.26736e-06 0)
(-0.000135946 8.75941e-06 0)
(-0.000123489 1.48195e-05 0)
(-0.000112471 2.46601e-05 0)
(-0.000104312 3.814e-05 0)
(-9.88829e-05 5.5323e-05 0)
(-9.58122e-05 7.56767e-05 0)
(-9.63017e-05 9.97637e-05 0)
(-9.86231e-05 0.000125424 0)
(-0.000103082 0.000153196 0)
(-0.000110738 0.000180651 0)
(-0.000122413 0.000207838 0)
(-0.000137904 0.000233087 0)
(-0.000156853 0.000256408 0)
(-0.000180436 0.000276629 0)
(-0.000207541 0.000293312 0)
(-0.00023712 0.000305877 0)
(-0.000268259 0.000314074 0)
(-0.000300553 0.000317596 0)
(-0.000333847 0.000316392 0)
(-0.000367118 0.000310447 0)
(-0.000399957 0.000299854 0)
(-0.000431899 0.000284697 0)
(-0.000462338 0.000265303 0)
(-0.000490792 0.000241753 0)
(-0.000516913 0.000214481 0)
(-0.00054021 0.00018376 0)
(-0.000559986 0.000149986 0)
(-0.00057638 0.000113477 0)
(-0.000589149 7.46517e-05 0)
(-0.000598095 3.38972e-05 0)
(-0.000602438 -8.09925e-06 0)
(-0.000602189 -5.11203e-05 0)
(-0.000596904 -9.46633e-05 0)
(-0.000587145 -0.000138413 0)
(-0.000573162 -0.000181687 0)
(-0.000554321 -0.000224073 0)
(-0.000530572 -0.000264951 0)
(-0.000502651 -0.000303952 0)
(-0.000470612 -0.000340456 0)
(-0.000433945 -0.000374014 0)
(-0.000393874 -0.000404246 0)
(-0.000350029 -0.000430544 0)
(-0.000303316 -0.000452895 0)
(-0.000254043 -0.000470484 0)
(-0.000202511 -0.000483371 0)
(-0.000149605 -0.000491024 0)
(-9.57449e-05 -0.000493444 0)
(-4.15068e-05 -0.000490307 0)
(1.23259e-05 -0.000481718 0)
(6.51251e-05 -0.000467565 0)
(0.000116229 -0.000447993 0)
(0.000164905 -0.000423132 0)
(0.000210484 -0.000393265 0)
(0.000252341 -0.0003587 0)
(0.000289813 -0.000319858 0)
(0.0003223 -0.000277246 0)
(0.000349377 -0.000231416 0)
(0.000370519 -0.000183071 0)
(0.00038535 -0.000132896 0)
(0.000393531 -8.17146e-05 0)
(0.000394861 -3.02349e-05 0)
(0.00038933 2.06276e-05 0)
(0.000377133 7.00864e-05 0)
(0.000358442 0.000117201 0)
(0.000333414 0.000161181 0)
(0.00030249 0.000201143 0)
(0.000266323 0.000236373 0)
(0.000225543 0.000266117 0)
(0.000180949 0.000289826 0)
(0.000133449 0.000306966 0)
(8.40271e-05 0.000317238 0)
(3.38007e-05 0.000320385 0)
(-1.61045e-05 0.000316351 0)
(-6.46427e-05 0.000305186 0)
(-0.000110745 0.000287196 0)
(-0.000153211 0.000262823 0)
(-0.000191032 0.00023269 0)
(-0.000223248 0.000197562 0)
(-0.000249104 0.000158337 0)
(-0.000267999 0.00011605 0)
(-0.000279394 7.1886e-05 0)
(-0.000283052 2.70441e-05 0)
(-0.000278861 -1.70864e-05 0)
(-0.000267081 -5.9399e-05 0)
(-0.000248072 -9.85896e-05 0)
(-0.000222466 -0.000133482 0)
(-0.000191121 -0.000162984 0)
(-0.000155124 -0.00018623 0)
(-0.00011567 -0.000202487 0)
(-7.41108e-05 -0.000211263 0)
(-3.19277e-05 -0.000212361 0)
(9.37155e-06 -0.000205787 0)
(4.82819e-05 -0.000191914 0)
(8.33606e-05 -0.000171275 0)
(0.000113353 -0.000144772 0)
(0.000137162 -0.000113535 0)
(0.000153827 -7.88875e-05 0)
(0.000162899 -4.2288e-05 0)
(0.000163874 -5.31019e-06 0)
(0.000157091 3.04809e-05 0)
(0.000143 6.35282e-05 0)
(0.000122141 9.23507e-05 0)
(9.5729e-05 0.00011574 0)
(6.50916e-05 0.000132589 0)
(3.17473e-05 0.000142271 0)
(-2.7524e-06 0.000144372 0)
(-3.64476e-05 0.000139008 0)
(-6.74693e-05 0.000126533 0)
(-9.44281e-05 0.000107813 0)
(-0.000115917 8.39415e-05 0)
(-0.000130873 5.63532e-05 0)
(-0.000138685 2.66836e-05 0)
(-0.000138991 -3.35613e-06 0)
(-0.000132078 -3.21579e-05 0)
(-0.000118526 -5.80505e-05 0)
(-9.91968e-05 -7.96248e-05 0)
(-7.54319e-05 -9.58554e-05 0)
(-4.876e-05 -0.000105888 0)
(-2.08111e-05 -0.000109431 0)
(6.73171e-06 -0.000106555 0)
(3.22812e-05 -9.7675e-05 0)
(5.43737e-05 -8.36112e-05 0)
(7.18846e-05 -6.54478e-05 0)
(8.40161e-05 -4.44393e-05 0)
(9.03052e-05 -2.20473e-05 0)
(9.06422e-05 3.32088e-07 0)
(8.53681e-05 2.14702e-05 0)
(7.51028e-05 4.00904e-05 0)
(6.06552e-05 5.52626e-05 0)
(4.31288e-05 6.6316e-05 0)
(2.37045e-05 7.28342e-05 0)
(3.56265e-06 7.47081e-05 0)
(-1.60379e-05 7.21767e-05 0)
(-3.39723e-05 6.56301e-05 0)
(-4.93557e-05 5.56936e-05 0)
(-6.14684e-05 4.31522e-05 0)
(-6.98147e-05 2.88743e-05 0)
(-7.41324e-05 1.37562e-05 0)
(-7.44197e-05 -1.33622e-06 0)
(-7.08806e-05 -1.55956e-05 0)
(-6.38783e-05 -2.8317e-05 0)
(-5.3958e-05 -3.8966e-05 0)
(-4.17702e-05 -4.71182e-05 0)
(-2.80335e-05 -5.25701e-05 0)
(-1.35159e-05 -5.52254e-05 0)
(1.13358e-06 -5.51416e-05 0)
(1.51996e-05 -5.25741e-05 0)
(2.80131e-05 -4.78112e-05 0)
(3.91317e-05 -4.12265e-05 0)
(4.81585e-05 -3.32899e-05 0)
(5.48418e-05 -2.44543e-05 0)
(5.90439e-05 -1.52037e-05 0)
(6.07527e-05 -5.97912e-06 0)
(6.00703e-05 2.80539e-06 0)
(5.71861e-05 1.0814e-05 0)
(5.23784e-05 1.77723e-05 0)
(4.59715e-05 2.34674e-05 0)
(3.83388e-05 2.77781e-05 0)
(2.98659e-05 3.06625e-05 0)
(2.09565e-05 3.21225e-05 0)
(1.19775e-05 3.22521e-05 0)
(3.25752e-06 3.11726e-05 0)
(-4.88927e-06 2.90584e-05 0)
(-1.22352e-05 2.60931e-05 0)
(-1.85811e-05 2.2496e-05 0)
(-2.37928e-05 1.8468e-05 0)
(-2.78008e-05 1.42205e-05 0)
(-3.05863e-05 9.93695e-06 0)
(-3.21886e-05 5.78101e-06 0)
(-3.26671e-05 1.88658e-06 0)
(-3.2128e-05 -1.65071e-06 0)
(-3.07049e-05 -4.7578e-06 0)
(-2.85264e-05 -7.40316e-06 0)
(-2.57269e-05 -9.58369e-06 0)
(-2.24447e-05 -1.13176e-05 0)
(-1.8791e-05 -1.2646e-05 0)
(-1.48696e-05 -1.36173e-05 0)
(-1.076e-05 -1.42844e-05 0)
(-6.51694e-06 -1.46979e-05 0)
(-2.18425e-06 -1.48957e-05 0)
(-2.47716e-05 0.000542319 0)
(-7.34401e-05 0.000534702 0)
(-0.000121023 0.000521887 0)
(-0.000165829 0.000502744 0)
(-0.000207665 0.000477676 0)
(-0.000243387 0.000446353 0)
(-0.000274768 0.000410948 0)
(-0.000297519 0.000370063 0)
(-0.000312437 0.000329476 0)
(-0.00032025 0.000285044 0)
(-0.00031841 0.000240001 0)
(-0.000309896 0.000193642 0)
(-0.000294416 0.000148194 0)
(-0.000274718 0.000105045 0)
(-0.000252184 6.59929e-05 0)