# Probe 0 (0 0 0)
# Time            0                
0                 0                
0.0025            281858.5687      
0.005             375902.453       
0.0075            488097.7375      
0.01              577697.4113      
0.0125            613094.1539      
0.015             625213.7322      
0.0175            630675.3095      
0.02              633844.3301      
0.0225            635936.5984      
0.025             637427.6733      
0.0275            638546.0691      
0.03              639416.2725      
0.0325            640112.2922      
0.035             640681.0759      
0.0375            641153.9386      
0.04              641552.6218      
0.0425            641892.7227      
0.045             642185.739       
0.0475            642440.3439      
0.05              642663.2093      
0.0525            642859.5561      
0.055             643033.5301      
0.0575            643188.4667      
0.06              643327.0806      
0.0625            643451.6038      
0.065             643563.8883      
0.0675            643665.4839      
0.07              643757.6972      
0.0725            643841.6368      
0.075             643918.2499      
0.0775            643988.3498      
0.08              644052.639       
0.0825            644111.7267      
0.085             644166.1441      
0.0875            644216.3558      
0.09              644262.7701      
0.0925            644305.7471      
0.095             644345.6051      
0.0975            644382.6268      
0.1               644417.0638      
0.1025            644449.1404      
0.105             644479.0578      
0.1075            644506.9961      
0.11              644533.1176      
0.1125            644557.5682      
0.115             644580.48        
0.1175            644601.9724      
0.12              644622.1538      
0.1225            644641.1226      
0.125             644658.9683      
0.1275            644675.7725      
0.13              644691.6098      
0.1325            644706.5484      
0.135             644720.6506      
0.1375            644733.9738      
0.14              644746.5705      
0.1425            644758.4891      
0.145             644769.7741      
0.1475            644780.4665      
0.15              644790.6043      
0.1525            644800.2224      
0.155             644809.3532      
0.1575            644818.0268      
0.16              644826.2708      
0.1625            644834.1112      
0.165             644841.5719      
0.1675            644848.6752      
0.17              644855.4418      
0.1725            644861.8909      
0.175             644868.0407      
0.1775            644873.908       
0.18              644879.5083      
0.1825            644884.8563      
0.185             644889.9658      
0.1875            644894.8496      
0.19              644899.5197      
0.1925            644903.9874      
0.195             644908.2631      
0.1975            644912.357       
0.2               644916.2781      
0.2025            644920.0354      
0.205             644923.637       
0.2075            644927.0907      
0.21              644930.4037      
0.2125            644933.583       
0.215             644936.635       
0.2175            644939.5659      
0.22              644942.3813      
0.2225            644945.0868      
0.225             644947.6874      
0.2275            644950.1881      
0.23              644952.5934      
0.2325            644954.9076      
0.235             644957.135       
0.2375            644959.2793      
0.24              644961.3444      
0.2425            644963.3336      
0.245             644965.2504      
0.2475            644967.0978      
0.25              644968.8789      
0.2525            644970.5965      
0.255             644972.2532      
0.2575            644973.8517      
0.26              644975.3945      
0.2625            644976.8837      
0.265             644978.3217      
0.2675            644979.7105      
0.27              644981.0521      
0.2725            644982.3485      
0.275             644983.6014      
0.2775            644984.8126      
0.28              644985.9837      
0.2825            644987.1164      
0.285             644988.212       
0.2875            644989.2721      
0.29              644990.298       
0.2925            644991.2911      
0.295             644992.2525      
0.2975            644993.1835      
0.3               644994.0852      
0.3025            644994.9587      
0.305             644995.805       
0.3075            644996.6252      
0.31              644997.4203      
0.3125            644998.191       
0.315             644998.9384      
0.3175            644999.6632      
0.32              645000.3662      
0.3225            645001.0483      
0.325             645001.7101      
0.3275            645002.3524      
0.33              645002.9759      
0.3325            645003.5812      
0.335             645004.1689      
0.3375            645004.7397      
0.34              645005.2941      
0.3425            645005.8327      
0.345             645006.3559      
0.3475            645006.8644      
0.35              645007.3586      
0.3525            645007.839       
0.355             645008.3061      
0.3575            645008.7602      
0.36              645009.2019      
0.3625            645009.6314      
0.365             645010.0493      
0.3675            645010.4558      
0.37              645010.8514      
0.3725            645011.2363      
0.375             645011.611       
0.3775            645011.9757      
0.38              645012.3308      
0.3825            645012.6765      
0.385             645013.0132      
0.3875            645013.3411      
0.39              645013.6605      
0.3925            645013.9716      
0.395             645014.2748      
0.3975            645014.5702      
0.4               645014.858       
0.4025            645015.1386      
0.405             645015.4121      
0.4075            645015.6787      
0.41              645015.9387      
0.4125            645016.1922      
0.415             645016.4394      
0.4175            645016.6805      
0.42              645016.9156      
0.4225            645017.145       
0.425             645017.3689      
0.4275            645017.5872      
0.43              645017.8004      
0.4325            645018.0083      
0.435             645018.2113      
0.4375            645018.4095      
0.44              645018.6029      
0.4425            645018.7918      
0.445             645018.9762      
0.4475            645019.1563      
0.45              645019.3321      
0.4525            645019.5039      
0.455             645019.6717      
0.4575            645019.8356      
0.46              645019.9957      
0.4625            645020.1521      
0.465             645020.305       
0.4675            645020.4544      
0.47              645020.6003      
0.4725            645020.743       
0.475             645020.8825      
0.4775            645021.0188      
0.48              645021.1521      
0.4825            645021.2824      
0.485             645021.4098      
0.4875            645021.5344      
0.49              645021.6562      
0.4925            645021.7754      
0.495             645021.8919      
0.4975            645022.0059      
0.5               645022.1174      
