# Probe 0 (0 0 0)
# Time            0                
0                 0                
0.0025            -0.01439298821   
0.005             -0.01340287761   
0.0075            -0.02842356863   
0.01              -0.03706116996   
0.0125            -0.04070809622   
0.015             -0.04166926291   
0.0175            -0.04186443569   
0.02              -0.04195059667   
0.0225            -0.0420166579    
0.025             -0.0420747438    
0.0275            -0.04212690134   
0.03              -0.04217378503   
0.0325            -0.0422159067    
0.035             -0.04225377303   
0.0375            -0.04228787018   
0.04              -0.04231864399   
0.0425            -0.04234649155   
0.045             -0.04237176085   
0.0475            -0.04239475432   
0.05              -0.04241573389   
0.0525            -0.04243492628   
0.055             -0.04245252793   
0.0575            -0.04246870943   
0.06              -0.04248361929   
0.0625            -0.04249738723   
0.065             -0.04251012685   
0.0675            -0.04252193801   
0.07              -0.0425329087    
0.0725            -0.04254311675   
0.075             -0.04255263115   
0.0775            -0.04256151327   
0.08              -0.04256981784   
0.0825            -0.04257759376   
0.085             -0.04258488489   
0.0875            -0.04259173062   
0.09              -0.04259816641   
0.0925            -0.04260422428   
0.095             -0.04260993317   
0.0975            -0.04261531932   
0.1               -0.04262040653   
0.1025            -0.04262521647   
0.105             -0.04262976886   
0.1075            -0.04263408173   
0.11              -0.04263817153   
0.1125            -0.04264205334   
0.115             -0.04264574099   
0.1175            -0.04264924718   
0.12              -0.04265258358   
0.1225            -0.04265576094   
0.125             -0.04265878919   
0.1275            -0.04266167747   
0.13              -0.04266443425   
0.1325            -0.04266706737   
0.135             -0.04266958408   
0.1375            -0.04267199112   
0.14              -0.04267429473   
0.1425            -0.04267650074   
0.145             -0.04267861455   
0.1475            -0.0426806412    
0.15              -0.04268258539   
0.1525            -0.04268445151   
0.155             -0.04268624366   
0.1575            -0.04268796566   
0.16              -0.0426896211    
0.1625            -0.04269121335   
0.165             -0.04269274555   
0.1675            -0.04269422065   
0.17              -0.04269564143   
0.1725            -0.04269701049   
0.175             -0.0426983303    
0.1775            -0.04269960314   
0.18              -0.0427008312    
0.1825            -0.04270201653   
0.185             -0.04270316105   
0.1875            -0.04270426659   
0.19              -0.04270533487   
0.1925            -0.04270636752   
0.195             -0.04270736607   
0.1975            -0.04270833199   
0.2               -0.04270926665   
0.2025            -0.04271017135   
0.205             -0.04271104734   
0.2075            -0.04271189578   
0.21              -0.0427127178    
0.2125            -0.04271351444   
0.215             -0.04271428672   
0.2175            -0.04271503559   
0.22              -0.04271576196   
0.2225            -0.0427164667    
0.225             -0.04271715062   
0.2275            -0.04271781451   
0.23              -0.04271845912   
0.2325            -0.04271908516   
0.235             -0.04271969332   
0.2375            -0.04272028424   
0.24              -0.04272085853   
0.2425            -0.0427214168    
0.245             -0.0427219596    
0.2475            -0.04272248748   
0.25              -0.04272300095   
0.2525            -0.04272350051   
0.255             -0.04272398664   
0.2575            -0.04272445978   
0.26              -0.04272492037   
0.2625            -0.04272536883   
0.265             -0.04272580555   
0.2675            -0.04272623092   
0.27              -0.0427266453    
0.2725            -0.04272704906   
0.275             -0.04272744252   
0.2775            -0.04272782601   
0.28              -0.04272819985   
0.2825            -0.04272856433   
0.285             -0.04272891974   
0.2875            -0.04272926637   
0.29              -0.04272960447   
0.2925            -0.0427299343    
0.295             -0.04273025612   
0.2975            -0.04273057016   
0.3               -0.04273087664   
0.3025            -0.0427311758    
0.305             -0.04273146784   
0.3075            -0.04273175298   
0.31              -0.0427320314    
0.3125            -0.04273230329   
0.315             -0.04273256886   
0.3175            -0.04273282826   
0.32              -0.04273308168   
0.3225            -0.04273332927   
0.325             -0.04273357121   
0.3275            -0.04273380764   
0.33              -0.04273403872   
0.3325            -0.04273426458   
0.335             -0.04273448538   
0.3375            -0.04273470123   
0.34              -0.04273491229   
0.3425            -0.04273511867   
0.345             -0.04273532049   
0.3475            -0.04273551788   
0.35              -0.04273571095   
0.3525            -0.0427358998    
0.355             -0.04273608456   
0.3575            -0.04273626532   
0.36              -0.04273644218   
0.3625            -0.04273661525   
0.365             -0.04273678461   
0.3675            -0.04273695036   
0.37              -0.0427371126    
0.3725            -0.04273727139   
0.375             -0.04273742684   
0.3775            -0.04273757903   
0.38              -0.04273772802   
0.3825            -0.04273787391   
0.385             -0.04273801675   
0.3875            -0.04273815664   
0.39              -0.04273829363   
0.3925            -0.0427384278    
0.395             -0.04273855921   
0.3975            -0.04273868793   
0.4               -0.04273881402   
0.4025            -0.04273893754   
0.405             -0.04273905855   
0.4075            -0.04273917711   
0.41              -0.04273929327   
0.4125            -0.0427394071    
0.415             -0.04273951864   
0.4175            -0.04273962795   
0.42              -0.04273973507   
0.4225            -0.04273984005   
0.425             -0.04273994295   
0.4275            -0.04274004381   
0.43              -0.04274014268   
0.4325            -0.04274023959   
0.435             -0.04274033459   
0.4375            -0.04274042773   
0.44              -0.04274051905   
0.4425            -0.04274060858   
0.445             -0.04274069636   
0.4475            -0.04274078244   
0.45              -0.04274086684   
0.4525            -0.04274094961   
0.455             -0.04274103078   
0.4575            -0.04274111038   
0.46              -0.04274118845   
0.4625            -0.04274126502   
0.465             -0.04274134012   
0.4675            -0.04274141378   
0.47              -0.04274148603   
0.4725            -0.04274155691   
0.475             -0.04274162643   
0.4775            -0.04274169464   
0.48              -0.04274176155   
0.4825            -0.04274182719   
0.485             -0.04274189159   
0.4875            -0.04274195478   
0.49              -0.04274201678   
0.4925            -0.04274207761   
0.495             -0.0427421373    
0.4975            -0.04274219587   
0.5               -0.04274225334   
