# Probe 0 (0 0 0)
# Time            0                
0                 100000           
0.0025            103120.1562      
0.005             106411.3153      
0.0075            108223.2144      
0.01              109695.5376      
0.0125            111056.3042      
0.015             112369.2754      
0.0175            113594.7603      
0.02              114721.6464      
0.0225            115760.7587      
0.025             116722.1789      
0.0275            117613.9017      
0.03              118442.4691      
0.0325            119213.4356      
0.035             119931.6396      
0.0375            120601.3647      
0.04              121226.443       
0.0425            121810.3269      
0.045             122356.1417      
0.0475            122866.7269      
0.05              123344.6701      
0.0525            123792.3348      
0.055             124211.8839      
0.0575            124605.3006      
0.06              124974.4062      
0.0625            125320.8757      
0.065             125646.2515      
0.0675            125951.9561      
0.07              126239.3024      
0.0725            126509.5041      
0.075             126763.684       
0.0775            127002.8818      
0.08              127228.0616      
0.0825            127440.1177      
0.085             127639.8806      
0.0875            127828.1223      
0.09              128005.5607      
0.0925            128172.8643      
0.095             128330.6555      
0.0975            128479.5147      
0.1               128619.9832      
0.1025            128752.5661      
0.105             128877.7355      
0.1075            128995.9322      
0.11              129107.5685      
0.1125            129213.0301      
0.115             129312.678       
0.1175            129406.8503      
0.12              129495.8638      
0.1225            129580.0153      
0.125             129659.5835      
0.1275            129734.8294      
0.13              129805.9983      
0.1325            129873.3205      
0.135             129937.0123      
0.1375            129997.2768      
0.14              130054.3052      
0.1425            130108.2771      
0.145             130159.3616      
0.1475            130207.7177      
0.15              130253.4952      
0.1525            130296.8351      
0.155             130337.8701      
0.1575            130376.7255      
0.16              130413.5191      
0.1625            130448.3623      
0.165             130481.3597      
0.1675            130512.6104      
0.17              130542.2077      
0.1725            130570.2397      
0.175             130596.7895      
0.1775            130621.9356      
0.18              130645.7522      
0.1825            130668.3094      
0.185             130689.6733      
0.1875            130709.9065      
0.19              130729.0682      
0.1925            130747.2143      
0.195             130764.3975      
0.1975            130780.6681      
0.2               130796.0732      
0.2025            130810.6577      
0.205             130824.4639      
0.2075            130837.532       
0.21              130849.9         
0.2125            130861.6037      
0.215             130872.6774      
0.2175            130883.1532      
0.22              130893.0617      
0.2225            130902.4319      
0.225             130911.2912      
0.2275            130919.6658      
0.23              130927.5802      
0.2325            130935.0578      
0.235             130942.1208      
0.2375            130948.7903      
0.24              130955.0862      
0.2425            130961.0275      
0.245             130966.6321      
0.2475            130971.9171      
0.25              130976.8986      
0.2525            130981.592       
0.255             130986.0118      
0.2575            130990.172       
0.26              130994.0856      
0.2625            130997.7652      
0.265             131001.2225      
0.2675            131004.4689      
0.27              131007.515       
0.2725            131010.371       
0.275             131013.0465      
0.2775            131015.5507      
0.28              131017.8924      
0.2825            131020.0797      
0.285             131022.1206      
0.2875            131024.0226      
0.29              131025.7927      
0.2925            131027.4377      
0.295             131028.9641      
0.2975            131030.3779      
0.3               131031.685       
0.3025            131032.8909      
0.305             131034.0009      
0.3075            131035.0199      
0.31              131035.9526      
0.3125            131036.8037      
0.315             131037.5774      
0.3175            131038.2778      
0.32              131038.9088      
0.3225            131039.474       
0.325             131039.9771      
0.3275            131040.4213      
0.33              131040.8099      
0.3325            131041.1458      
0.335             131041.432       
0.3375            131041.6712      
0.34              131041.866       
0.3425            131042.0188      
0.345             131042.1321      
0.3475            131042.2081      
0.35              131042.2489      
0.3525            131042.2566      
0.355             131042.233       
0.3575            131042.1801      
0.36              131042.0996      
0.3625            131041.9931      
0.365             131041.8622      
0.3675            131041.7084      
0.37              131041.5332      
0.3725            131041.338       
0.375             131041.1239      
0.3775            131040.8923      
0.38              131040.6443      
0.3825            131040.381       
0.385             131040.1035      
0.3875            131039.8128      
0.39              131039.5098      
0.3925            131039.1955      
0.395             131038.8706      
0.3975            131038.5361      
0.4               131038.1927      
0.4025            131037.8411      
0.405             131037.482       
0.4075            131037.1162      
0.41              131036.7442      
0.4125            131036.3665      
0.415             131035.9839      
0.4175            131035.5968      
0.42              131035.2058      
0.4225            131034.8112      
0.425             131034.4137      
0.4275            131034.0135      
0.43              131033.6112      
0.4325            131033.2071      
0.435             131032.8015      
0.4375            131032.3949      
0.44              131031.9875      
0.4425            131031.5796      
0.445             131031.1716      
0.4475            131030.7637      
0.45              131030.3562      
0.4525            131029.9493      
0.455             131029.5433      
0.4575            131029.1384      
0.46              131028.7347      
0.4625            131028.3325      
0.465             131027.9319      
0.4675            131027.5332      
0.47              131027.1364      
0.4725            131026.7417      
0.475             131026.3493      
0.4775            131025.9593      
0.48              131025.5718      
0.4825            131025.1869      
0.485             131024.8047      
0.4875            131024.4253      
0.49              131024.0489      
0.4925            131023.6754      
0.495             131023.305       
0.4975            131022.9377      
0.5               131022.5737      
