/*--------------------------------*- C++ -*----------------------------------*\
  =========                 |
  \\      /  F ield         | OpenFOAM: The Open Source CFD Toolbox
   \\    /   O peration     | Website:  https://openfoam.org
    \\  /    A nd           | Version:  12
     \\/     M anipulation  |
\*---------------------------------------------------------------------------*/
FoamFile
{
    format      ascii;
    class       volScalarField;
    location    "1.88";
    object      p;
}
// * * * * * * * * * * * * * * * * * * * * * * * * * * * * * * * * * * * * * //

dimensions      [1 -1 -2 0 0 0 0];

internalField   nonuniform List<scalar> 
3829
(
-613.912
-613.912
-613.913
-613.913
-613.914
-613.915
-613.916
-613.917
-613.918
-613.92
-613.922
-613.924
-613.926
-613.928
-613.931
-613.934
-613.936
-613.939
-613.942
-613.946
-613.949
-613.952
-613.956
-613.96
-613.964
-613.968
-613.972
-613.976
-613.98
-613.985
-613.989
-613.994
-613.999
-614.004
-614.01
-614.016
-614.022
-614.028
-614.034
-614.041
-614.048
-614.056
-614.064
-614.072
-614.081
-614.09
-614.1
-614.11
-614.12
-614.131
-614.142
-614.153
-614.165
-614.177
-614.19
-614.202
-614.215
-614.228
-614.241
-614.254
-614.267
-614.28
-614.293
-614.305
-614.317
-614.329
-614.341
-614.352
-614.362
-614.372
-614.381
-614.39
-614.397
-614.404
-614.41
-614.416
-614.42
-614.423
-614.426
-614.428
-614.429
-614.429
-614.428
-614.426
-614.423
-614.42
-614.416
-614.412
-614.407
-614.401
-614.395
-614.388
-614.381
-614.374
-614.367
-614.359
-614.352
-614.344
-614.336
-614.329
-614.322
-614.314
-614.307
-614.301
-614.295
-614.289
-614.283
-614.278
-614.273
-614.269
-614.266
-614.262
-614.26
-614.257
-614.256
-614.254
-614.254
-614.253
-614.253
-614.254
-614.255
-614.256
-614.258
-614.26
-614.263
-614.265
-614.268
-614.271
-614.275
-614.278
-614.282
-614.286
-614.29
-614.294
-614.298
-614.302
-614.306
-614.31
-614.313
-614.317
-614.321
-614.325
-614.328
-614.331
-614.335
-614.338
-614.341
-614.343
-614.346
-614.348
-614.35
-614.352
-614.354
-614.356
-614.357
-614.358
-614.359
-614.36
-614.361
-614.361
-614.362
-614.362
-614.362
-614.362
-614.362
-614.362
-614.362
-614.361
-614.361
-614.36
-614.36
-614.359
-614.358
-614.357
-614.357
-614.356
-614.355
-614.354
-614.353
-614.353
-614.352
-614.351
-614.35
-614.349
-614.349
-614.348
-614.347
-614.346
-614.346
-614.345
-614.345
-614.344
-614.344
-614.343
-614.343
-614.343
-614.342
-614.342
-614.342
-614.342
-1772.27
-1772.27
-1772.27
-1772.27
-1772.27
-1772.27
-1772.27
-1772.27
-1772.28
-1772.28
-1772.28
-1772.28
-1772.29
-1772.29
-1772.29
-1772.3
-1772.3
-1772.3
-1772.31
-1772.31
-1772.31
-1772.32
-1772.32
-1772.33
-1772.33
-1772.33
-1772.34
-1772.34
-1772.35
-1772.35
-1772.35
-1772.36
-1772.36
-1772.37
-1772.37
-1772.38
-1772.38
-1772.39
-1772.39
-1772.4
-1772.41
-1772.42
-1772.42
-1772.43
-1772.44
-1772.45
-1772.46
-1772.47
-1772.48
-1772.49
-1772.5
-1772.52
-1772.53
-1772.54
-1772.56
-1772.57
-1772.58
-1772.6
-1772.61
-1772.63
-1772.64
-1772.66
-1772.67
-1772.68
-1772.7
-1772.71
-1772.72
-1772.73
-1772.75
-1772.76
-1772.77
-1772.77
-1772.78
-1772.79
-1772.79
-1772.8
-1772.8
-1772.81
-1772.81
-1772.81
-1772.81
-1772.81
-1772.81
-1772.81
-1772.8
-1772.8
-1772.79
-1772.79
-1772.78
-1772.78
-1772.77
-1772.76
-1772.75
-1772.75
-1772.74
-1772.73
-1772.72
-1772.71
-1772.7
-1772.7
-1772.69
-1772.68
-1772.67
-1772.67
-1772.66
-1772.65
-1772.65
-1772.64
-1772.64
-1772.64
-1772.63
-1772.63
-1772.63
-1772.62
-1772.62
-1772.62
-1772.62
-1772.62
-1772.62
-1772.62
-1772.62
-1772.62
-1772.63
-1772.63
-1772.63
-1772.63
-1772.64
-1772.64
-1772.64
-1772.65
-1772.65
-1772.66
-1772.66
-1772.66
-1772.67
-1772.67
-1772.68
-1772.68
-1772.68
-1772.69
-1772.69
-1772.69
-1772.7
-1772.7
-1772.71
-1772.71
-1772.71
-1772.71
-1772.72
-1772.72
-1772.72
-1772.72
-1772.72
-1772.73
-1772.73
-1772.73
-1772.73
-1772.73
-1772.73
-1772.73
-1772.73
-1772.73
-1772.73
-1772.73
-1772.73
-1772.73
-1772.73
-1772.73
-1772.73
-1772.73
-1772.73
-1772.73
-1772.73
-1772.73
-1772.73
-1772.73
-1772.72
-1772.72
-1772.72
-1772.72
-1772.72
-1772.72
-1772.72
-1772.72
-1772.72
-1772.72
-1772.72
-1772.72
-1772.72
-1772.71
-1772.71
-1772.71
-1772.71
-1772.71
-1772.71
-1772.71
-1772.71
-1772.71
-1772.71
-1772.71
-2798.4
-2798.4
-2798.4
-2798.4
-2798.4
-2798.41
-2798.41
-2798.41
-2798.41
-2798.42
-2798.42
-2798.43
-2798.43
-2798.44
-2798.44
-2798.45
-2798.45
-2798.46
-2798.46
-2798.47
-2798.47
-2798.47
-2798.48
-2798.48
-2798.49
-2798.49
-2798.49
-2798.5
-2798.5
-2798.5
-2798.51
-2798.51
-2798.51
-2798.52
-2798.52
-2798.52
-2798.53
-2798.53
-2798.54
-2798.54
-2798.55
-2798.56
-2798.56
-2798.57
-2798.58
-2798.59
-2798.6
-2798.61
-2798.63
-2798.64
-2798.65
-2798.67
-2798.68
-2798.7
-2798.71
-2798.73
-2798.74
-2798.76
-2798.78
-2798.79
-2798.81
-2798.83
-2798.84
-2798.86
-2798.88
-2798.89
-2798.9
-2798.92
-2798.93
-2798.94
-2798.95
-2798.96
-2798.97
-2798.98
-2798.98
-2798.99
-2798.99
-2798.99
-2798.99
-2798.99
-2798.99
-2798.99
-2798.99
-2798.98
-2798.98
-2798.97
-2798.97
-2798.96
-2798.95
-2798.94
-2798.94
-2798.93
-2798.92
-2798.91
-2798.9
-2798.89
-2798.88
-2798.87
-2798.86
-2798.85
-2798.84
-2798.84
-2798.83
-2798.82
-2798.81
-2798.81
-2798.8
-2798.8
-2798.79
-2798.79
-2798.79
-2798.78
-2798.78
-2798.78
-2798.78
-2798.78
-2798.78
-2798.78
-2798.78
-2798.78
-2798.78
-2798.78
-2798.78
-2798.79
-2798.79
-2798.79
-2798.8
-2798.8
-2798.8
-2798.81
-2798.81
-2798.82
-2798.82
-2798.82
-2798.83
-2798.83
-2798.84
-2798.84
-2798.84
-2798.85
-2798.85
-2798.86
-2798.86
-2798.86
-2798.87
-2798.87
-2798.87
-2798.88
-2798.88
-2798.88
-2798.88
-2798.88
-2798.89
-2798.89
-2798.89
-2798.89
-2798.89
-2798.89
-2798.89
-2798.89
-2798.89
-2798.89
-2798.89
-2798.89
-2798.89
-2798.89
-2798.89
-2798.89
-2798.89
-2798.89
-2798.89
-2798.89
-2798.89
-2798.89
-2798.89
-2798.89
-2798.89
-2798.88
-2798.88
-2798.88
-2798.88
-2798.88
-2798.88
-2798.88
-2798.88
-2798.88
-2798.88
-2798.88
-2798.88
-2798.87
-2798.87
-2798.87
-2798.87
-2798.87
-2798.87
-2798.87
-2798.87
-2798.87
-2798.87
-2798.87
-3707.39
-3707.39
-3707.39
-3707.39
-3707.4
-3707.4
-3707.41
-3707.41
-3707.42
-3707.43
-3707.43
-3707.44
-3707.45
-3707.46
-3707.47
-3707.48
-3707.48
-3707.49
-3707.5
-3707.51
-3707.51
-3707.52
-3707.52
-3707.53
-3707.53
-3707.53
-3707.54
-3707.54
-3707.54
-3707.54
-3707.54
-3707.54
-3707.54
-3707.54
-3707.54
-3707.54
-3707.54
-3707.55
-3707.55
-3707.55
-3707.56
-3707.57
-3707.57
-3707.58
-3707.59
-3707.6
-3707.61
-3707.63
-3707.64
-3707.65
-3707.67
-3707.69
-3707.71
-3707.72
-3707.74
-3707.76
-3707.78
-3707.8
-3707.82
-3707.84
-3707.86
-3707.88
-3707.9
-3707.92
-3707.94
-3707.96
-3707.97
-3707.99
-3708
-3708.01
-3708.03
-3708.04
-3708.04
-3708.05
-3708.06
-3708.06
-3708.06
-3708.06
-3708.06
-3708.06
-3708.06
-3708.06
-3708.05
-3708.04
-3708.04
-3708.03
-3708.02
-3708.01
-3708
-3707.99
-3707.98
-3707.97
-3707.96
-3707.95
-3707.94
-3707.93
-3707.92
-3707.91
-3707.9
-3707.89
-3707.88
-3707.87
-3707.86
-3707.85
-3707.85
-3707.84
-3707.83
-3707.83
-3707.82
-3707.82
-3707.82
-3707.81
-3707.81
-3707.81
-3707.81
-3707.81
-3707.81
-3707.81
-3707.81
-3707.81
-3707.81
-3707.82
-3707.82
-3707.82
-3707.83
-3707.83
-3707.83
-3707.84
-3707.84
-3707.84
-3707.85
-3707.85
-3707.86
-3707.86
-3707.87
-3707.87
-3707.88
-3707.88
-3707.88
-3707.89
-3707.89
-3707.9
-3707.9
-3707.9
-3707.91
-3707.91
-3707.91
-3707.92
-3707.92
-3707.92
-3707.92
-3707.92
-3707.93
-3707.93
-3707.93
-3707.93
-3707.93
-3707.93
-3707.93
-3707.93
-3707.93
-3707.93
-3707.93
-3707.93
-3707.93
-3707.93
-3707.93
-3707.93
-3707.93
-3707.93
-3707.93
-3707.93
-3707.93
-3707.93
-3707.93
-3707.92
-3707.92
-3707.92
-3707.92
-3707.92
-3707.92
-3707.92
-3707.92
-3707.92
-3707.92
-3707.92
-3707.92
-3707.91
-3707.91
-3707.91
-3707.91
-3707.91
-3707.91
-3707.91
-3707.91
-3707.91
-3707.91
-3707.91
-3707.91
-3707.91
-4512.6
-4512.6
-4512.6
-4512.61
-4512.62
-4512.62
-4512.64
-4512.65
-4512.66
-4512.67
-4512.69
-4512.7
-4512.72
-4512.74
-4512.75
-4512.77
-4512.78
-4512.79
-4512.8
-4512.81
-4512.82
-4512.83
-4512.84
-4512.84
-4512.84
-4512.84
-4512.84
-4512.84
-4512.83
-4512.83
-4512.82
-4512.82
-4512.81
-4512.81
-4512.81
-4512.8
-4512.8
-4512.8
-4512.8
-4512.8
-4512.8
-4512.81
-4512.82
-4512.82
-4512.83
-4512.85
-4512.86
-4512.88
-4512.89
-4512.91
-4512.93
-4512.95
-4512.97
-4513
-4513.02
-4513.05
-4513.07
-4513.1
-4513.12
-4513.15
-4513.17
-4513.19
-4513.22
-4513.24
-4513.26
-4513.28
-4513.3
-4513.32
-4513.33
-4513.35
-4513.36
-4513.37
-4513.38
-4513.38
-4513.39
-4513.39
-4513.39
-4513.39
-4513.39
-4513.39
-4513.38
-4513.37
-4513.37
-4513.36
-4513.35
-4513.34
-4513.33
-4513.31
-4513.3
-4513.29
-4513.28
-4513.26
-4513.25
-4513.24
-4513.22
-4513.21
-4513.2
-4513.19
-4513.18
-4513.17
-4513.16
-4513.15
-4513.14
-4513.13
-4513.12
-4513.12
-4513.11
-4513.11
-4513.1
-4513.1
-4513.09
-4513.09
-4513.09
-4513.09
-4513.09
-4513.09
-4513.09
-4513.09
-4513.09
-4513.09
-4513.1
-4513.1
-4513.1
-4513.11
-4513.11
-4513.11
-4513.12
-4513.12
-4513.13
-4513.13
-4513.14
-4513.14
-4513.15
-4513.15
-4513.16
-4513.16
-4513.17
-4513.17
-4513.17
-4513.18
-4513.18
-4513.19
-4513.19
-4513.19
-4513.2
-4513.2
-4513.2
-4513.2
-4513.21
-4513.21
-4513.21
-4513.21
-4513.22
-4513.22
-4513.22
-4513.22
-4513.22
-4513.22
-4513.22
-4513.22
-4513.22
-4513.22
-4513.22
-4513.22
-4513.22
-4513.22
-4513.22
-4513.22
-4513.22
-4513.22
-4513.22
-4513.22
-4513.22
-4513.21
-4513.21
-4513.21
-4513.21
-4513.21
-4513.21
-4513.21
-4513.21
-4513.21
-4513.21
-4513.21
-4513.21
-4513.2
-4513.2
-4513.2
-4513.2
-4513.2
-4513.2
-4513.2
-4513.2
-4513.2
-4513.2
-4513.2
-4513.2
-4513.2
-4513.2
-4513.2
-5225.85
-5225.85
-5225.86
-5225.87
-5225.88
-5225.9
-5225.92
-5225.95
-5225.97
-5226
-5226.03
-5226.06
-5226.09
-5226.12
-5226.14
-5226.17
-5226.19
-5226.22
-5226.23
-5226.25
-5226.26
-5226.27
-5226.27
-5226.27
-5226.27
-5226.26
-5226.26
-5226.24
-5226.23
-5226.22
-5226.2
-5226.19
-5226.18
-5226.16
-5226.15
-5226.14
-5226.13
-5226.13
-5226.12
-5226.12
-5226.12
-5226.13
-5226.13
-5226.14
-5226.15
-5226.17
-5226.19
-5226.2
-5226.23
-5226.25
-5226.27
-5226.3
-5226.33
-5226.36
-5226.39
-5226.42
-5226.45
-5226.48
-5226.51
-5226.54
-5226.57
-5226.6
-5226.63
-5226.66
-5226.68
-5226.7
-5226.73
-5226.75
-5226.76
-5226.78
-5226.79
-5226.8
-5226.81
-5226.81
-5226.82
-5226.82
-5226.82
-5226.82
-5226.81
-5226.8
-5226.8
-5226.79
-5226.78
-5226.76
-5226.75
-5226.74
-5226.72
-5226.71
-5226.69
-5226.68
-5226.66
-5226.64
-5226.63
-5226.61
-5226.6
-5226.59
-5226.57
-5226.56
-5226.55
-5226.54
-5226.52
-5226.51
-5226.51
-5226.5
-5226.49
-5226.48
-5226.48
-5226.47
-5226.47
-5226.46
-5226.46
-5226.46
-5226.46
-5226.46
-5226.46
-5226.46
-5226.46
-5226.46
-5226.46
-5226.47
-5226.47
-5226.47
-5226.48
-5226.48
-5226.49
-5226.49
-5226.49
-5226.5
-5226.5
-5226.51
-5226.51
-5226.52
-5226.52
-5226.53
-5226.53
-5226.54
-5226.54
-5226.55
-5226.55
-5226.56
-5226.56
-5226.57
-5226.57
-5226.57
-5226.58
-5226.58
-5226.58
-5226.58
-5226.59
-5226.59
-5226.59
-5226.59
-5226.59
-5226.6
-5226.6
-5226.6
-5226.6
-5226.6
-5226.6
-5226.6
-5226.6
-5226.6
-5226.6
-5226.6
-5226.6
-5226.6
-5226.6
-5226.6
-5226.6
-5226.6
-5226.6
-5226.59
-5226.59
-5226.59
-5226.59
-5226.59
-5226.59
-5226.59
-5226.59
-5226.59
-5226.59
-5226.59
-5226.59
-5226.58
-5226.58
-5226.58
-5226.58
-5226.58
-5226.58
-5226.58
-5226.58
-5226.58
-5226.58
-5226.58
-5226.58
-5226.58
-5226.58
-5226.58
-5226.58
-5226.58
-5857.61
-5857.61
-5857.63
-5857.65
-5857.68
-5857.71
-5857.75
-5857.8
-5857.84
-5857.9
-5857.95
-5858
-5858.06
-5858.11
-5858.16
-5858.2
-5858.24
-5858.27
-5858.3
-5858.32
-5858.34
-5858.34
-5858.34
-5858.34
-5858.32
-5858.3
-5858.28
-5858.25
-5858.22
-5858.19
-5858.16
-5858.13
-5858.11
-5858.08
-5858.06
-5858.04
-5858.03
-5858.01
-5858.01
-5858
-5858
-5858.01
-5858.01
-5858.02
-5858.04
-5858.06
-5858.08
-5858.1
-5858.13
-5858.16
-5858.19
-5858.22
-5858.26
-5858.3
-5858.33
-5858.37
-5858.41
-5858.45
-5858.49
-5858.52
-5858.56
-5858.6
-5858.63
-5858.66
-5858.69
-5858.72
-5858.74
-5858.76
-5858.78
-5858.8
-5858.81
-5858.82
-5858.83
-5858.83
-5858.83
-5858.83
-5858.83
-5858.82
-5858.82
-5858.81
-5858.79
-5858.78
-5858.77
-5858.75
-5858.73
-5858.72
-5858.7
-5858.68
-5858.66
-5858.64
-5858.62
-5858.61
-5858.59
-5858.57
-5858.56
-5858.54
-5858.52
-5858.51
-5858.5
-5858.49
-5858.47
-5858.46
-5858.45
-5858.45
-5858.44
-5858.43
-5858.43
-5858.42
-5858.42
-5858.41
-5858.41
-5858.41
-5858.41
-5858.41
-5858.41
-5858.41
-5858.41
-5858.42
-5858.42
-5858.42
-5858.43
-5858.43
-5858.43
-5858.44
-5858.44
-5858.45
-5858.45
-5858.46
-5858.46
-5858.47
-5858.47
-5858.48
-5858.49
-5858.49
-5858.5
-5858.5
-5858.51
-5858.51
-5858.52
-5858.52
-5858.52
-5858.53
-5858.53
-5858.53
-5858.54
-5858.54
-5858.54
-5858.55
-5858.55
-5858.55
-5858.55
-5858.55
-5858.56
-5858.56
-5858.56
-5858.56
-5858.56
-5858.56
-5858.56
-5858.56
-5858.56
-5858.56
-5858.56
-5858.56
-5858.56
-5858.56
-5858.56
-5858.56
-5858.56
-5858.56
-5858.56
-5858.56
-5858.55
-5858.55
-5858.55
-5858.55
-5858.55
-5858.55
-5858.55
-5858.55
-5858.55
-5858.55
-5858.55
-5858.54
-5858.54
-5858.54
-5858.54
-5858.54
-5858.54
-5858.54
-5858.54
-5858.54
-5858.54
-5858.54
-5858.54
-5858.54
-5858.54
-5858.54
-5858.54
-5858.54
-6417.11
-6417.12
-6417.15
-6417.18
-6417.23
-6417.3
-6417.37
-6417.45
-6417.54
-6417.64
-6417.73
-6417.82
-6417.91
-6417.99
-6418.07
-6418.14
-6418.2
-6418.25
-6418.29
-6418.32
-6418.34
-6418.34
-6418.34
-6418.32
-6418.29
-6418.25
-6418.2
-6418.15
-6418.09
-6418.04
-6417.99
-6417.94
-6417.89
-6417.85
-6417.82
-6417.79
-6417.76
-6417.75
-6417.74
-6417.73
-6417.73
-6417.73
-6417.75
-6417.76
-6417.78
-6417.8
-6417.83
-6417.86
-6417.9
-6417.94
-6417.98
-6418.02
-6418.06
-6418.11
-6418.15
-6418.2
-6418.25
-6418.29
-6418.34
-6418.38
-6418.43
-6418.47
-6418.51
-6418.54
-6418.58
-6418.61
-6418.64
-6418.66
-6418.68
-6418.7
-6418.71
-6418.72
-6418.72
-6418.73
-6418.73
-6418.72
-6418.72
-6418.71
-6418.69
-6418.68
-6418.66
-6418.65
-6418.63
-6418.61
-6418.59
-6418.57
-6418.55
-6418.52
-6418.5
-6418.48
-6418.46
-6418.44
-6418.42
-6418.4
-6418.38
-6418.36
-6418.35
-6418.33
-6418.32
-6418.31
-6418.29
-6418.28
-6418.27
-6418.26
-6418.26
-6418.25
-6418.25
-6418.24
-6418.24
-6418.23
-6418.23
-6418.23
-6418.23
-6418.23
-6418.23
-6418.24
-6418.24
-6418.24
-6418.24
-6418.25
-6418.25
-6418.26
-6418.26
-6418.27
-6418.27
-6418.28
-6418.28
-6418.29
-6418.3
-6418.3
-6418.31
-6418.31
-6418.32
-6418.32
-6418.33
-6418.33
-6418.34
-6418.34
-6418.35
-6418.35
-6418.36
-6418.36
-6418.37
-6418.37
-6418.37
-6418.38
-6418.38
-6418.38
-6418.38
-6418.39
-6418.39
-6418.39
-6418.39
-6418.39
-6418.39
-6418.39
-6418.39
-6418.39
-6418.39
-6418.39
-6418.39
-6418.39
-6418.39
-6418.39
-6418.39
-6418.39
-6418.39
-6418.39
-6418.39
-6418.39
-6418.39
-6418.39
-6418.39
-6418.39
-6418.38
-6418.38
-6418.38
-6418.38
-6418.38
-6418.38
-6418.38
-6418.38
-6418.38
-6418.38
-6418.38
-6418.37
-6418.37
-6418.37
-6418.37
-6418.37
-6418.37
-6418.37
-6418.37
-6418.37
-6418.37
-6418.37
-6418.37
-6418.37
-6418.37
-6418.37
-6912.62
-6912.64
-6912.68
-6912.75
-6912.83
-6912.93
-6913.05
-6913.2
-6913.36
-6913.52
-6913.69
-6913.85
-6914
-6914.14
-6914.26
-6914.37
-6914.46
-6914.53
-6914.58
-6914.61
-6914.63
-6914.62
-6914.59
-6914.54
-6914.47
-6914.39
-6914.29
-6914.18
-6914.07
-6913.97
-6913.88
-6913.8
-6913.74
-6913.68
-6913.64
-6913.6
-6913.57
-6913.55
-6913.54
-6913.53
-6913.54
-6913.55
-6913.56
-6913.58
-6913.61
-6913.64
-6913.68
-6913.72
-6913.76
-6913.81
-6913.86
-6913.91
-6913.97
-6914.02
-6914.08
-6914.13
-6914.19
-6914.25
-6914.3
-6914.35
-6914.4
-6914.45
-6914.5
-6914.54
-6914.58
-6914.61
-6914.64
-6914.66
-6914.69
-6914.7
-6914.71
-6914.72
-6914.73
-6914.73
-6914.72
-6914.72
-6914.7
-6914.69
-6914.68
-6914.66
-6914.64
-6914.62
-6914.59
-6914.57
-6914.54
-6914.52
-6914.49
-6914.47
-6914.44
-6914.42
-6914.39
-6914.37
-6914.35
-6914.33
-6914.31
-6914.29
-6914.27
-6914.26
-6914.24
-6914.23
-6914.22
-6914.2
-6914.19
-6914.19
-6914.18
-6914.17
-6914.17
-6914.16
-6914.16
-6914.16
-6914.16
-6914.16
-6914.16
-6914.16
-6914.16
-6914.16
-6914.17
-6914.17
-6914.17
-6914.18
-6914.18
-6914.19
-6914.19
-6914.2
-6914.2
-6914.21
-6914.22
-6914.22
-6914.23
-6914.24
-6914.24
-6914.25
-6914.25
-6914.26
-6914.26
-6914.27
-6914.28
-6914.28
-6914.28
-6914.29
-6914.29
-6914.3
-6914.3
-6914.31
-6914.31
-6914.31
-6914.31
-6914.32
-6914.32
-6914.32
-6914.32
-6914.32
-6914.33
-6914.33
-6914.33
-6914.33
-6914.33
-6914.33
-6914.33
-6914.33
-6914.33
-6914.33
-6914.33
-6914.33
-6914.33
-6914.33
-6914.33
-6914.33
-6914.32
-6914.32
-6914.32
-6914.32
-6914.32
-6914.32
-6914.32
-6914.32
-6914.32
-6914.32
-6914.32
-6914.31
-6914.31
-6914.31
-6914.31
-6914.31
-6914.31
-6914.31
-6914.31
-6914.31
-6914.31
-6914.31
-6914.31
-6914.31
-6914.3
-6914.3
-6914.3
-6914.3
-6914.3
-6914.3
-6914.3
-6914.3
-7351.27
-7351.3
-7351.36
-7351.45
-7351.58
-7351.74
-7351.94
-7352.19
-7352.51
-7352.81
-7353.05
-7353.28
-7353.49
-7353.68
-7353.84
-7353.98
-7354.09
-7354.18
-7354.24
-7354.28
-7354.29
-7354.27
-7354.23
-7354.15
-7354.05
-7353.91
-7353.74
-7353.56
-7353.38
-7353.24
-7353.12
-7353.02
-7352.94
-7352.87
-7352.81
-7352.77
-7352.74
-7352.73
-7352.72
-7352.72
-7352.73
-7352.74
-7352.77
-7352.79
-7352.83
-7352.87
-7352.92
-7352.97
-7353.02
-7353.08
-7353.14
-7353.21
-7353.27
-7353.34
-7353.41
-7353.47
-7353.54
-7353.6
-7353.67
-7353.73
-7353.79
-7353.84
-7353.89
-7353.94
-7353.98
-7354.02
-7354.05
-7354.08
-7354.1
-7354.11
-7354.13
-7354.13
-7354.13
-7354.13
-7354.12
-7354.11
-7354.1
-7354.08
-7354.06
-7354.03
-7354.01
-7353.98
-7353.96
-7353.93
-7353.9
-7353.87
-7353.84
-7353.81
-7353.78
-7353.76
-7353.73
-7353.7
-7353.68
-7353.66
-7353.64
-7353.62
-7353.6
-7353.58
-7353.56
-7353.55
-7353.54
-7353.53
-7353.52
-7353.51
-7353.5
-7353.5
-7353.49
-7353.49
-7353.48
-7353.48
-7353.48
-7353.48
-7353.48
-7353.49
-7353.49
-7353.49
-7353.49
-7353.5
-7353.5
-7353.51
-7353.51
-7353.52
-7353.53
-7353.53
-7353.54
-7353.54
-7353.55
-7353.56
-7353.56
-7353.57
-7353.58
-7353.58
-7353.59
-7353.6
-7353.6
-7353.61
-7353.61
-7353.62
-7353.62
-7353.63
-7353.63
-7353.64
-7353.64
-7353.64
-7353.65
-7353.65
-7353.65
-7353.65
-7353.66
-7353.66
-7353.66
-7353.66
-7353.66
-7353.66
-7353.67
-7353.67
-7353.67
-7353.67
-7353.67
-7353.67
-7353.67
-7353.67
-7353.67
-7353.66
-7353.66
-7353.66
-7353.66
-7353.66
-7353.66
-7353.66
-7353.66
-7353.66
-7353.66
-7353.66
-7353.66
-7353.65
-7353.65
-7353.65
-7353.65
-7353.65
-7353.65
-7353.65
-7353.65
-7353.65
-7353.65
-7353.65
-7353.64
-7353.64
-7353.64
-7353.64
-7353.64
-7353.64
-7353.64
-7353.64
-7353.64
-7353.64
-7353.64
-7353.64
-7353.64
-7353.64
-7739.52
-7739.55
-7739.62
-7739.73
-7739.9
-7740.12
-7740.44
-7740.89
-7741.46
-7741.97
-7742.4
-7742.77
-7743.08
-7743.34
-7743.56
-7743.73
-7743.88
-7743.98
-7744.06
-7744.09
-7744.1
-7744.06
-7743.99
-7743.87
-7743.7
-7743.47
-7743.14
-7742.73
-7742.43
-7742.23
-7742.09
-7741.98
-7741.9
-7741.84
-7741.79
-7741.76
-7741.74
-7741.73
-7741.73
-7741.74
-7741.75
-7741.78
-7741.81
-7741.85
-7741.9
-7741.95
-7742.01
-7742.07
-7742.13
-7742.2
-7742.28
-7742.35
-7742.43
-7742.51
-7742.59
-7742.67
-7742.74
-7742.82
-7742.89
-7742.96
-7743.03
-7743.09
-7743.14
-7743.2
-7743.24
-7743.28
-7743.31
-7743.34
-7743.36
-7743.38
-7743.39
-7743.39
-7743.39
-7743.38
-7743.37
-7743.36
-7743.34
-7743.31
-7743.29
-7743.26
-7743.23
-7743.2
-7743.17
-7743.13
-7743.1
-7743.07
-7743.04
-7743
-7742.97
-7742.94
-7742.91
-7742.89
-7742.86
-7742.84
-7742.81
-7742.79
-7742.77
-7742.75
-7742.74
-7742.72
-7742.71
-7742.7
-7742.69
-7742.68
-7742.68
-7742.67
-7742.67
-7742.66
-7742.66
-7742.66
-7742.66
-7742.66
-7742.66
-7742.66
-7742.67
-7742.67
-7742.68
-7742.68
-7742.69
-7742.69
-7742.7
-7742.7
-7742.71
-7742.72
-7742.72
-7742.73
-7742.74
-7742.74
-7742.75
-7742.76
-7742.76
-7742.77
-7742.78
-7742.78
-7742.79
-7742.8
-7742.8
-7742.81
-7742.81
-7742.82
-7742.82
-7742.82
-7742.83
-7742.83
-7742.84
-7742.84
-7742.84
-7742.84
-7742.85
-7742.85
-7742.85
-7742.85
-7742.85
-7742.85
-7742.85
-7742.85
-7742.85
-7742.85
-7742.85
-7742.85
-7742.85
-7742.85
-7742.85
-7742.85
-7742.85
-7742.85
-7742.85
-7742.85
-7742.85
-7742.85
-7742.85
-7742.85
-7742.84
-7742.84
-7742.84
-7742.84
-7742.84
-7742.84
-7742.84
-7742.84
-7742.84
-7742.84
-7742.83
-7742.83
-7742.83
-7742.83
-7742.83
-7742.83
-7742.83
-7742.83
-7742.83
-7742.83
-7742.83
-7742.83
-7742.83
-7742.83
-7742.83
-7742.83
-7742.83
-7742.83
-8083.25
-8083.27
-8083.3
-8083.35
-8083.42
-8083.5
-8083.55
-8083.63
-8086.77
-8086.7
-8086.61
-8086.54
-8086.47
-8086.42
-8086.37
-8086.34
-8086.31
-8086.3
-8086.3
-8086.31
-8086.33
-8086.36
-8086.39
-8086.43
-8086.48
-8086.54
-8086.6
-8086.67
-8086.75
-8086.83
-8086.91
-8086.99
-8087.08
-8087.17
-8087.26
-8087.35
-8087.44
-8087.53
-8087.62
-8087.7
-8087.78
-8087.85
-8087.92
-8087.98
-8088.04
-8088.09
-8088.13
-8088.16
-8088.19
-8088.21
-8088.23
-8088.23
-8088.23
-8088.23
-8088.22
-8088.2
-8088.18
-8088.16
-8088.13
-8088.1
-8088.07
-8088.03
-8087.99
-8087.96
-8087.92
-8087.88
-8087.85
-8087.81
-8087.77
-8087.74
-8087.71
-8087.68
-8087.65
-8087.62
-8087.59
-8087.57
-8087.55
-8087.53
-8087.51
-8087.49
-8087.48
-8087.47
-8087.45
-8087.45
-8087.44
-8087.43
-8087.43
-8087.42
-8087.42
-8087.42
-8087.42
-8087.42
-8087.42
-8087.42
-8087.42
-8087.43
-8087.43
-8087.44
-8087.44
-8087.45
-8087.46
-8087.46
-8087.47
-8087.48
-8087.48
-8087.49
-8087.5
-8087.5
-8087.51
-8087.52
-8087.53
-8087.53
-8087.54
-8087.55
-8087.55
-8087.56
-8087.56
-8087.57
-8087.57
-8087.58
-8087.58
-8087.59
-8087.59
-8087.6
-8087.6
-8087.6
-8087.61
-8087.61
-8087.61
-8087.61
-8087.62
-8087.62
-8087.62
-8087.62
-8087.62
-8087.62
-8087.62
-8087.62
-8087.62
-8087.62
-8087.62
-8087.62
-8087.62
-8087.62
-8087.62
-8087.62
-8087.62
-8087.62
-8087.62
-8087.62
-8087.62
-8087.61
-8087.61
-8087.61
-8087.61
-8087.61
-8087.61
-8087.61
-8087.61
-8087.61
-8087.61
-8087.6
-8087.6
-8087.6
-8087.6
-8087.6
-8087.6
-8087.6
-8087.6
-8087.6
-8087.6
-8087.6
-8087.6
-8087.6
-8087.6
-8087.59
-8087.59
-8087.59
-8087.59
-8087.59
-8087.59
-8387.6
-8387.61
-8387.62
-8387.64
-8387.66
-8387.69
-8387.71
-8387.73
-8391.68
-8391.67
-8391.63
-8391.6
-8391.58
-8391.55
-8391.53
-8391.52
-8391.51
-8391.52
-8391.53
-8391.55
-8391.58
-8391.61
-8391.66
-8391.71
-8391.78
-8391.84
-8391.92
-8392
-8392.09
-8392.18
-8392.27
-8392.37
-8392.47
-8392.58
-8392.68
-8392.78
-8392.88
-8392.98
-8393.07
-8393.17
-8393.25
-8393.33
-8393.41
-8393.48
-8393.54
-8393.59
-8393.63
-8393.67
-8393.7
-8393.72
-8393.73
-8393.73
-8393.73
-8393.72
-8393.71
-8393.69
-8393.66
-8393.63
-8393.6
-8393.56
-8393.52
-8393.48
-8393.44
-8393.4
-8393.36
-8393.32
-8393.28
-8393.24
-8393.2
-8393.16
-8393.13
-8393.1
-8393.07
-8393.04
-8393.01
-8392.98
-8392.96
-8392.94
-8392.92
-8392.91
-8392.89
-8392.88
-8392.87
-8392.86
-8392.85
-8392.84
-8392.84
-8392.84
-8392.83
-8392.83
-8392.83
-8392.83
-8392.84
-8392.84
-8392.84
-8392.85
-8392.85
-8392.86
-8392.86
-8392.87
-8392.88
-8392.88
-8392.89
-8392.9
-8392.91
-8392.91
-8392.92
-8392.93
-8392.94
-8392.94
-8392.95
-8392.96
-8392.96
-8392.97
-8392.98
-8392.98
-8392.99
-8393
-8393
-8393.01
-8393.01
-8393.02
-8393.02
-8393.02
-8393.03
-8393.03
-8393.03
-8393.04
-8393.04
-8393.04
-8393.04
-8393.04
-8393.04
-8393.05
-8393.05
-8393.05
-8393.05
-8393.05
-8393.05
-8393.05
-8393.05
-8393.05
-8393.05
-8393.05
-8393.05
-8393.04
-8393.04
-8393.04
-8393.04
-8393.04
-8393.04
-8393.04
-8393.04
-8393.04
-8393.04
-8393.03
-8393.03
-8393.03
-8393.03
-8393.03
-8393.03
-8393.03
-8393.03
-8393.03
-8393.03
-8393.02
-8393.02
-8393.02
-8393.02
-8393.02
-8393.02
-8393.02
-8393.02
-8393.02
-8393.02
-8393.02
-8393.02
-8393.02
-8393.02
-8393.02
-8393.02
-8657.2
-8657.2
-8657.21
-8657.22
-8657.24
-8657.25
-8657.27
-8657.28
-8661.94
-8661.94
-8661.91
-8661.89
-8661.87
-8661.86
-8661.85
-8661.85
-8661.86
-8661.87
-8661.9
-8661.93
-8661.97
-8662.02
-8662.07
-8662.14
-8662.21
-8662.29
-8662.38
-8662.47
-8662.57
-8662.67
-8662.78
-8662.89
-8663.01
-8663.12
-8663.24
-8663.35
-8663.46
-8663.57
-8663.68
-8663.78
-8663.87
-8663.96
-8664.04
-8664.11
-8664.18
-8664.23
-8664.28
-8664.32
-8664.34
-8664.36
-8664.37
-8664.37
-8664.37
-8664.35
-8664.33
-8664.31
-8664.28
-8664.24
-8664.2
-8664.16
-8664.12
-8664.07
-8664.03
-8663.98
-8663.94
-8663.89
-8663.85
-8663.81
-8663.77
-8663.73
-8663.69
-8663.65
-8663.62
-8663.59
-8663.56
-8663.54
-8663.51
-8663.49
-8663.47
-8663.46
-8663.44
-8663.43
-8663.42
-8663.41
-8663.4
-8663.4
-8663.39
-8663.39
-8663.39
-8663.39
-8663.39
-8663.39
-8663.39
-8663.4
-8663.4
-8663.41
-8663.41
-8663.42
-8663.42
-8663.43
-8663.44
-8663.44
-8663.45
-8663.46
-8663.47
-8663.48
-8663.48
-8663.49
-8663.5
-8663.51
-8663.51
-8663.52
-8663.53
-8663.54
-8663.54
-8663.55
-8663.56
-8663.56
-8663.57
-8663.57
-8663.58
-8663.58
-8663.59
-8663.59
-8663.59
-8663.6
-8663.6
-8663.6
-8663.6
-8663.61
-8663.61
-8663.61
-8663.61
-8663.61
-8663.61
-8663.61
-8663.61
-8663.61
-8663.61
-8663.61
-8663.61
-8663.61
-8663.61
-8663.61
-8663.61
-8663.61
-8663.61
-8663.61
-8663.61
-8663.61
-8663.6
-8663.6
-8663.6
-8663.6
-8663.6
-8663.6
-8663.6
-8663.6
-8663.6
-8663.6
-8663.59
-8663.59
-8663.59
-8663.59
-8663.59
-8663.59
-8663.59
-8663.59
-8663.59
-8663.59
-8663.59
-8663.58
-8663.58
-8663.58
-8663.58
-8663.58
-8663.58
-8663.58
-8663.58
-8663.58
-8663.58
-8896
-8896.01
-8896.01
-8896.02
-8896.03
-8896.03
-8896.04
-8896.05
-8901.33
-8901.33
-8901.32
-8901.31
-8901.31
-8901.31
-8901.31
-8901.32
-8901.34
-8901.36
-8901.39
-8901.43
-8901.48
-8901.54
-8901.61
-8901.69
-8901.77
-8901.86
-8901.96
-8902.07
-8902.18
-8902.29
-8902.41
-8902.54
-8902.66
-8902.79
-8902.92
-8903.04
-8903.16
-8903.28
-8903.4
-8903.51
-8903.61
-8903.71
-8903.79
-8903.87
-8903.94
-8903.99
-8904.04
-8904.08
-8904.1
-8904.12
-8904.13
-8904.13
-8904.12
-8904.1
-8904.07
-8904.04
-8904.01
-8903.97
-8903.92
-8903.88
-8903.83
-8903.78
-8903.73
-8903.68
-8903.63
-8903.58
-8903.54
-8903.49
-8903.45
-8903.41
-8903.37
-8903.33
-8903.3
-8903.27
-8903.24
-8903.21
-8903.19
-8903.16
-8903.15
-8903.13
-8903.11
-8903.1
-8903.09
-8903.08
-8903.07
-8903.07
-8903.07
-8903.06
-8903.06
-8903.06
-8903.06
-8903.07
-8903.07
-8903.07
-8903.08
-8903.08
-8903.09
-8903.1
-8903.1
-8903.11
-8903.12
-8903.13
-8903.13
-8903.14
-8903.15
-8903.16
-8903.17
-8903.17
-8903.18
-8903.19
-8903.2
-8903.21
-8903.21
-8903.22
-8903.23
-8903.23
-8903.24
-8903.24
-8903.25
-8903.26
-8903.26
-8903.27
-8903.27
-8903.27
-8903.28
-8903.28
-8903.28
-8903.29
-8903.29
-8903.29
-8903.29
-8903.29
-8903.29
-8903.3
-8903.3
-8903.3
-8903.3
-8903.3
-8903.3
-8903.3
-8903.3
-8903.3
-8903.3
-8903.29
-8903.29
-8903.29
-8903.29
-8903.29
-8903.29
-8903.29
-8903.29
-8903.29
-8903.29
-8903.28
-8903.28
-8903.28
-8903.28
-8903.28
-8903.28
-8903.28
-8903.28
-8903.28
-8903.28
-8903.27
-8903.27
-8903.27
-8903.27
-8903.27
-8903.27
-8903.27
-8903.27
-8903.27
-8903.27
-8903.27
-8903.27
-8903.27
-8903.27
-8903.27
-8903.27
-8903.27
-8903.27
-9107.55
-9107.55
-9107.56
-9107.56
-9107.56
-9107.57
-9107.57
-9107.57
-9113.4
-9113.41
-9113.41
-9113.41
-9113.41
-9113.42
-9113.43
-9113.45
-9113.47
-9113.5
-9113.55
-9113.6
-9113.65
-9113.72
-9113.8
-9113.89
-9113.98
-9114.08
-9114.19
-9114.31
-9114.43
-9114.56
-9114.69
-9114.83
-9114.97
-9115.11
-9115.24
-9115.38
-9115.51
-9115.64
-9115.77
-9115.88
-9115.99
-9116.1
-9116.19
-9116.27
-9116.34
-9116.4
-9116.45
-9116.48
-9116.51
-9116.52
-9116.53
-9116.52
-9116.51
-9116.49
-9116.46
-9116.42
-9116.38
-9116.34
-9116.29
-9116.24
-9116.18
-9116.13
-9116.07
-9116.02
-9115.97
-9115.92
-9115.87
-9115.82
-9115.77
-9115.73
-9115.69
-9115.65
-9115.62
-9115.58
-9115.55
-9115.53
-9115.5
-9115.48
-9115.46
-9115.44
-9115.43
-9115.42
-9115.41
-9115.4
-9115.39
-9115.39
-9115.38
-9115.38
-9115.38
-9115.38
-9115.38
-9115.39
-9115.39
-9115.39
-9115.4
-9115.41
-9115.41
-9115.42
-9115.43
-9115.43
-9115.44
-9115.45
-9115.46
-9115.47
-9115.48
-9115.48
-9115.49
-9115.5
-9115.51
-9115.52
-9115.53
-9115.53
-9115.54
-9115.55
-9115.55
-9115.56
-9115.57
-9115.57
-9115.58
-9115.58
-9115.59
-9115.59
-9115.6
-9115.6
-9115.61
-9115.61
-9115.61
-9115.61
-9115.62
-9115.62
-9115.62
-9115.62
-9115.62
-9115.62
-9115.62
-9115.62
-9115.63
-9115.63
-9115.63
-9115.62
-9115.62
-9115.62
-9115.62
-9115.62
-9115.62
-9115.62
-9115.62
-9115.62
-9115.62
-9115.62
-9115.62
-9115.61
-9115.61
-9115.61
-9115.61
-9115.61
-9115.61
-9115.61
-9115.61
-9115.61
-9115.6
-9115.6
-9115.6
-9115.6
-9115.6
-9115.6
-9115.6
-9115.6
-9115.6
-9115.6
-9115.6
-9115.6
-9115.59
-9115.59
-9115.59
-9115.59
-9115.59
-9115.59
-9115.59
-9115.59
-9115.59
-9294.95
-9294.95
-9294.95
-9294.95
-9294.96
-9294.96
-9294.96
-9294.96
-9301.28
-9301.29
-9301.28
-9301.29
-9301.3
-9301.31
-9301.33
-9301.35
-9301.38
-9301.42
-9301.47
-9301.53
-9301.6
-9301.68
-9301.76
-9301.86
-9301.96
-9302.07
-9302.2
-9302.32
-9302.46
-9302.6
-9302.74
-9302.89
-9303.04
-9303.19
-9303.34
-9303.48
-9303.63
-9303.77
-9303.9
-9304.03
-9304.14
-9304.25
-9304.35
-9304.43
-9304.51
-9304.57
-9304.62
-9304.65
-9304.68
-9304.69
-9304.69
-9304.68
-9304.66
-9304.63
-9304.6
-9304.56
-9304.51
-9304.46
-9304.41
-9304.35
-9304.3
-9304.24
-9304.18
-9304.12
-9304.07
-9304.01
-9303.96
-9303.91
-9303.86
-9303.82
-9303.77
-9303.74
-9303.7
-9303.67
-9303.64
-9303.61
-9303.58
-9303.56
-9303.54
-9303.53
-9303.51
-9303.5
-9303.49
-9303.48
-9303.48
-9303.47
-9303.47
-9303.47
-9303.47
-9303.47
-9303.47
-9303.47
-9303.48
-9303.48
-9303.49
-9303.49
-9303.5
-9303.51
-9303.52
-9303.52
-9303.53
-9303.54
-9303.55
-9303.56
-9303.57
-9303.58
-9303.58
-9303.59
-9303.6
-9303.61
-9303.62
-9303.63
-9303.63
-9303.64
-9303.65
-9303.65
-9303.66
-9303.67
-9303.67
-9303.68
-9303.68
-9303.69
-9303.69
-9303.7
-9303.7
-9303.7
-9303.7
-9303.71
-9303.71
-9303.71
-9303.71
-9303.71
-9303.72
-9303.72
-9303.72
-9303.72
-9303.72
-9303.72
-9303.72
-9303.72
-9303.72
-9303.72
-9303.72
-9303.71
-9303.71
-9303.71
-9303.71
-9303.71
-9303.71
-9303.71
-9303.71
-9303.71
-9303.71
-9303.7
-9303.7
-9303.7
-9303.7
-9303.7
-9303.7
-9303.7
-9303.7
-9303.7
-9303.69
-9303.69
-9303.69
-9303.69
-9303.69
-9303.69
-9303.69
-9303.69
-9303.69
-9303.69
-9303.69
-9303.69
-9303.69
-9303.69
-9303.69
-9303.69
-9303.69
-9303.69
-9303.69
-9460.95
-9460.95
-9460.95
-9460.96
-9460.96
-9460.96
-9460.96
-9460.96
-9467.7
-9467.71
-9467.71
-9467.72
-9467.73
-9467.75