/*--------------------------------*- C++ -*----------------------------------*\
  =========                 |
  \\      /  F ield         | OpenFOAM: The Open Source CFD Toolbox
   \\    /   O peration     | Website:  https://openfoam.org
    \\  /    A nd           | Version:  12
     \\/     M anipulation  |
\*---------------------------------------------------------------------------*/
FoamFile
{
    format      ascii;
    class       surfaceScalarField;
    location    "1.88";
    object      phi;
}
// * * * * * * * * * * * * * * * * * * * * * * * * * * * * * * * * * * * * * //

dimensions      [1 0 -1 0 0 0 0];

internalField   nonuniform List<scalar> 
7429
(
0.000114827
-0.000114827
0.000230922
-0.000116095
0.000348289
-0.000117366
0.000466892
-0.000118603
0.000586696
-0.000119804
0.000707658
-0.000120962
0.000829685
-0.000122026
0.000952699
-0.000123014
0.00107662
-0.000123917
0.00120129
-0.000124673
0.00132652
-0.000125234
0.00145216
-0.000125636
0.00157795
-0.000125792
0.00170365
-0.0001257
0.00182895
-0.000125301
0.0019535
-0.000124551
0.00207694
-0.000123441
0.00219886
-0.000121917
0.00231881
-0.000119946
0.00243632
-0.000117513
0.00255089
-0.000114573
0.00266201
-0.000111112
0.00276912
-0.000107118
0.00287169
-0.00010257
0.00296917
-9.74764e-05
0.00306101
-9.18446e-05
0.00314669
-8.56751e-05
0.00322567
-7.89845e-05
0.00329752
-7.18502e-05
0.00336172
-6.42002e-05
0.00341795
-5.62237e-05
0.00346578
-4.78335e-05
0.00350485
-3.90721e-05
0.0035348
-2.99471e-05
0.00355535
-2.05538e-05
0.00356634
-1.09876e-05
0.0035679
-1.55691e-06
0.00356004
7.85541e-06
0.00354272
1.73194e-05
0.00351599
2.67339e-05
0.00347996
3.60308e-05
0.0034348
4.51631e-05
0.00338073
5.40652e-05
0.00331802
6.27086e-05
0.00324699
7.10372e-05
0.00316799
7.9e-05
0.00308142
8.65694e-05
0.00298773
9.36889e-05
0.00288739
0.000100341
0.00278092
0.00010647
0.00266885
0.000112066
0.00255177
0.000117078
0.00243028
0.00012149
0.00230499
0.000125292
0.00217655
0.000128439
0.0020456
0.000130953
0.00191286
0.000132737
0.00177894
0.000133918
0.00164461
0.000134331
0.00151046
0.000134149
0.00137724
0.000133224
0.00124558
0.00013166
0.00111613
0.000129446
0.000989603
0.00012653
0.000866551
0.000123052
0.000747568
0.000118983
0.000633182
0.000114386
0.000523926
0.000109255
0.000420299
0.000103628
0.000322635
9.76632e-05
0.000231297
9.13388e-05
0.000146787
8.451e-05
6.92418e-05
7.75448e-05
-1.12102e-06
7.03628e-05
-6.42433e-05
6.31223e-05
-0.000119956
5.57131e-05
-0.000168212
4.82555e-05
-0.000208972
4.076e-05
-0.000242505
3.35328e-05
-0.000268763
2.62583e-05
-0.000288037
1.92737e-05
-0.000300645
1.2608e-05
-0.000306752
6.107e-06
-0.000306929
1.77472e-07
-0.000301559
-5.36988e-06
-0.000290958
-1.06009e-05
-0.000275558
-1.54008e-05
-0.000255799
-1.97584e-05
-0.00023215
-2.36488e-05
-0.000205096
-2.70546e-05
-0.00017512
-2.99757e-05
-0.000142713
-3.24068e-05
-0.000108364
-3.4349e-05
-7.2534e-05
-3.58303e-05
-3.56917e-05
-3.68423e-05
1.71788e-06
-3.74096e-05
3.92824e-05
-3.75646e-05
7.65871e-05
-3.73047e-05
0.000113289
-3.67015e-05
0.000149021
-3.57326e-05
0.000183478
-3.44571e-05
0.000216389
-3.29107e-05
0.00024749
-3.1101e-05
0.000276567
-2.90765e-05
0.000303443
-2.68763e-05
0.000327953
-2.45095e-05
0.00034998
-2.20273e-05
0.000369442
-1.94617e-05
0.000386254
-1.68127e-05
0.000400384
-1.41298e-05
0.000411826
-1.14419e-05
0.000420594
-8.76826e-06
0.000426733
-6.13931e-06
0.00043028
-3.54669e-06
0.000431283
-1.00303e-06
0.000429929
1.35399e-06
0.000426279
3.65023e-06
0.000420444
5.83525e-06
0.00041254
7.90419e-06
0.000402715
9.82477e-06
0.00039112
1.15944e-05
0.000377889
1.32316e-05
0.000363196
1.46928e-05
0.000347181
1.60153e-05
0.00033002
1.71608e-05
0.000311847
1.81732e-05
0.000292844
1.90024e-05
0.000273159
1.96852e-05
0.000252938
2.02213e-05
0.00023232
2.06173e-05
0.000211455
2.0865e-05
0.000190477
2.09788e-05
0.000169509
2.09673e-05
0.000148686
2.08238e-05
0.000128081
2.06043e-05
0.000107844
2.02368e-05
8.80345e-05
1.98099e-05
6.87798e-05
1.92547e-05
5.01313e-05
1.86485e-05
3.21542e-05
1.79771e-05
1.49444e-05
1.72098e-05
-1.44869e-06
1.63931e-05
-1.6995e-05
1.55463e-05
-3.16482e-05
1.46532e-05
-4.53814e-05
1.37332e-05
-5.81718e-05
1.27905e-05
-6.99932e-05
1.18213e-05
-8.0847e-05
1.08539e-05
-9.07215e-05
9.87449e-06
-9.96258e-05
8.9043e-06
-0.00010757
7.94447e-06
-0.000114567
6.99657e-06
-0.000120634
6.06691e-06
-0.000125796
5.16176e-06
-0.00013008
4.28399e-06
-0.000133511
3.43185e-06
-0.000136135
2.62398e-06
-0.000137979
1.8436e-06
-0.00013909
1.11088e-06
-0.000139507
4.17477e-07
-0.000139285
-2.22179e-07
-0.000138461
-8.23807e-07
-0.00013708
-1.3814e-06
-0.000135187
-1.89339e-06
-0.000132827
-2.35937e-06
-0.000130046
-2.7808e-06
-0.000126888
-3.15825e-06
-0.000123396
-3.49219e-06
-0.00011961
-3.78557e-06
-0.000115571
-4.03911e-06
-0.000111317
-4.2541e-06
-0.000106885
-4.43171e-06
-0.000102312
-4.57341e-06
-9.76331e-05
-4.67891e-06
-9.2883e-05
-4.75014e-06
-8.80975e-05
-4.7855e-06
-8.331e-05
-4.78746e-06
-7.85541e-05
-4.75598e-06
-7.38607e-05
-4.69333e-06
-6.92594e-05
-4.60137e-06
-6.47724e-05
-4.48697e-06
-6.04185e-05
-4.35392e-06
-5.62093e-05
-4.2092e-06
-5.21493e-05
-4.05997e-06
-4.82369e-05
-3.91235e-06
-4.44647e-05
-3.77225e-06
-4.08199e-05
-3.64482e-06
-3.72862e-05
-3.53372e-06
-3.38457e-05
-3.44043e-06
-3.04827e-05
-3.36298e-06
-2.71838e-05
-3.2989e-06
-2.39414e-05
-3.24246e-06
-2.07548e-05
-3.18662e-06
-1.76267e-05
-3.12802e-06
-1.45608e-05
-3.06596e-06
-1.15598e-05
-3.00103e-06
-8.61879e-06
-2.94097e-06
-5.72636e-06
-2.89242e-06
-2.86263e-06
-2.86373e-06
-2.86263e-06
0.000107226
-0.000222053
0.000215719
-0.000224588
0.000325651
-0.000227299
0.000437075
-0.000230027
0.000550018
-0.000232747
0.000664558
-0.000235503
0.000780744
-0.000238212
0.000898546
-0.000240816
0.00101788
-0.000243253
0.00113883
-0.000245621
0.00126112
-0.000247529
0.00138471
-0.000249222
0.00150932
-0.000250401
0.00163456
-0.000250937
0.00176024
-0.000250983
0.00188585
-0.000250164
0.00201102
-0.000248605
0.00213513
-0.000246031
0.00225773
-0.00024254
0.00237808
-0.000237868
0.00249563
-0.000232128
0.00260968
-0.000225153
0.00271951
-0.000216951
0.00282442
-0.000207477
0.00292369
-0.000196746
0.00301669
-0.000184852
0.00310268
-0.000171657
0.00318109
-0.000157396
0.00325143
-0.000142195
0.00331315
-0.000125914
0.00336571
-0.000108788
0.00340888
-9.10049e-05
0.00344224
-7.24316e-05
0.00346554
-5.32406e-05
0.00347855
-3.35716e-05
0.00348148
-1.39112e-05
0.00347466
5.25826e-06
0.0034579
2.46156e-05
0.00343135
4.38751e-05
0.00339517
6.29056e-05
0.00334963
8.15714e-05
0.00329501
9.97904e-05
0.00323163
0.000117444
0.00315987
0.000134464
0.00308015
0.000150758
0.00299292
0.000166233
0.00289865
0.000180839
0.00279785
0.000194488
0.00269106
0.000207129
0.00257884
0.000218695
0.00246177
0.000229132
0.00234046
0.000238383
0.00221552
0.000246439
0.00208761
0.0002532
0.00195736
0.000258688
0.00182543
0.000262879
0.00169259
0.000265581
0.00155937
0.000267132
0.0014266
0.000267107
0.00129481
0.000265934
0.00116469
0.000263344
0.00103696
0.000259398
0.000912216
0.000254186
0.000791034
0.000247713
0.000673975
0.000240111
0.000561615
0.000231343
0.000454375
0.000221626
0.00035282
0.00021081
0.000257342
0.000199106
0.000168341
0.000186664
8.6025e-05
0.000173655
1.0639e-05
0.000159896
-5.76309e-05
0.000145815
-0.00011869
0.000131422
-0.000172246
0.000116678
-0.00021837
0.000101837
-0.000257177
8.70623e-05
-0.000288636
7.22196e-05
-0.000313069
5.79657e-05
-0.000330754
4.39427e-05
-0.000341888
3.04079e-05
-0.000346522
1.72427e-05
-0.000345411
4.99572e-06
-0.000339011
-6.22223e-06
-0.000327479
-1.69019e-05
-0.000311307
-2.67732e-05
-0.000290947
-3.57614e-05
-0.000266861
-4.3844e-05
-0.000239529
-5.09809e-05
-0.000209432
-5.71511e-05
-0.000177049
-6.23591e-05
-0.000142855
-6.66006e-05
-0.000107304
-6.99006e-05
-7.08294e-05
-7.23045e-05
-3.38797e-05
-7.37919e-05
3.15129e-06
-7.44406e-05
3.98988e-05
-7.43121e-05
7.60007e-05
-7.34066e-05
0.000111158
-7.18589e-05
0.000145071
-6.96451e-05
0.000177466
-6.68525e-05
0.000208111
-6.35558e-05
0.000236826
-5.98162e-05
0.000263427
-5.5677e-05
0.00028777
-5.12196e-05
0.000309764
-4.65035e-05
0.000329332
-4.15956e-05
0.000346382
-3.6511e-05
0.000360884
-3.13154e-05
0.000372873
-2.61187e-05
0.000382324
-2.08931e-05
0.000389273
-1.57165e-05
0.000393818
-1.06848e-05
0.000396005
-5.73394e-06
0.000395891
-8.88279e-07
0.000393652
3.59235e-06
0.000389343
7.95952e-06
0.000383078
1.21002e-05
0.000374999
1.59838e-05
0.000365228
1.95958e-05
0.000353896
2.29263e-05
0.000341163
2.59641e-05
0.00032717
2.86856e-05
0.000312054
3.11319e-05
0.000295972
3.32429e-05
0.000279073
3.50718e-05
0.000261453
3.66221e-05
0.000243292
3.78465e-05
0.000224717
3.87963e-05
0.000205851
3.94831e-05
0.000186829
3.98875e-05
0.000167772
4.00362e-05
0.000148773
3.99661e-05
0.000129917
3.96798e-05
0.000111349
3.91721e-05
9.31341e-05
3.84516e-05
7.53836e-05
3.75604e-05
5.81229e-05
3.65154e-05
4.14595e-05
3.53119e-05
2.54618e-05
3.39748e-05
1.01409e-05
3.25308e-05
-4.44418e-06
3.09781e-05
-1.82425e-05
2.93446e-05
-3.12152e-05
2.76259e-05
-4.33417e-05
2.58597e-05
-5.4616e-05
2.40647e-05
-6.50135e-05
2.22188e-05
-7.45365e-05
2.0377e-05
-8.31791e-05
1.8517e-05
-9.09561e-05
1.66813e-05
-9.78693e-05
1.48576e-05
-0.000103935
1.30623e-05
-0.000109171
1.13027e-05
-0.000113602
9.59276e-06
-0.000117254
7.93652e-06
-0.000120156
6.33344e-06
-0.000122334
4.802e-06
-0.000123829
3.33828e-06
-0.000124675
1.95731e-06
-0.000124909
6.51623e-07
-0.000124579
-5.52357e-07
-0.00012372
-1.68323e-06
-0.000122372
-2.72877e-06
-0.000120578
-3.68753e-06
-0.000118379
-4.55888e-06
-0.000115813
-5.34614e-06
-0.000112921
-6.05042e-06
-0.00010974
-6.6728e-06
-0.000106307
-7.21919e-06
-0.000102655
-7.69099e-06
-9.88183e-05
-8.09073e-06
-9.48294e-05
-8.42061e-06
-9.07194e-05
-8.68341e-06
-8.65198e-05
-8.87845e-06
-8.22608e-05
-9.00917e-06
-7.79741e-05
-9.07221e-06
-7.36897e-05
-9.07183e-06
-6.94382e-05
-9.00749e-06
-6.52485e-05
-8.88305e-06
-6.11478e-05
-8.70205e-06
-5.7157e-05
-8.47783e-06
-5.32928e-05
-8.21802e-06
-4.95655e-05
-7.9365e-06
-4.59781e-05
-7.64746e-06
-4.25277e-05
-7.36275e-06
-3.92062e-05
-7.09372e-06
-3.60003e-05
-6.85071e-06
-3.28932e-05
-6.64083e-06
-2.98662e-05
-6.4674e-06
-2.69033e-05
-6.32592e-06
-2.3991e-05
-6.21117e-06
-2.11227e-05
-6.11072e-06
-1.82996e-05
-6.00972e-06
-1.55272e-05
-5.90042e-06
-1.28121e-05
-5.78105e-06
-1.01597e-05
-5.65351e-06
-7.56686e-06
-5.53377e-06
-5.02263e-06
-5.43666e-06
-2.50981e-06
-5.37655e-06
-5.37245e-06
9.80662e-05
-0.000320119
0.00019753
-0.000324052
0.000298802
-0.00032857
0.000402158
-0.000333383
0.000508196
-0.000338785
0.000617004
-0.00034431
0.000729018
-0.000350226
0.000844453
-0.000356251
0.000963444
-0.000362244
0.00108599
-0.000368162
0.00121223
-0.000373773
0.0013419
-0.000378896
0.00147488
-0.000383381
0.00161082
-0.00038687
0.00174908
-0.00038925
0.00188917
-0.000390254
0.00203026
-0.000389691
0.00217155
-0.000387318
0.00231199
-0.00038298
0.00245065
-0.000376528
0.00258633
-0.000367814
0.00271796
-0.000356779
0.00284437
-0.000343363
0.00296441
-0.000327516
0.003077
-0.000309332
0.00318093
-0.000288785
0.00327544
-0.000266167
0.00335963
-0.000241587
0.00343275
-0.000215318
0.00349435
-0.000187512
0.00354408
-0.000158517
0.00358149
-0.000128417
0.00360657
-9.751e-05
0.00361903
-6.57002e-05
0.00361937
-3.3911e-05
0.0036086
-3.14105e-06
0.00358579
2.80648e-05
0.0035517
5.87112e-05
0.00350679
8.87867e-05
0.00345153
0.000118164
0.00338642
0.000146678
0.00331198
0.000174233
0.00322875
0.000200677
0.00313728
0.000225932
0.00303815
0.000249888
0.00293197
0.000272415
0.00281931
0.000293501
0.00270082
0.000312972
0.00257709
0.000330857
0.00244885
0.000346943
0.00231663
0.000361347
0.00218123
0.000373785
0.00204329
0.000384381
0.00190341
0.000393071
0.00176245
0.000399647
0.00162091
0.00040442
0.00147973
0.000406762
0.00133942
0.000407445
0.00120079
0.000405735
0.0010644
0.000402324
0.000931058
0.000396687
0.000801262
0.000389194
0.000675678
0.00037977
0.000554892
0.000368499
0.000439489
0.000355514
0.000329934
0.000340898
0.000226961
0.000324599
0.000130617
0.000307155
4.11642e-05
0.000288558
-4.06348e-05
0.000268463
-0.000115048
0.000248068
-0.000181429
0.000226277
-0.000239781
0.000204166
-0.000290327
0.000181968
-0.000332855
0.000159206
-0.000367546
0.000136529
-0.00039494
0.000114456
-0.000414862
9.2142e-05
-0.00042755
7.06534e-05
-0.000433434
4.98272e-05
-0.000433119
3.0093e-05
-0.000426814
1.09373e-05
-0.000415601
-6.21684e-06
-0.000399167
-2.26566e-05
-0.000378175
-3.78938e-05
-0.000353147
-5.18013e-05
-0.000324606
-6.43019e-05
-0.000293079
-7.53711e-05
-0.000259072
-8.4988e-05
-0.00022308
-9.31438e-05
-0.00018558
-9.98587e-05
-0.000147038
-0.000105143
-0.000107929
-0.000109009
-6.8645e-05
-0.000111589
-2.95949e-05
-0.000112842
8.84222e-06
-0.000112878
4.63704e-05
-0.00011184
8.26879e-05
-0.000109724
0.000117526
-0.000106697
0.00015066
-0.00010278
0.000181846
-9.80383e-05
0.00021098
-9.26896e-05
0.000237877
-8.67133e-05
0.000262459
-8.02595e-05
0.00028462
-7.33806e-05
0.000304256
-6.61391e-05
0.000321408
-5.87474e-05
0.000336038
-5.11415e-05
0.00034816
-4.34369e-05
0.000357808
-3.57667e-05
0.000365066
-2.81518e-05
0.000369979
-2.06288e-05
0.000372535
-1.32412e-05
0.000372889
-6.08784e-06
0.000371309
6.91648e-07
0.000367682
7.21985e-06
0.000362192
1.34493e-05
0.000354983
1.9309e-05
0.000346176
2.47903e-05
0.000335894
2.98781e-05
0.0003243
3.45201e-05
0.000311517
3.8747e-05
0.000297662
4.25406e-05
0.000282899
4.58949e-05
0.00026733
4.88127e-05
0.000251118
5.12838e-05
0.000234397
5.33425e-05
0.000217283
5.49602e-05
0.000199868
5.62117e-05
0.000182288
5.70632e-05
0.000164648
5.75273e-05
0.000147021
5.76629e-05
0.000129562
5.74259e-05
0.000112334
5.69074e-05
9.54053e-05
5.61007e-05
7.88689e-05
5.49881e-05
6.27887e-05
5.36405e-05
4.72585e-05
5.20457e-05
3.22813e-05
5.02891e-05
1.79322e-05
4.83239e-05
4.28721e-06
4.61757e-05
-8.68377e-06
4.39491e-05
-2.09126e-05
4.15734e-05
-3.23782e-05
3.90914e-05
-4.30677e-05
3.65493e-05
-5.29607e-05
3.39578e-05
-6.20545e-05
3.13126e-05
-7.03493e-05
2.86718e-05
-7.78481e-05
2.60158e-05
-8.45569e-05
2.33901e-05
-9.04922e-05
2.07929e-05
-9.56692e-05
1.82392e-05
-0.000100107
1.57401e-05
-0.000103824
1.33104e-05
-0.000106848
1.096e-05
-0.0001092
8.68604e-06
-0.000110922
6.5239e-06
-0.000112032
4.44799e-06
-0.000112574
2.49922e-06
-0.000112581
6.58893e-07
-0.000112091
-1.04222e-06
-0.000111139
-2.63525e-06
-0.000109764
-4.10432e-06
-0.000108002
-5.44876e-06
-0.000105893
-6.6684e-06
-0.000103471
-7.76817e-06
-0.000100771
-8.75056e-06
-9.78261e-05
-9.61748e-06
-9.46675e-05
-1.03777e-05
-9.1325e-05
-1.10335e-05
-8.78272e-05
-1.15885e-05
-8.42018e-05
-1.20459e-05
-8.04756e-05
-1.24097e-05
-7.66755e-05
-1.26785e-05
-7.28277e-05
-1.2857e-05
-6.89602e-05
-1.29397e-05
-6.51003e-05
-1.29317e-05
-6.12766e-05
-1.28312e-05
-5.75171e-05
-1.26426e-05
-5.38479e-05
-1.23712e-05
-5.02893e-05
-1.20365e-05
-4.68567e-05
-1.16506e-05
-4.35585e-05
-1.12347e-05
-4.03957e-05
-1.08102e-05
-3.73639e-05
-1.03946e-05
-3.44537e-05
-1.0004e-05
-3.16499e-05
-9.65447e-06
-2.89345e-05
-9.35631e-06
-2.62858e-05
-9.11605e-06
-2.36864e-05
-8.92531e-06
-2.11216e-05
-8.77598e-06
-1.85857e-05
-8.64662e-06
-1.60823e-05
-8.51313e-06
-1.36216e-05
-8.36108e-06
-1.12158e-05
-8.18688e-06
-8.87386e-06
-7.99547e-06
-6.59581e-06
-7.81182e-06
-4.37029e-06
-7.66218e-06
-2.18201e-06
-7.56482e-06
-7.55446e-06
7.86237e-05
-0.000398743
0.000158826
-0.000404254
0.000241842
-0.000411586
0.000328643
-0.000420183
0.000420064
-0.000430206
0.000517296
-0.000441543
0.000621028
-0.000453958
0.000731962
-0.000467185
0.000850783
-0.000481066
0.000978013
-0.000495392
0.00111342
-0.000509182
0.00125617
-0.000521646
0.00140592
-0.000533125
0.00156231
-0.000543268
0.00172455
-0.000551488
0.00189186
-0.000557557
0.00206232
-0.000560154
0.00223483
-0.000559824
0.00240783
-0.000555981
0.00257971
-0.00054841
0.00274835
-0.00053646
0.0029119
-0.000520325
0.00306837
-0.000499835
0.00321589
-0.000475032
0.00335265
-0.000446095
0.00347709
-0.000413225
0.00358767
-0.000376747
0.00368306
-0.000336971
0.00376258
-0.000294837
0.00382526
-0.0002502
0.00387056
-0.000203818
0.00389852
-0.000156378
0.00390944
-0.000108426
0.00390414
-6.0403e-05
0.00388473
-1.44966e-05
0.00385084
3.07468e-05
0.00380382
7.50832e-05
0.00374422
0.000118315
0.00367285
0.000160152
0.00359055
0.000200468
0.00349815
0.000239082
0.00339647
0.000275911
0.0032863
0.000310848
0.00316839
0.000343835
0.00304353
0.00037475
0.00291242
0.000403531
0.00277583
0.000430088
0.00263439
0.000454409
0.00248892
0.000476331
0.00233994
0.000495918
0.00218839
0.000512898
0.0020348
0.000527375
0.00188005
0.000539135
0.0017247
0.000548423
0.00156962
0.000554727
0.00141538
0.000558652
0.00126283
0.000559319
0.0011127
0.000557572
0.000965551
0.000552885
0.000822211
0.000545664
0.000683342
0.000535556
0.000549571
0.000522965
0.000421599
0.000507742
0.000300097
0.00049
0.000185691
0.000469921
7.85916e-05
0.000447997
-2.12133e-05
0.000424404
-0.000112481
0.000398422
-0.000195371
0.000371448
-0.000269425
0.000342517
-0.000334765
0.000313408
-0.000391564
0.000283076
-0.000439566
0.000252169
-0.000478702
0.000221103
-0.000509143
0.000189647
-0.000531663
0.000159048
-0.000545602
0.000128395
-0.000552489
9.90288e-05
-0.000552122
7.0286e-05
-0.00054507
4.27752e-05
-0.000531998
1.70217e-05
-0.000514054
-7.00648e-06
-0.000490674
-2.95972e-05
-0.000462777
-5.0554e-05
-0.000430989
-6.96813e-05
-0.000395888
-8.69029e-05
-0.000358086
-0.000102104
-0.000318146
-0.000115311
-0.000276554
-0.000126581
-0.00023386
-0.000135837
-0.000190615
-0.000143105
-0.000147196
-0.000148562
-0.000104055
-0.00015215
-6.16331e-05
-0.00015401
-2.02103e-05
-0.000154265
1.99754e-05
-0.000153064
5.85406e-05
-0.000150405
9.52142e-05
-0.000146398
0.000129865
-0.000141348
0.000162313
-0.000135227
0.000192408
-0.000128134
0.000220007
-0.000120288
0.00024506
-0.000111766
0.000267571
-0.000102771
0.000287453
-9.32627e-05
0.000304809
-8.34952e-05
0.00031949
-7.34286e-05
0.000331618
-6.32689e-05
0.000341261
-5.30804e-05
0.000348532
-4.30369e-05
0.000353473
-3.30935e-05
0.000356151
-2.33066e-05
0.000356641
-1.37311e-05
0.000355208
-4.65472e-06
0.000351875
4.025e-06
0.000346741
1.2353e-05
0.00033996
2.02309e-05
0.00033165
2.76192e-05
0.000321958
3.44818e-05
0.000311015
4.08212e-05
0.000298938
4.65969e-05
0.000285886
5.17991e-05
0.000271987
5.64395e-05
0.000257351
6.05312e-05
0.000242134
6.40296e-05
0.000226434
6.69839e-05
0.000210355
6.94217e-05
0.000194014
7.13008e-05
0.000177533
7.26926e-05
0.000161004
7.35932e-05
0.000144529
7.4002e-05
0.00012821
7.39821e-05
0.000112052
7.35838e-05
9.62009e-05
7.27582e-05
8.07263e-05
7.15753e-05
6.5653e-05
7.00614e-05
5.10682e-05
6.82253e-05
3.69983e-05
6.61156e-05
2.35234e-05
6.3764e-05
1.06837e-05
6.11635e-05
-1.54906e-06
5.84085e-05
-1.30723e-05
5.54724e-05
-2.39063e-05
5.24074e-05
-3.40286e-05
4.92137e-05
-4.34132e-05
4.59339e-05
-5.20539e-05
4.25985e-05
-5.99774e-05
3.92361e-05
-6.71519e-05
3.58463e-05
-7.36186e-05
3.24825e-05
-7.93544e-05
2.91259e-05
-8.43958e-05
2.58343e-05
-8.87566e-05
2.26001e-05
-9.24559e-05
1.94394e-05
-9.55129e-05
1.63674e-05
-9.79511e-05
1.33982e-05
-9.97968e-05
1.05318e-05
-0.000101082
7.80888e-06
-0.000101834
5.20041e-06
-0.000102078
2.74287e-06
-0.000101858
4.39449e-07
-0.000101202
-1.6983e-06
-0.000100145
-3.69211e-06
-9.87239e-05
-5.52588e-06
-9.69724e-05
-7.20026e-06
-9.49252e-05
-8.71555e-06
-9.26143e-05
-1.00791e-05
-9.00701e-05
-1.12948e-05
-8.73221e-05
-1.23655e-05
-8.43961e-05
-1.33037e-05
-8.13175e-05
-1.41121e-05
-7.81106e-05
-1.47955e-05
-7.47987e-05
-1.53578e-05
-7.14043e-05
-1.5804e-05
-6.79502e-05
-1.61326e-05
-6.44588e-05
-1.63485e-05
-6.09543e-05
-1.64442e-05
-5.7462e-05
-1.6424e-05
-5.40089e-05
-1.62843e-05
-5.06232e-05
-1.60283e-05
-4.73311e-05
-1.56633e-05
-4.41528e-05
-1.52148e-05
-4.11026e-05
-1.47009e-05
-3.81867e-05
-1.41506e-05
-3.54041e-05
-1.35927e-05
-3.27484e-05
-1.30503e-05
-3.0209e-05
-1.25433e-05
-2.77688e-05
-1.20947e-05
-2.54082e-05
-1.17169e-05
-2.31016e-05
-1.14227e-05
-2.0829e-05
-1.11979e-05
-1.85735e-05
-1.10315e-05
-1.63301e-05
-1.089e-05
-1.41053e-05
-1.0738e-05
-1.19158e-05
-1.05505e-05
-9.78047e-06
-1.03222e-05
-7.71236e-06
-1.00636e-05
-5.71559e-06
-9.80858e-06
-3.77838e-06
-9.59939e-06
-1.88358e-06
-9.45962e-06
-9.43804e-06
3.67344e-05
-0.000435477
7.52861e-05
-0.000442806
0.000118102
-0.000454402
0.000167617
-0.000469698
0.000225631
-0.000488219
0.000294374
-0.000510286
0.000375648
-0.000535231
0.000471097
-0.000562634
0.000582247
-0.000592215
0.0007098
-0.000622945
0.000854278
-0.00065366
0.00101607
-0.000683442
0.00119439
-0.000711436
0.00138775
-0.00073663
0.00159422
-0.000757957
0.0018114
-0.000774743
0.00203735
-0.000786106
0.00226908
-0.000791555
0.00250343
-0.000790329
0.00273704
-0.000782021
0.00296672
-0.000766138
0.00318879
-0.000742388
0.00339957
-0.000710615
0.00359536
-0.000670831
0.00377262
-0.000623347
0.00392801
-0.000568614
0.00405913
-0.000507876
0.00416435
-0.000442182
0.00424296
-0.000373455
0.00429583
-0.000303068
0.00432432
-0.000232301
0.0043296
-0.000161667
0.00431304
-9.18628e-05
0.00427896
-2.63235e-05
0.00422557
3.89003e-05
0.00415567
0.000100647
0.00407132
0.000159425
0.00397431
0.000215331
0.00386604
0.000268421
0.00374777
0.000318737
0.00362065
0.000366202
0.00348567
0.000410892
0.00334376
0.000452758
0.00319575
0.000491844
0.00304237
0.00052813
0.00288447
0.000561427
0.00272255
0.000592017
0.00255754
0.000619415
0.00238978
0.000644091
0.00222038
0.000665321
0.0020495
0.000683775
0.00187814
0.000698731
0.0017067
0.000710576
0.00153632
0.000718804
0.00136743
0.000723619
0.00120096
0.000725125
0.00103755
0.000722727
0.000877895
0.000717225
0.000723011
0.000707769
0.000573163
0.000695511
0.000429578
0.000679142
0.000292702
0.000659841
0.000163284
0.00063716
4.19345e-05
0.00061135
-7.16251e-05
0.00058348
-0.00017589
0.000552262
-0.000270793
0.000519307
-0.000355921
0.000483551
-0.00043135
0.000446877
-0.000497209
0.000408376
-0.000552894
0.000369093
-0.000598705
0.000328887
-0.000634848
0.000288311
-0.000661086
0.000247342
-0.00067905
0.000207611
-0.000687594
0.000167592
-0.000688287
0.000129089
-0.000681113
9.18548e-05
-0.000666989
5.6162e-05
-0.00064688
2.2666e-05
-0.000621318
-8.54048e-06
-0.000590414
-3.79106e-05
-0.000554963
-6.50485e-05
-0.0005157
-8.98169e-05
-0.00047334
-0.000112041
-0.000428422
-0.000131821
-0.000381716
-0.00014881
-0.000333717
-0.00016331
-0.000285084
-0.000175213
-0.000236311
-0.00018461
-0.000187792
-0.000191624
-0.000140059
-0.000196294
-9.34808e-05
-0.000198728
-4.83886e-05
-0.000199102
-5.08198e-06
-0.000197571
3.61505e-05
-0.000194296
7.51385e-05
-0.000189394
0.000111717
-0.000182977
0.000145729
-0.000175359
0.000177047
-0.000166545
0.000205632
-0.000156719
0.000231484
-0.00014614
0.000254474
-0.000134757
0.000274737
-0.000123033
0.000292207
-0.000110733
0.000306982
-9.82704e-05
0.000319204
-8.565e-05
0.000328916
-7.29811e-05
0.000336128
-6.02926e-05
0.000340958
-4.78669e-05
0.000343616
-3.57513e-05
0.000344128
-2.38188e-05
0.000342744
-1.2347e-05
0.000339485
-1.39527e-06
0.000334508
9.00112e-06
0.000327937
1.89249e-05
0.000319919
2.82485e-05
0.000310576
3.69621e-05
0.000300049
4.50088e-05
0.000288484
5.23868e-05
0.000275983
5.90973e-05
0.000262686
6.50966e-05
0.000248741
7.03836e-05
0.000234243
7.50297e-05
0.000219329
7.89431e-05
0.000204093
8.22203e-05
0.000188638
8.48767e-05
0.000173032
8.69065e-05
0.000157403
8.83216e-05
0.000141849
8.91473e-05
0.000126435
8.94158e-05
0.000111197
8.92207e-05
9.62633e-05
8.85172e-05
8.16694e-05
8.73521e-05
6.74767e-05
8.5768e-05
5.37203e-05
8.38178e-05
4.04843e-05
8.14613e-05
2.77773e-05
7.88226e-05
1.56466e-05
7.58947e-05
4.12177e-06
7.26884e-05
-6.78666e-06
6.9317e-05
-1.70369e-05
6.57226e-05
-2.66173e-05
6.19878e-05
-3.55181e-05
5.81145e-05
-4.37255e-05
5.41413e-05
-5.12733e-05
5.01463e-05
-5.81281e-05
4.60909e-05
-6.43177e-05
4.20359e-05
-6.98383e-05
3.8003e-05
-7.47256e-05
3.40133e-05
-7.89713e-05
3.008e-05
-8.26e-05
2.62287e-05
-8.5643e-05
2.24824e-05
-8.811e-05
1.88345e-05
-9.00268e-05
1.53149e-05
-9.14346e-05
1.19396e-05
-9.23262e-05
8.70048e-06
-9.27592e-05
5.63338e-06
-9.27419e-05
2.72557e-06
-9.2322e-05
1.95298e-08
-9.15173e-05
-2.50299e-06
-9.0368e-05
-4.84138e-06
-8.89069e-05
-6.987e-06
-8.71658e-05
-8.94137e-06
-8.51756e-05
-1.07057e-05
-8.29658e-05
-1.2289e-05
-8.05631e-05
-1.36975e-05
-7.79928e-05
-1.49358e-05
-7.52764e-05
-1.602e-05
-7.2435e-05
-1.69536e-05
-6.94889e-05
-1.77416e-05
-6.64575e-05
-1.83892e-05
-6.33597e-05
-1.89018e-05
-6.02143e-05
-1.9278e-05
-5.704e-05
-1.95228e-05
-5.38573e-05
-1.96269e-05
-5.06895e-05
-1.95918e-05
-4.75625e-05
-1.94112e-05
-4.45058e-05
-1.9085e-05
-4.15465e-05
-1.86226e-05
-3.87053e-05
-1.8056e-05
-3.59953e-05
-1.74108e-05
-3.34203e-05
-1.67255e-05
-3.0977e-05
-1.6036e-05
-2.86568e-05
-1.53706e-05
-2.6449e-05
-1.47511e-05
-2.43338e-05
-1.42099e-05
-2.22918e-05
-1.37589e-05
-2.02916e-05
-1.34229e-05
-1.8311e-05
-1.31785e-05
-1.6329e-05
-1.30135e-05
-1.43415e-05
-1.28775e-05
-1.23576e-05
-1.2722e-05
-1.04023e-05
-1.25057e-05
-8.5023e-06
-1.22223e-05
-6.67503e-06
-1.18908e-05
-4.92826e-06
-1.15554e-05
-3.24968e-06
-1.1278e-05
-1.61591e-06
-1.10934e-05
-1.10539e-05
-4.10336e-05
-0.000394443
-7.93787e-05
-0.000404461
-0.000110546
-0.000423234
-0.000130503
-0.000449742
-0.000134334
-0.000484388
-0.000117385
-0.000527234
-7.47545e-05
-0.000577862
-1.65204e-06
-0.000635737
0.000104771
-0.000698639
0.000244
-0.000762173
0.000414336
-0.000823995
0.000613301
-0.000882406
0.00083814
-0.000936276
0.0010859
-0.000984389
0.00135418
-0.00102624
0.00163951
-0.00106007
0.00193862
-0.00108522
0.00224732
-0.00110025
0.00256139
-0.00110441
0.00287597
-0.0010966
0.00318592
-0.00107608
0.00348543
-0.0010419
0.00376872
-0.000993906
0.0040299
-0.000932011
0.00426305
-0.000856503
0.00446317
-0.000768732
0.00462555
-0.00067025
0.0047447
-0.000561337
0.00481908
-0.000447832
0.00485213
-0.000336114
0.00484788
-0.000228054
0.00481088
-0.000124673
0.00474999
-3.0971e-05
0.0046653
5.83643e-05
0.00456326
0.000140946
0.00444589
0.00021802
0.00431548
0.00028983
0.00417417
0.000356641
0.00402382
0.000418769
0.00386602
0.000476537
0.00370202
0.000530208
0.00353295
0.000579962
0.0033595
0.000626204
0.00318249
0.000668856
0.00300267
0.00070795
0.00282023
0.000743864
0.00263614
0.000776107
0.00245021
0.000805353
0.00226377
0.000830529
0.00207643
0.000852658
0.00188969
0.000870517
0.00170358
0.000884843
0.00151904
0.000895113
0.00133644
0.000901406
0.00115653
0.00090353
0.000980039
0.000901614
0.000808107
0.000894659
0.000641313
0.000884019
0.000480478
0.000868604
0.000326427
0.000849561
0.000179639
0.00082593
4.14484e-05
0.000798031
-8.83537e-05
0.000766962
-0.000208931
0.000731927
-0.000318879
0.000693428
-0.000418603
0.000651987
-0.000507652
0.000608355
-0.000586113
0.000562011
-0.000652757
0.000513521
-0.000708142
0.000463762
-0.000752959
0.00041391
-0.000787233
0.000363162
-0.000810355
0.000311434
-0.00082457
0.000261557
-0.000828211
0.000211252
-0.000823361
0.000162741
-0.000810221
0.000115949
-0.000789601
7.1235e-05
-0.000762539
2.91001e-05
-0.000729686
-1.01878e-05
-0.00069127
-4.69561e-05
-0.000648189
-8.09916e-05
-0.00060132
-0.000111918
-0.000551446
-0.000139691
-0.000499427
-0.00016406
-0.000445861
-0.000185387
-0.000391373
-0.000203299
-0.000336673
-0.000218009
-0.000282193
-0.000229694
-0.000228549
-0.000238254
-0.000176052
-0.00024412
-0.000125236
-0.000247111
-7.63956e-05
-0.000247569
-2.98157e-05
-0.000245682
1.4343e-05
-0.00024173
5.57987e-05
-0.000235752
9.44044e-05
-0.000227999
0.000130036
-0.000218609
0.000162741
-0.000208064
0.000192437
-0.000196241
0.00021909
-0.000183372
0.000242658
-0.000169708
0.000263376
-0.000155474
0.000281152
-0.00014081
0.000296182
-0.000125763
0.00030845
-0.000110538
0.000318106
-9.53063e-05
0.000325316
-8.01912e-05
0.000330243
-6.52191e-05
0.000332809
-5.04332e-05
0.000333348
-3.62907e-05
0.000331906
-2.23766e-05
0.000328713
-9.15334e-06
0.000323899
3.41862e-06
0.000317489
1.54103e-05
0.000309686
2.6728e-05
0.000300611
3.73238e-05
0.000290421
4.71519e-05
0.000279241
5.61891e-05
0.000267193
6.44343e-05
0.000254416
7.18742e-05
0.000241037
7.84761e-05
0.000227161
8.42591e-05
0.000212906
8.92855e-05
0.000198334
9.35151e-05
0.000183598
9.69563e-05
0.000168761
9.9713e-05
0.000153942
0.000101725
0.000139194
0.00010307
0.000124558
0.000103783
0.000110118
0.000103855
9.5987e-05
0.000103352
8.2176e-05
0.000102328
6.87519e-05
0.000100776
5.57614e-05
9.87585e-05
4.32489e-05
9.63303e-05
3.12345e-05
9.34756e-05
1.97542e-05
9.0303e-05
8.83987e-06
8.6809e-05
-1.48245e-06
8.30107e-05
-1.11816e-05
7.90161e-05
-2.02634e-05
7.48044e-05
-2.87121e-05
7.04365e-05
-3.65305e-05
6.59329e-05
-4.37192e-05
6.13301e-05
-5.02634e-05
5.66905e-05
-5.6186e-05
5.20134e-05
-6.14916e-05
4.73416e-05
-6.61985e-05
4.27099e-05
-7.03128e-05
3.81276e-05
-7.38637e-05
3.36309e-05
-7.68691e-05
2.92341e-05
-7.93373e-05
2.49506e-05
-8.13021e-05
2.07993e-05
-8.2784e-05
1.67969e-05
-8.3792e-05
1.29476e-05
-8.43677e-05
9.27616e-06
-8.45202e-05
5.78588e-06
-8.42912e-05
2.49661e-06
-8.37016e-05
-5.70072e-07
-8.27809e-05
-3.4237e-06
-8.15639e-05
-6.0584e-06
-8.00813e-05
-8.46961e-06
-7.83621e-05
-1.06606e-05
-7.64354e-05
-1.26323e-05
-7.43279e-05
-1.43965e-05
-7.20629e-05
-1.59625e-05
-6.96622e-05
-1.73365e-05
-6.71429e-05
-1.85393e-05
-6.45221e-05
-1.95744e-05
-6.18164e-05
-2.04473e-05
-5.90424e-05
-2.11633e-05
-5.62157e-05
-2.17284e-05
-5.33515e-05
-2.21422e-05
-5.04651e-05
-2.24092e-05
-4.75722e-05
-2.25197e-05
-4.46954e-05
-2.24686e-05
-4.18587e-05
-2.22479e-05
-3.90943e-05
-2.18494e-05
-3.64309e-05
-2.12861e-05
-3.38903e-05
-2.05965e-05
-3.14843e-05
-1.98169e-05
-2.92135e-05
-1.89963e-05
-2.7072e-05
-1.81775e-05
-2.50492e-05
-1.73934e-05
-2.31356e-05
-1.66646e-05
-2.13089e-05
-1.60366e-05
-1.95509e-05
-1.55169e-05
-1.78237e-05
-1.51501e-05
-1.61025e-05
-1.48997e-05
-1.43614e-05
-1.47546e-05
-1.25967e-05
-1.46421e-05
-1.08201e-05
-1.44986e-05
-9.06692e-06
-1.4259e-05
-7.3719e-06
-1.39173e-05
-5.75712e-06
-1.35056e-05
-4.23212e-06
-1.30804e-05
-2.78272e-06
-1.27274e-05
-1.38009e-06
-1.2496e-05
-1.2434e-05