/*--------------------------------*- C++ -*----------------------------------*\
  =========                 |
  \\      /  F ield         | OpenFOAM: The Open Source CFD Toolbox
   \\    /   O peration     | Website:  https://openfoam.org
    \\  /    A nd           | Version:  12
     \\/     M anipulation  |
\*---------------------------------------------------------------------------*/
FoamFile
{
    format      ascii;
    class       volScalarField;
    location    "5";
    object      p;
}
// * * * * * * * * * * * * * * * * * * * * * * * * * * * * * * * * * * * * * //

dimensions      [1 -1 -2 0 0 0 0];

internalField   nonuniform List<scalar> 
3829
(
-616.381
-616.38
-616.379
-616.377
-616.374
-616.37
-616.366
-616.361
-616.354
-616.347
-616.338
-616.329
-616.318
-616.306
-616.293
-616.278
-616.262
-616.245
-616.226
-616.205
-616.183
-616.159
-616.133
-616.105
-616.076
-616.045
-616.013
-615.978
-615.942
-615.905
-615.866
-615.826
-615.785
-615.743
-615.699
-615.655
-615.611
-615.565
-615.52
-615.474
-615.429
-615.383
-615.339
-615.294
-615.251
-615.209
-615.168
-615.129
-615.091
-615.055
-615.021
-614.988
-614.958
-614.929
-614.903
-614.878
-614.856
-614.836
-614.817
-614.801
-614.787
-614.774
-614.763
-614.754
-614.746
-614.739
-614.733
-614.728
-614.723
-614.719
-614.715
-614.711
-614.707
-614.702
-614.696
-614.689
-614.682
-614.673
-614.663
-614.652
-614.639
-614.625
-614.609
-614.592
-614.574
-614.555
-614.535
-614.514
-614.493
-614.472
-614.451
-614.431
-614.411
-614.393
-614.376
-614.361
-614.348
-614.337
-614.328
-614.322
-614.319
-614.318
-614.32
-614.324
-614.33
-614.339
-614.348
-614.359
-614.371
-614.383
-614.395
-614.407
-614.417
-614.426
-614.433
-614.438
-614.44
-614.44
-614.437
-614.431
-614.423
-614.413
-614.401
-614.387
-614.372
-614.356
-614.341
-614.325
-614.311
-614.298
-614.286
-614.277
-614.27
-614.266
-614.265
-614.266
-614.27
-614.276
-614.285
-614.296
-614.307
-614.32
-614.334
-614.348
-614.361
-614.374
-614.385
-614.395
-614.403
-614.41
-614.414
-614.416
-614.415
-614.413
-614.408
-614.401
-614.393
-614.384
-614.373
-614.362
-614.35
-614.338
-614.326
-614.315
-614.304
-614.294
-614.286
-614.279
-614.273
-614.269
-614.266
-614.265
-614.266
-614.267
-614.27
-614.274
-614.279
-614.285
-614.291
-614.297
-614.303
-614.31
-614.316
-614.321
-614.326
-614.331
-614.335
-614.338
-614.34
-614.342
-614.343
-614.344
-614.344
-614.343
-614.343
-614.342
-614.341
-614.34
-614.34
-614.34
-1774.81
-1774.81
-1774.81
-1774.81
-1774.81
-1774.81
-1774.8
-1774.8
-1774.79
-1774.79
-1774.78
-1774.77
-1774.76
-1774.75
-1774.74
-1774.73
-1774.71
-1774.69
-1774.67
-1774.65
-1774.63
-1774.6
-1774.57
-1774.54
-1774.51
-1774.48
-1774.44
-1774.4
-1774.36
-1774.32
-1774.27
-1774.23
-1774.18
-1774.13
-1774.08
-1774.03
-1773.98
-1773.93
-1773.88
-1773.82
-1773.77
-1773.72
-1773.67
-1773.62
-1773.57
-1773.53
-1773.48
-1773.44
-1773.4
-1773.36
-1773.33
-1773.3
-1773.27
-1773.24
-1773.21
-1773.19
-1773.17
-1773.15
-1773.14
-1773.12
-1773.11
-1773.1
-1773.1
-1773.09
-1773.09
-1773.09
-1773.08
-1773.08
-1773.08
-1773.08
-1773.08
-1773.08
-1773.08
-1773.08
-1773.08
-1773.07
-1773.07
-1773.06
-1773.05
-1773.04
-1773.03
-1773.01
-1772.99
-1772.97
-1772.95
-1772.93
-1772.91
-1772.89
-1772.86
-1772.84
-1772.81
-1772.79
-1772.77
-1772.75
-1772.73
-1772.71
-1772.69
-1772.68
-1772.67
-1772.67
-1772.67
-1772.67
-1772.67
-1772.68
-1772.68
-1772.7
-1772.71
-1772.72
-1772.74
-1772.75
-1772.77
-1772.78
-1772.8
-1772.81
-1772.82
-1772.82
-1772.83
-1772.82
-1772.82
-1772.81
-1772.81
-1772.79
-1772.78
-1772.76
-1772.74
-1772.73
-1772.71
-1772.69
-1772.67
-1772.66
-1772.65
-1772.64
-1772.63
-1772.62
-1772.62
-1772.63
-1772.63
-1772.64
-1772.65
-1772.66
-1772.67
-1772.69
-1772.7
-1772.72
-1772.73
-1772.75
-1772.76
-1772.77
-1772.78
-1772.79
-1772.79
-1772.79
-1772.79
-1772.79
-1772.78
-1772.78
-1772.77
-1772.76
-1772.74
-1772.73
-1772.72
-1772.71
-1772.69
-1772.68
-1772.67
-1772.66
-1772.65
-1772.65
-1772.64
-1772.64
-1772.63
-1772.63
-1772.63
-1772.64
-1772.64
-1772.64
-1772.65
-1772.65
-1772.66
-1772.67
-1772.67
-1772.68
-1772.69
-1772.69
-1772.7
-1772.7
-1772.71
-1772.71
-1772.71
-1772.71
-1772.71
-1772.71
-1772.71
-1772.71
-1772.71
-1772.71
-1772.71
-1772.71
-1772.71
-1772.71
-2801.07
-2801.07
-2801.07
-2801.07
-2801.07
-2801.07
-2801.07
-2801.07
-2801.07
-2801.07
-2801.06
-2801.06
-2801.06
-2801.05
-2801.04
-2801.03
-2801.02
-2801
-2800.98
-2800.96
-2800.94
-2800.91
-2800.88
-2800.84
-2800.8
-2800.76
-2800.72
-2800.67
-2800.62
-2800.56
-2800.51
-2800.45
-2800.39
-2800.33
-2800.26
-2800.2
-2800.13
-2800.07
-2800.01
-2799.94
-2799.88
-2799.82
-2799.76
-2799.7
-2799.65
-2799.59
-2799.54
-2799.5
-2799.45
-2799.41
-2799.37
-2799.34
-2799.31
-2799.28
-2799.26
-2799.24
-2799.23
-2799.21
-2799.2
-2799.2
-2799.19
-2799.19
-2799.19
-2799.2
-2799.2
-2799.21
-2799.22
-2799.22
-2799.23
-2799.24
-2799.25
-2799.25
-2799.26
-2799.26
-2799.26
-2799.26
-2799.26
-2799.25
-2799.25
-2799.23
-2799.22
-2799.2
-2799.18
-2799.16
-2799.14
-2799.11
-2799.08
-2799.05
-2799.02
-2798.99
-2798.96
-2798.93
-2798.9
-2798.87
-2798.85
-2798.83
-2798.81
-2798.8
-2798.79
-2798.78
-2798.78
-2798.79
-2798.79
-2798.8
-2798.82
-2798.84
-2798.85
-2798.88
-2798.9
-2798.92
-2798.94
-2798.96
-2798.98
-2798.99
-2799
-2799.01
-2799.01
-2799.01
-2799.01
-2799
-2798.99
-2798.97
-2798.95
-2798.93
-2798.91
-2798.89
-2798.86
-2798.84
-2798.82
-2798.8
-2798.79
-2798.78
-2798.77
-2798.76
-2798.76
-2798.77
-2798.77
-2798.78
-2798.8
-2798.81
-2798.83
-2798.85
-2798.86
-2798.88
-2798.9
-2798.91
-2798.93
-2798.94
-2798.95
-2798.96
-2798.96
-2798.96
-2798.96
-2798.96
-2798.95
-2798.94
-2798.93
-2798.92
-2798.91
-2798.89
-2798.88
-2798.87
-2798.85
-2798.84
-2798.83
-2798.82
-2798.81
-2798.8
-2798.8
-2798.79
-2798.79
-2798.79
-2798.79
-2798.79
-2798.8
-2798.8
-2798.81
-2798.81
-2798.82
-2798.83
-2798.83
-2798.84
-2798.85
-2798.85
-2798.86
-2798.86
-2798.87
-2798.87
-2798.87
-2798.87
-2798.87
-2798.88
-2798.87
-2798.87
-2798.87
-2798.87
-2798.87
-2798.87
-2798.87
-2798.87
-3710.2
-3710.2
-3710.2
-3710.21
-3710.21
-3710.22
-3710.23
-3710.24
-3710.25
-3710.26
-3710.26
-3710.27
-3710.28
-3710.28
-3710.28
-3710.28
-3710.27
-3710.26
-3710.25
-3710.23
-3710.2
-3710.17
-3710.14
-3710.09
-3710.05
-3709.99
-3709.93
-3709.87
-3709.8
-3709.73
-3709.65
-3709.57
-3709.49
-3709.41
-3709.32
-3709.24
-3709.15
-3709.07
-3708.99
-3708.9
-3708.83
-3708.75
-3708.68
-3708.61
-3708.54
-3708.48
-3708.42
-3708.37
-3708.32
-3708.28
-3708.24
-3708.21
-3708.18
-3708.16
-3708.14
-3708.13
-3708.12
-3708.11
-3708.11
-3708.12
-3708.13
-3708.14
-3708.15
-3708.17
-3708.18
-3708.2
-3708.22
-3708.24
-3708.26
-3708.28
-3708.3
-3708.32
-3708.33
-3708.34
-3708.35
-3708.35
-3708.35
-3708.35
-3708.34
-3708.33
-3708.31
-3708.29
-3708.27
-3708.24
-3708.21
-3708.17
-3708.13
-3708.1
-3708.06
-3708.02
-3707.98
-3707.94
-3707.9
-3707.87
-3707.84
-3707.81
-3707.79
-3707.78
-3707.77
-3707.76
-3707.76
-3707.77
-3707.78
-3707.8
-3707.82
-3707.84
-3707.87
-3707.9
-3707.93
-3707.96
-3707.99
-3708.02
-3708.05
-3708.07
-3708.08
-3708.09
-3708.1
-3708.09
-3708.09
-3708.07
-3708.06
-3708.04
-3708.01
-3707.98
-3707.95
-3707.92
-3707.89
-3707.87
-3707.84
-3707.82
-3707.8
-3707.79
-3707.78
-3707.78
-3707.78
-3707.78
-3707.79
-3707.8
-3707.82
-3707.84
-3707.86
-3707.88
-3707.9
-3707.93
-3707.95
-3707.96
-3707.98
-3707.99
-3708
-3708.01
-3708.01
-3708.02
-3708.01
-3708.01
-3708
-3707.99
-3707.98
-3707.96
-3707.95
-3707.93
-3707.92
-3707.9
-3707.89
-3707.87
-3707.86
-3707.85
-3707.84
-3707.83
-3707.83
-3707.82
-3707.82
-3707.82
-3707.82
-3707.83
-3707.83
-3707.84
-3707.84
-3707.85
-3707.86
-3707.87
-3707.87
-3707.88
-3707.89
-3707.89
-3707.9
-3707.9
-3707.91
-3707.91
-3707.91
-3707.91
-3707.92
-3707.91
-3707.91
-3707.91
-3707.91
-3707.91
-3707.91
-3707.91
-3707.91
-3707.91
-4515.53
-4515.53
-4515.54
-4515.55
-4515.57
-4515.59
-4515.62
-4515.64
-4515.68
-4515.71
-4515.74
-4515.77
-4515.8
-4515.83
-4515.85
-4515.87
-4515.88
-4515.88
-4515.87
-4515.86
-4515.83
-4515.79
-4515.75
-4515.69
-4515.63
-4515.55
-4515.47
-4515.38
-4515.28
-4515.18
-4515.07
-4514.96
-4514.85
-4514.74
-4514.62
-4514.51
-4514.39
-4514.28
-4514.18
-4514.07
-4513.97
-4513.88
-4513.79
-4513.71
-4513.63
-4513.56
-4513.49
-4513.43
-4513.38
-4513.34
-4513.3
-4513.27
-4513.25
-4513.23
-4513.22
-4513.22
-4513.22
-4513.23
-4513.25
-4513.26
-4513.29
-4513.31
-4513.34
-4513.38
-4513.41
-4513.45
-4513.48
-4513.52
-4513.55
-4513.59
-4513.62
-4513.65
-4513.67
-4513.69
-4513.71
-4513.72
-4513.72
-4513.72
-4513.71
-4513.7
-4513.68
-4513.65
-4513.62
-4513.58
-4513.54
-4513.49
-4513.44
-4513.39
-4513.34
-4513.29
-4513.24
-4513.19
-4513.14
-4513.1
-4513.06
-4513.03
-4513
-4512.98
-4512.97
-4512.97
-4512.97
-4512.98
-4513
-4513.03
-4513.06
-4513.1
-4513.14
-4513.18
-4513.22
-4513.26
-4513.31
-4513.34
-4513.37
-4513.4
-4513.42
-4513.43
-4513.44
-4513.44
-4513.42
-4513.41
-4513.38
-4513.35
-4513.32
-4513.28
-4513.25
-4513.21
-4513.17
-4513.14
-4513.11
-4513.08
-4513.06
-4513.04
-4513.03
-4513.03
-4513.03
-4513.04
-4513.05
-4513.07
-4513.09
-4513.12
-4513.14
-4513.17
-4513.19
-4513.22
-4513.24
-4513.26
-4513.28
-4513.3
-4513.31
-4513.32
-4513.32
-4513.32
-4513.32
-4513.31
-4513.3
-4513.29
-4513.27
-4513.26
-4513.24
-4513.22
-4513.21
-4513.19
-4513.17
-4513.16
-4513.14
-4513.13
-4513.12
-4513.11
-4513.11
-4513.1
-4513.1
-4513.1
-4513.11
-4513.11
-4513.12
-4513.12
-4513.13
-4513.14
-4513.15
-4513.15
-4513.16
-4513.17
-4513.18
-4513.18
-4513.19
-4513.19
-4513.2
-4513.2
-4513.2
-4513.2
-4513.2
-4513.2
-4513.2
-4513.2
-4513.2
-4513.2
-4513.2
-4513.2
-4513.2
-4513.19
-5228.76
-5228.77
-5228.79
-5228.82
-5228.86
-5228.91
-5228.97
-5229.03
-5229.1
-5229.17
-5229.24
-5229.32
-5229.39
-5229.45
-5229.51
-5229.56
-5229.61
-5229.64
-5229.65
-5229.66
-5229.64
-5229.61
-5229.57
-5229.5
-5229.41
-5229.31
-5229.19
-5229.06
-5228.92
-5228.77
-5228.62
-5228.46
-5228.3
-5228.14
-5227.98
-5227.83
-5227.68
-5227.54
-5227.4
-5227.27
-5227.15
-5227.03
-5226.92
-5226.83
-5226.74
-5226.65
-5226.59
-5226.53
-5226.48
-5226.43
-5226.4
-5226.38
-5226.36
-5226.36
-5226.36
-5226.37
-5226.39
-5226.41
-5226.44
-5226.48
-5226.52
-5226.57
-5226.62
-5226.67
-5226.73
-5226.78
-5226.84
-5226.9
-5226.95
-5227
-5227.05
-5227.09
-5227.13
-5227.16
-5227.18
-5227.2
-5227.2
-5227.2
-5227.2
-5227.18
-5227.15
-5227.12
-5227.08
-5227.03
-5226.97
-5226.91
-5226.85
-5226.78
-5226.72
-5226.65
-5226.58
-5226.52
-5226.45
-5226.4
-5226.35
-5226.31
-5226.28
-5226.26
-5226.25
-5226.25
-5226.25
-5226.27
-5226.3
-5226.34
-5226.38
-5226.43
-5226.49
-5226.55
-5226.6
-5226.66
-5226.71
-5226.76
-5226.8
-5226.84
-5226.86
-5226.88
-5226.88
-5226.88
-5226.86
-5226.84
-5226.81
-5226.77
-5226.72
-5226.68
-5226.63
-5226.58
-5226.53
-5226.49
-5226.45
-5226.42
-5226.4
-5226.38
-5226.37
-5226.37
-5226.37
-5226.38
-5226.4
-5226.42
-5226.45
-5226.48
-5226.51
-5226.54
-5226.58
-5226.61
-5226.63
-5226.66
-5226.68
-5226.7
-5226.71
-5226.72
-5226.72
-5226.72
-5226.71
-5226.7
-5226.69
-5226.68
-5226.66
-5226.64
-5226.62
-5226.6
-5226.58
-5226.56
-5226.55
-5226.53
-5226.51
-5226.5
-5226.49
-5226.48
-5226.48
-5226.48
-5226.47
-5226.48
-5226.48
-5226.48
-5226.49
-5226.5
-5226.51
-5226.51
-5226.52
-5226.53
-5226.54
-5226.55
-5226.56
-5226.56
-5226.57
-5226.58
-5226.58
-5226.58
-5226.58
-5226.58
-5226.58
-5226.58
-5226.58
-5226.58
-5226.58
-5226.58
-5226.58
-5226.57
-5226.57
-5226.57
-5860.41
-5860.43
-5860.47
-5860.54
-5860.63
-5860.74
-5860.87
-5861.01
-5861.17
-5861.35
-5861.52
-5861.7
-5861.87
-5862.03
-5862.17
-5862.3
-5862.39
-5862.46
-5862.49
-5862.5
-5862.47
-5862.4
-5862.31
-5862.18
-5862.03
-5861.85
-5861.65
-5861.44
-5861.21
-5860.98
-5860.75
-5860.52
-5860.3
-5860.08
-5859.87
-5859.67
-5859.48
-5859.3
-5859.13
-5858.97
-5858.83
-5858.69
-5858.57
-5858.46
-5858.37
-5858.29
-5858.21
-5858.15
-5858.1
-5858.06
-5858.03
-5858.02
-5858.01
-5858.02
-5858.04
-5858.07
-5858.1
-5858.15
-5858.2
-5858.26
-5858.33
-5858.4
-5858.47
-5858.55
-5858.63
-5858.71
-5858.79
-5858.87
-5858.94
-5859.01
-5859.08
-5859.14
-5859.19
-5859.23
-5859.26
-5859.28
-5859.3
-5859.3
-5859.28
-5859.26
-5859.23
-5859.19
-5859.13
-5859.07
-5859
-5858.93
-5858.84
-5858.76
-5858.67
-5858.58
-5858.5
-5858.42
-5858.34
-5858.27
-5858.21
-5858.16
-5858.12
-5858.1
-5858.09
-5858.09
-5858.1
-5858.13
-5858.17
-5858.22
-5858.28
-5858.35
-5858.42
-5858.5
-5858.57
-5858.64
-5858.71
-5858.77
-5858.83
-5858.87
-5858.9
-5858.92
-5858.92
-5858.91
-5858.89
-5858.86
-5858.82
-5858.77
-5858.71
-5858.65
-5858.59
-5858.53
-5858.47
-5858.42
-5858.38
-5858.34
-5858.31
-5858.29
-5858.28
-5858.28
-5858.29
-5858.31
-5858.33
-5858.36
-5858.39
-5858.43
-5858.47
-5858.5
-5858.54
-5858.58
-5858.61
-5858.64
-5858.66
-5858.68
-5858.69
-5858.7
-5858.7
-5858.7
-5858.69
-5858.68
-5858.66
-5858.65
-5858.63
-5858.61
-5858.58
-5858.56
-5858.54
-5858.52
-5858.5
-5858.48
-5858.47
-5858.45
-5858.44
-5858.44
-5858.43
-5858.43
-5858.43
-5858.43
-5858.43
-5858.44
-5858.45
-5858.45
-5858.46
-5858.47
-5858.48
-5858.49
-5858.5
-5858.51
-5858.52
-5858.53
-5858.53
-5858.54
-5858.54
-5858.55
-5858.55
-5858.55
-5858.55
-5858.55
-5858.54
-5858.54
-5858.54
-5858.54
-5858.54
-5858.53
-5858.53
-5858.53
-6419.4
-6419.44
-6419.52
-6419.63
-6419.79
-6419.99
-6420.22
-6420.49
-6420.77
-6421.07
-6421.36
-6421.64
-6421.9
-6422.14
-6422.36
-6422.53
-6422.68
-6422.79
-6422.86
-6422.9
-6422.89
-6422.85
-6422.76
-6422.63
-6422.45
-6422.22
-6421.95
-6421.64
-6421.32
-6421
-6420.68
-6420.38
-6420.08
-6419.8
-6419.54
-6419.29
-6419.06
-6418.84
-6418.64
-6418.46
-6418.3
-6418.15
-6418.01
-6417.9
-6417.8
-6417.71
-6417.64
-6417.58
-6417.54
-6417.51
-6417.49
-6417.49
-6417.5
-6417.53
-6417.57
-6417.61
-6417.67
-6417.74
-6417.82
-6417.91
-6418
-6418.1
-6418.2
-6418.31
-6418.42
-6418.52
-6418.63
-6418.73
-6418.83
-6418.92
-6419.01
-6419.08
-6419.15
-6419.2
-6419.24
-6419.27
-6419.29
-6419.29
-6419.27
-6419.24
-6419.2
-6419.15
-6419.08
-6419
-6418.91
-6418.81
-6418.71
-6418.6
-6418.49
-6418.39
-6418.28
-6418.18
-6418.08
-6418
-6417.93
-6417.87
-6417.82
-6417.8
-6417.78
-6417.79
-6417.81
-6417.85
-6417.9
-6417.97
-6418.05
-6418.13
-6418.23
-6418.32
-6418.42
-6418.51
-6418.59
-6418.67
-6418.73
-6418.78
-6418.82
-6418.84
-6418.84
-6418.83
-6418.8
-6418.76
-6418.7
-6418.64
-6418.57
-6418.5
-6418.42
-6418.35
-6418.28
-6418.22
-6418.17
-6418.13
-6418.09
-6418.07
-6418.06
-6418.07
-6418.08
-6418.1
-6418.13
-6418.17
-6418.21
-6418.25
-6418.29
-6418.34
-6418.38
-6418.42
-6418.46
-6418.49
-6418.51
-6418.53
-6418.54
-6418.55
-6418.55
-6418.55
-6418.54
-6418.53
-6418.51
-6418.49
-6418.47
-6418.44
-6418.42
-6418.4
-6418.37
-6418.35
-6418.33
-6418.31
-6418.29
-6418.28
-6418.27
-6418.26
-6418.25
-6418.25
-6418.25
-6418.25
-6418.26
-6418.27
-6418.27
-6418.28
-6418.29
-6418.3
-6418.32
-6418.33
-6418.34
-6418.35
-6418.35
-6418.36
-6418.37
-6418.37
-6418.38
-6418.38
-6418.38
-6418.38
-6418.38
-6418.38
-6418.38
-6418.37
-6418.37
-6418.37
-6418.37
-6418.36
-6418.36
-6418.36
-6913.99
-6914.06
-6914.2
-6914.41
-6914.7
-6915.07
-6915.51
-6916.01
-6916.56
-6917.09
-6917.63
-6918.16
-6918.68
-6919.22
-6919.68
-6920.06
-6920.36
-6920.58
-6920.71
-6920.75
-6920.71
-6920.57
-6920.36
-6920.07
-6919.7
-6919.28
-6918.78
-6918.21
-6917.64
-6917.14
-6916.67
-6916.24
-6915.85
-6915.5
-6915.17
-6914.88
-6914.61
-6914.37
-6914.16
-6913.96
-6913.79
-6913.63
-6913.49
-6913.38
-6913.28
-6913.19
-6913.13
-6913.08
-6913.04
-6913.03
-6913.03
-6913.04
-6913.07
-6913.12
-6913.18
-6913.25
-6913.34
-6913.43
-6913.54
-6913.65
-6913.78
-6913.91
-6914.04
-6914.18
-6914.31
-6914.45
-6914.58
-6914.71
-6914.84
-6914.95
-6915.06
-6915.15
-6915.23
-6915.3
-6915.35
-6915.38
-6915.4
-6915.4
-6915.38
-6915.35
-6915.29
-6915.22
-6915.14
-6915.04
-6914.93
-6914.81
-6914.69
-6914.55
-6914.42
-6914.29
-6914.16
-6914.03
-6913.92
-6913.82
-6913.73
-6913.66
-6913.61
-6913.58
-6913.57
-6913.58
-6913.61
-6913.66
-6913.73
-6913.81
-6913.91
-6914.02
-6914.13
-6914.25
-6914.37
-6914.48
-6914.58
-6914.67
-6914.75
-6914.81
-6914.85
-6914.87
-6914.87
-6914.85
-6914.82
-6914.76
-6914.7
-6914.62
-6914.53
-6914.44
-6914.36
-6914.27
-6914.19
-6914.12
-6914.06
-6914.01
-6913.98
-6913.95
-6913.95
-6913.95
-6913.97
-6914
-6914.03
-6914.07
-6914.12
-6914.17
-6914.22
-6914.27
-6914.32
-6914.37
-6914.41
-6914.44
-6914.47
-6914.49
-6914.5
-6914.51
-6914.51
-6914.5
-6914.49
-6914.48
-6914.46
-6914.44
-6914.41
-6914.38
-6914.36
-6914.33
-6914.3
-6914.28
-6914.26
-6914.24
-6914.22
-6914.2
-6914.19
-6914.18
-6914.18
-6914.18
-6914.18
-6914.18
-6914.19
-6914.2
-6914.2
-6914.21
-6914.23
-6914.24
-6914.25
-6914.26
-6914.27
-6914.28
-6914.29
-6914.3
-6914.31
-6914.31
-6914.31
-6914.32
-6914.32
-6914.32
-6914.32
-6914.32
-6914.31
-6914.31
-6914.31
-6914.3
-6914.3
-6914.3
-6914.3
-6914.3
-7351.26
-7351.33
-7351.51
-7351.78
-7352.18
-7352.77
-7353.6
-7354.61
-7356.51
-7357.65
-7358.58
-7359.38
-7360.04
-7360.51
-7360.89
-7361.18
-7361.4
-7361.54
-7361.62
-7361.65
-7361.63
-7361.53
-7361.33
-7361.01
-7360.54
-7360.01
-7359.21
-7357.74
-7356.94
-7356.28
-7355.71
-7355.21
-7354.78
-7354.39
-7354.05
-7353.74
-7353.46
-7353.21
-7352.99
-7352.79
-7352.62
-7352.46
-7352.33
-7352.21
-7352.12
-7352.04
-7351.99
-7351.95
-7351.93
-7351.93
-7351.94
-7351.98
-7352.03
-7352.1
-7352.18
-7352.28
-7352.39
-7352.52
-7352.65
-7352.8
-7352.96
-7353.12
-7353.28
-7353.45
-7353.62
-7353.79
-7353.95
-7354.11
-7354.26
-7354.4
-7354.53
-7354.64
-7354.74
-7354.82
-7354.88
-7354.92
-7354.94
-7354.94
-7354.91
-7354.87
-7354.8
-7354.72
-7354.61
-7354.49
-7354.36
-7354.21
-7354.06
-7353.9
-7353.74
-7353.58
-7353.43
-7353.28
-7353.15
-7353.03
-7352.93
-7352.85
-7352.79
-7352.75
-7352.75
-7352.76
-7352.8
-7352.86
-7352.95
-7353.05
-7353.17
-7353.3
-7353.44
-7353.58
-7353.72
-7353.86
-7353.98
-7354.09
-7354.18
-7354.25
-7354.29
-7354.31
-7354.31
-7354.28
-7354.24
-7354.17
-7354.09
-7354
-7353.89
-7353.79
-7353.69
-7353.59
-7353.49
-7353.41
-7353.35
-7353.29
-7353.25
-7353.23
-7353.23
-7353.24
-7353.26
-7353.29
-7353.33
-7353.38
-7353.44
-7353.5
-7353.56
-7353.61
-7353.67
-7353.72
-7353.76
-7353.8
-7353.83
-7353.85
-7353.86
-7353.87
-7353.87
-7353.86
-7353.85
-7353.83
-7353.81
-7353.78
-7353.75
-7353.72
-7353.69
-7353.66
-7353.64
-7353.61
-7353.59
-7353.56
-7353.55
-7353.53
-7353.52
-7353.51
-7353.51
-7353.51
-7353.51
-7353.51
-7353.52
-7353.53
-7353.54
-7353.55
-7353.56
-7353.57
-7353.59
-7353.6
-7353.61
-7353.62
-7353.63
-7353.64
-7353.64
-7353.65
-7353.65
-7353.66
-7353.66
-7353.66
-7353.65
-7353.65
-7353.65
-7353.65
-7353.64
-7353.64
-7353.64
-7353.63
-7353.63
-7353.63
-7737.46
-7737.62
-7737.95
-7738.48
-7739.15
-7739.93
-7740.73
-7741.6
-7744.12
-7745.07
-7746.14
-7747.34
-7748.39
-7749.3
-7750.09
-7750.75
-7751.3
-7751.71
-7751.97
-7752.07
-7752
-7751.77
-7751.38
-7750.84
-7750.14
-7749.28
-7748.25
-7746.74
-7745.77
-7744.97
-7744.32
-7743.8
-7743.35
-7742.97
-7742.63
-7742.33
-7742.07
-7741.83
-7741.62
-7741.43
-7741.26
-7741.11
-7740.99
-7740.88
-7740.8
-7740.73
-7740.68
-7740.66
-7740.65
-7740.67
-7740.7
-7740.76
-7740.83
-7740.92
-7741.03
-7741.16
-7741.3
-7741.46
-7741.63
-7741.8
-7741.99
-7742.19
-7742.39
-7742.59
-7742.79
-7742.99
-7743.19
-7743.38
-7743.56
-7743.72
-7743.87
-7744
-7744.12
-7744.21
-7744.28
-7744.32
-7744.34
-7744.34
-7744.31
-7744.25
-7744.17
-7744.07
-7743.94
-7743.8
-7743.64
-7743.47
-7743.29
-7743.1
-7742.91
-7742.73
-7742.54
-7742.37
-7742.22
-7742.08
-7741.96
-7741.87
-7741.81
-7741.77
-7741.76
-7741.79
-7741.84
-7741.91
-7742.02
-7742.14
-7742.28
-7742.44
-7742.6
-7742.77
-7742.94
-7743.09
-7743.23
-7743.36
-7743.46
-7743.54
-7743.59
-7743.61
-7743.6
-7743.57
-7743.51
-7743.43
-7743.34
-7743.23
-7743.11
-7742.99
-7742.87
-7742.75
-7742.65
-7742.56
-7742.48
-7742.42
-7742.38
-7742.36
-7742.36
-7742.37
-7742.4
-7742.44
-7742.49
-7742.55
-7742.61
-7742.68
-7742.74
-7742.81
-7742.86
-7742.92
-7742.97
-7743.01
-7743.04
-7743.06
-7743.07
-7743.08
-7743.08
-7743.07
-7743.05
-7743.03
-7743.01
-7742.98
-7742.95
-7742.92
-7742.88
-7742.85
-7742.82
-7742.79
-7742.77
-7742.74
-7742.73
-7742.71
-7742.7
-7742.69
-7742.69
-7742.68
-7742.69
-7742.69
-7742.7
-7742.71
-7742.72
-7742.73
-7742.75
-7742.76
-7742.77
-7742.79
-7742.8
-7742.81
-7742.82
-7742.83
-7742.83
-7742.84
-7742.84
-7742.85
-7742.85
-7742.85
-7742.84
-7742.84
-7742.84
-7742.83
-7742.83
-7742.83
-7742.82
-7742.82
-7742.82
-7742.82
-8078.6
-8078.61
-8078.63
-8078.64
-8078.66
-8078.76
-8078.94
-8079.24
-8088.55
-8088.27
-8088.09
-8087.82
-8087.54
-8087.24
-8086.97
-8086.7
-8086.45
-8086.22
-8086
-8085.81
-8085.63
-8085.48
-8085.34
-8085.22
-8085.13
-8085.05
-8084.99
-8084.96
-8084.95
-8084.96
-8084.99
-8085.04
-8085.12
-8085.22
-8085.33
-8085.47
-8085.62
-8085.79
-8085.98
-8086.18
-8086.4
-8086.62
-8086.85
-8087.08
-8087.32
-8087.56
-8087.79
-8088.02
-8088.24
-8088.44
-8088.63
-8088.8
-8088.95
-8089.08
-8089.19
-8089.27
-8089.32
-8089.34
-8089.33
-8089.29
-8089.22
-8089.13
-8089.01
-8088.86
-8088.69
-8088.51
-8088.31
-8088.1
-8087.88
-8087.66
-8087.45
-8087.24
-8087.04
-8086.86
-8086.71
-8086.58
-8086.47
-8086.4
-8086.36
-8086.36
-8086.39
-8086.45
-8086.54
-8086.66
-8086.81
-8086.98
-8087.16
-8087.35
-8087.54
-8087.73
-8087.91
-8088.07
-8088.22
-8088.33
-8088.42
-8088.47
-8088.49
-8088.48
-8088.44
-8088.37
-8088.27
-8088.16
-8088.03
-8087.9
-8087.76
-8087.62
-8087.49
-8087.38
-8087.28
-8087.2
-8087.13
-8087.09
-8087.07
-8087.07
-8087.09
-8087.12
-8087.17
-8087.23
-8087.29
-8087.36
-8087.44
-8087.51
-8087.58
-8087.64
-8087.7
-8087.75
-8087.79
-8087.83
-8087.85
-8087.86
-8087.87
-8087.87
-8087.85
-8087.84
-8087.81
-8087.79
-8087.75
-8087.72
-8087.69
-8087.65
-8087.62
-8087.59
-8087.56
-8087.53
-8087.51
-8087.49
-8087.47
-8087.46
-8087.45
-8087.45
-8087.44
-8087.45
-8087.45
-8087.46
-8087.47
-8087.48
-8087.5
-8087.51
-8087.53
-8087.54
-8087.55
-8087.57
-8087.58
-8087.59
-8087.6
-8087.6
-8087.61
-8087.61
-8087.61
-8087.62
-8087.61
-8087.61
-8087.61
-8087.61
-8087.6
-8087.6
-8087.59
-8087.59
-8087.59
-8087.59
-8087.58
-8379.36
-8379.37
-8379.41
-8379.53
-8379.73
-8380.06
-8380.27
-8380.46
-8392.85
-8392.67
-8392.54
-8392.34
-8392.12
-8391.9
-8391.67
-8391.45
-8391.24
-8391.03
-8390.84
-8390.67
-8390.5
-8390.36
-8390.23
-8390.12
-8390.04
-8389.97
-8389.93
-8389.9
-8389.9
-8389.93
-8389.98
-8390.05
-8390.15
-8390.26
-8390.41
-8390.57
-8390.75
-8390.95
-8391.17
-8391.41
-8391.65
-8391.91
-8392.17
-8392.44
-8392.72
-8392.99
-8393.25
-8393.51
-8393.76
-8393.99
-8394.21
-8394.4
-8394.57
-8394.72
-8394.83
-8394.92
-8394.97
-8394.99
-8394.98
-8394.93
-8394.85
-8394.74
-8394.6
-8394.43
-8394.24
-8394.03
-8393.8
-8393.56
-8393.31
-8393.06
-8392.82
-8392.58
-8392.36
-8392.16
-8391.99
-8391.84
-8391.73
-8391.65
-8391.61
-8391.61
-8391.64
-8391.72
-8391.83
-8391.97
-8392.14
-8392.33
-8392.54
-8392.75
-8392.97
-8393.19
-8393.39
-8393.57
-8393.73
-8393.86
-8393.96
-8394.01
-8394.03
-8394.02
-8393.96
-8393.88
-8393.77
-8393.64
-8393.5
-8393.34
-8393.19
-8393.03
-8392.89
-8392.76
-8392.65
-8392.57
-8392.5
-8392.46
-8392.44
-8392.44
-8392.46
-8392.5
-8392.55
-8392.62
-8392.69
-8392.77
-8392.85
-8392.93
-8393.01
-8393.08
-8393.14
-8393.2
-8393.24
-8393.27
-8393.3
-8393.31
-8393.32
-8393.31
-8393.3
-8393.28
-8393.25
-8393.22
-8393.19
-8393.15
-8393.11
-8393.08
-8393.04
-8393.01
-8392.98
-8392.95
-8392.92
-8392.9
-8392.89
-8392.87
-8392.87
-8392.86
-8392.86
-8392.87
-8392.87
-8392.88
-8392.89
-8392.91
-8392.92
-8392.94
-8392.95
-8392.97
-8392.98
-8392.99
-8393
-8393.01
-8393.02
-8393.03
-8393.04
-8393.04
-8393.04
-8393.04
-8393.04
-8393.04
-8393.04
-8393.03
-8393.03
-8393.02
-8393.02
-8393.01
-8393.01
-8393.01
-8393.01
-8647.38
-8647.43
-8647.51
-8647.59
-8647.65
-8647.6
-8647.6
-8647.65
-8662.45
-8662.35
-8662.26
-8662.13
-8661.96
-8661.78
-8661.6
-8661.4
-8661.22
-8661.03
-8660.86
-8660.69
-8660.54
-8660.4
-8660.29
-8660.19
-8660.11
-8660.05
-8660.01
-8660
-8660.01
-8660.05
-8660.12
-8660.21
-8660.32
-8660.47
-8660.63
-8660.82
-8661.03
-8661.26
-8661.51
-8661.78
-8662.06
-8662.35
-8662.65
-8662.95
-8663.26
-8663.57
-8663.86
-8664.15
-8664.43
-8664.69
-8664.93
-8665.15
-8665.34
-8665.5
-8665.62
-8665.72
-8665.77
-8665.79
-8665.78
-8665.72
-8665.63
-8665.5
-8665.34
-8665.15
-8664.93
-8664.69
-8664.43
-8664.16
-8663.89
-8663.61
-8663.33
-8663.07
-8662.82
-8662.6
-8662.41
-8662.24
-8662.12
-8662.04
-8661.99
-8661.99
-8662.04
-8662.13
-8662.25
-8662.41
-8662.61
-8662.82
-8663.06
-8663.3
-8663.55
-8663.79
-8664.01
-8664.22
-8664.39
-8664.53
-8664.63
-8664.69
-8664.71
-8664.69
-8664.63
-8664.53
-8664.41
-8664.26
-8664.1
-8663.93
-8663.75
-8663.59
-8663.43
-8663.29
-8663.17
-8663.08
-8663.01
-8662.96
-8662.95
-8662.95
-8662.98
-8663.02
-8663.08
-8663.16
-8663.24
-8663.32
-8663.41
-8663.5
-8663.58
-8663.65
-8663.72
-8663.78
-8663.83
-8663.86
-8663.88
-8663.9
-8663.9
-8663.89
-8663.88
-8663.86
-8663.83
-8663.8
-8663.76
-8663.72
-8663.68
-8663.64
-8663.6
-8663.57
-8663.54
-8663.51
-8663.48
-8663.46
-8663.44
-8663.43
-8663.42
-8663.42
-8663.42
-8663.42
-8663.43
-8663.44
-8663.45
-8663.47
-8663.48
-8663.5
-8663.51
-8663.53
-8663.54
-8663.56
-8663.57
-8663.58
-8663.59
-8663.6
-8663.6
-8663.61
-8663.61
-8663.61
-8663.61
-8663.6
-8663.6
-8663.6
-8663.59
-8663.59
-8663.58
-8663.58
-8663.58
-8663.57
-8663.57
-8884.19
-8884.2
-8884.22
-8884.24
-8884.25
-8884.26
-8884.26
-8884.28
-8901.4
-8901.34
-8901.26
-8901.15
-8901.02
-8900.87
-8900.71
-8900.54
-8900.37
-8900.2
-8900.03
-8899.87
-8899.73
-8899.6
-8899.49
-8899.39
-8899.32
-8899.27
-8899.24
-8899.24
-8899.26
-8899.31
-8899.39
-8899.5
-8899.64
-8899.8
-8899.99
-8900.2
-8900.44
-8900.7
-8900.98
-8901.28
-8901.59
-8901.92
-8902.25
-8902.59
-8902.93
-8903.27
-8903.6
-8903.92
-8904.22
-8904.51
-8904.77
-8905.01
-8905.22
-8905.39
-8905.53
-8905.63
-8905.69
-8905.71
-8905.69
-8905.62
-8905.52
-8905.37
-8905.19
-8904.98
-8904.74
-8904.47
-8904.18
-8903.88
-8903.57
-8903.26
-8902.96
-8902.67
-8902.4
-8902.16
-8901.94
-8901.77
-8901.63
-8901.54
-8901.5
-8901.5
-8901.56
-8901.66
-8901.8
-8901.98
-8902.19
-8902.44
-8902.7
-8902.97
-8903.24
-8903.51
-8903.75
-8903.98
-8904.17
-8904.32
-8904.43
-8904.49
-8904.51
-8904.48
-8904.41
-8904.3
-8904.16
-8903.99
-8903.81
-8903.62
-8903.44
-8903.25
-8903.08
-8902.93
-8902.81
-8902.71
-8902.63
-8902.59
-8902.57
-8902.58
-8902.61
-8902.67
-8902.73
-8902.81
-8902.9
-8903
-8903.09
-8903.18
-8903.27
-8903.35
-8903.42
-8903.48
-8903.53
-8903.56
-8903.59
-8903.6
-8903.6
-8903.59
-8903.58
-8903.55
-8903.52
-8903.49
-8903.45
-8903.41
-8903.37
-8903.32
-8903.29
-8903.25
-8903.21
-8903.18
-8903.16
-8903.14
-8903.12
-8903.11
-8903.1
-8903.1
-8903.1
-8903.1
-8903.11
-8903.12
-8903.13
-8903.15
-8903.16
-8903.18
-8903.2
-8903.21
-8903.23
-8903.24
-8903.26
-8903.27
-8903.28
-8903.28
-8903.29
-8903.29
-8903.29
-8903.29
-8903.29
-8903.29
-8903.28
-8903.28
-8903.28
-8903.27
-8903.27
-8903.26
-8903.26
-8903.26
-8903.25
-9093.95
-9093.95
-9093.96
-9093.97
-9093.98
-9093.99
-9094
-9094.01
-9113.15
-9113.11
-9113.03
-9112.94
-9112.83
-9112.69
-9112.54
-9112.38
-9112.22
-9112.05
-9111.89
-9111.74
-9111.6
-9111.47
-9111.36
-9111.27
-9111.2
-9111.16
-9111.13
-9111.14
-9111.18
-9111.24
-9111.34
-9111.46
-9111.61
-9111.8
-9112.01
-9112.25
-9112.51
-9112.8
-9113.11
-9113.44
-9113.78
-9114.14
-9114.51
-9114.88
-9115.25
-9115.62
-9115.98
-9116.33
-9116.66
-9116.98
-9117.26
-9117.52
-9117.74
-9117.93
-9118.08
-9118.19
-9118.25
-9118.27
-9118.24
-9118.16
-9118.04
-9117.88
-9117.68
-9117.45
-9117.18
-9116.89
-9116.57
-9116.24
-9115.9
-9115.57
-9115.24
-9114.92
-9114.63
-9114.36
-9114.13
-9113.94
-9113.79
-9113.7
-9113.66
-9113.66
-9113.72
-9113.84
-9113.99
-9114.2
-9114.43
-9114.7
-9114.98
-9115.28
-9115.58
-9115.87
-9116.14
-9116.38
-9116.59
-9116.75
-9116.87
-9116.93
-9116.95
-9116.91
-9116.83
-9116.71
-9116.55
-9116.37
-9116.17
-9115.97
-9115.76
-9115.56
-9115.38
-9115.22
-9115.09
-9114.98
-9114.91
-9114.86
-9114.85
-9114.86
-9114.9
-9114.96
-9115.03
-9115.12
-9115.21
-9115.31
-9115.41
-9115.51
-9115.6
-9115.69
-9115.76
-9115.82
-9115.87
-9115.91
-9115.94
-9115.95
-9115.95
-9115.94
-9115.92
-9115.89
-9115.86
-9115.82
-9115.78
-9115.74
-9115.7
-9115.65
-9115.61
-9115.57
-9115.54
-9115.51
-9115.48
-9115.46
-9115.44
-9115.43
-9115.42
-9115.42
-9115.42
-9115.42
-9115.43
-9115.44
-9115.46
-9115.47
-9115.49
-9115.51
-9115.52
-9115.54
-9115.56
-9115.57
-9115.58
-9115.6
-9115.6
-9115.61
-9115.62
-9115.62
-9115.62
-9115.62
-9115.62
-9115.62
-9115.61
-9115.61
-9115.6
-9115.6
-9115.59
-9115.59
-9115.58
-9115.58
-9115.58
-9279.75
-9279.75
-9279.76
-9279.76
-9279.77
-9279.78
-9279.78
-9279.79
-9300.77
-9300.74
-9300.67
-9300.58
-9300.47
-9300.34
-9300.2
-9300.05
-9299.88
-9299.72
-9299.56
-9299.41
-9299.27
-9299.14
-9299.03
-9298.95
-9298.88
-9298.84
-9298.82
-9298.84
-9298.88
-9298.96
-9299.06
-9299.2
-9299.37
-9299.58
-9299.81
-9300.07
-9300.36
-9300.68
-9301.02
-9301.37
-9301.75
-9302.14
-9302.53
-9302.94
-9303.34
-9303.74
-9304.13
-9304.51
-9304.87
-9305.2
-9305.51
-9305.79
-9306.03
-9306.23
-9306.39
-9306.5
-9306.56
-9306.58
-9306.55
-9306.46
-9306.33
-9306.15
-9305.93
-9305.68
-9305.38
-9305.06
-9304.72
-9304.36
-9304
-9303.63
-9303.28
-9302.93
-9302.62
-9302.33
-9302.08
-9301.88
-9301.73
-9301.63
-9301.58
-9301.59
-9301.66
-9301.79
-9301.96
-9302.18
-9302.44
-9302.73
-9303.04
-9303.36
-9303.69
-9304
-9304.29
-9304.55
-9304.77
-9304.95
-9305.07
-9305.13
-9305.15
-9305.1
-9305.01
-9304.87
-9304.7
-9304.51
-9304.29
-9304.07
-9303.85
-9303.64
-9303.45
-9303.28
-9303.14
-9303.03
-9302.95
-9302.9
-9302.89
-9302.91
-9302.95
-9303.01
-9303.09
-9303.19
-9303.29
-9303.4
-9303.5
-9303.61
-9303.7
-9303.79
-9303.87
-9303.93
-9303.98
-9304.02
-9304.05
-9304.06
-9304.06
-9304.05
-9304.03
-9304
-9303.96
-9303.92
-9303.88
-9303.83
-9303.79
-9303.74
-9303.7
-9303.66
-9303.63
-9303.59
-9303.57
-9303.54
-9303.53
-9303.51
-9303.51
-9303.5
-9303.51
-9303.51
-9303.52
-9303.53
-9303.55
-9303.56
-9303.58
-9303.6
-9303.62
-9303.63
-9303.65
-9303.66
-9303.68
-9303.69
-9303.7
-9303.71
-9303.71
-9303.71
-9303.72
-9303.72
-9303.71
-9303.71
-9303.71
-9303.7
-9303.7
-9303.69
-9303.68
-9303.68
-9303.68
-9303.67
-9303.67
-9444.34
-9444.34
-9444.34
-9444.35
-9444.35
-9444.36
-9444.36
-9444.37
-9467.01
-9466.98
-9466.91
-9466.83
-9466.72
-9466.59
-9466.45
-9466.29