/*--------------------------------*- C++ -*----------------------------------*\
  =========                 |
  \\      /  F ield         | OpenFOAM: The Open Source CFD Toolbox
   \\    /   O peration     | Website:  https://openfoam.org
    \\  /    A nd           | Version:  12
     \\/     M anipulation  |
\*---------------------------------------------------------------------------*/
FoamFile
{
    format      ascii;
    class       volScalarField;
    location    "5";
    object      p_rgh;
}
// * * * * * * * * * * * * * * * * * * * * * * * * * * * * * * * * * * * * * //

dimensions      [1 -1 -2 0 0 0 0];

internalField   nonuniform List<scalar> 
3829
(
-2.14267
-2.142
-2.14063
-2.13853
-2.13567
-2.13201
-2.1275
-2.12209
-2.11574
-2.10838
-2.09997
-2.09045
-2.07976
-2.06782
-2.05459
-2.03998
-2.02394
-2.0064
-1.9873
-1.9666
-1.94424
-1.92019
-1.89443
-1.86693
-1.83771
-1.80678
-1.77415
-1.73989
-1.70404
-1.66669
-1.62792
-1.58783
-1.54655
-1.50419
-1.4609
-1.41682
-1.3721
-1.32691
-1.28142
-1.23582
-1.19028
-1.14499
-1.10013
-1.05586
-1.01236
-0.970308
-0.929564
-0.890253
-0.852503
-0.816433
-0.782146
-0.74973
-0.719256
-0.690777
-0.664329
-0.639931
-0.617592
-0.597296
-0.579017
-0.5627
-0.548271
-0.535632
-0.524663
-0.515224
-0.507151
-0.500269
-0.494385
-0.489295
-0.484785
-0.480635
-0.476623
-0.472525
-0.468122
-0.463199
-0.45757
-0.451053
-0.443485
-0.434729
-0.424679
-0.413258
-0.400426
-0.386208
-0.370562
-0.35362
-0.335505
-0.316365
-0.296385
-0.275779
-0.2546
-0.233525
-0.212657
-0.1923
-0.172778
-0.154403
-0.137483
-0.122303
-0.109116
-0.098136
-0.0895216
-0.0833846
-0.080085
-0.0794219
-0.0812633
-0.0854613
-0.0918257
-0.100092
-0.109937
-0.120981
-0.132799
-0.144943
-0.156935
-0.168312
-0.17862
-0.187436
-0.194388
-0.199167
-0.201545
-0.201387
-0.198417
-0.192843
-0.184811
-0.174528
-0.162293
-0.148476
-0.133511
-0.117824
-0.102086
-0.0867288
-0.0722606
-0.059154
-0.0478352
-0.0386621
-0.031913
-0.0277806
-0.0263513
-0.0276852
-0.0316381
-0.038039
-0.046631
-0.0570843
-0.069012
-0.0819851
-0.0955531
-0.109255
-0.122637
-0.135269
-0.146759
-0.156761
-0.164987
-0.171215
-0.175292
-0.177137
-0.176736
-0.174153
-0.169507
-0.162977
-0.154793
-0.14522
-0.134557
-0.123119
-0.111233
-0.0992238
-0.0874046
-0.07607
-0.0654882
-0.055893
-0.047479
-0.0404012
-0.0347686
-0.0306448
-0.0280491
-0.026958
-0.027308
-0.0289997
-0.0319014
-0.0358557
-0.040685
-0.0461986
-0.0522127
-0.0584979
-0.064881
-0.0711792
-0.0772255
-0.0828749
-0.0880067
-0.0925273
-0.0963713
-0.0995037
-0.101919
-0.10364
-0.104714
-0.105214
-0.10523
-0.104871
-0.104249
-0.103485
-0.102694
-0.101986
-0.101452
-0.101164
-2.20591
-2.20542
-2.20442
-2.20288
-2.20075
-2.19798
-2.19452
-2.19029
-2.1852
-2.17917
-2.17209
-2.16386
-2.15439
-2.14357
-2.13128
-2.11741
-2.10182
-2.0844
-2.06504
-2.04365
-2.02014
-1.99445
-1.96653
-1.93636
-1.90394
-1.86929
-1.83246
-1.79354
-1.75262
-1.70982
-1.66528
-1.61916
-1.5716
-1.52277
-1.47288
-1.42216
-1.37082
-1.31911
-1.26726
-1.2155
-1.16406
-1.11316
-1.06302
-1.01383
-0.965731
-0.919841
-0.875809
-0.833756
-0.793814
-0.756102
-0.720722
-0.687758
-0.657275
-0.629319
-0.603919
-0.581079
-0.56079
-0.543012
-0.527681
-0.514702
-0.503952
-0.495284
-0.488525
-0.483475
-0.479917
-0.477616
-0.47632
-0.475761
-0.475666
-0.475755
-0.475745
-0.475366
-0.474399
-0.472485
-0.469439
-0.465045
-0.459116
-0.451497
-0.442073
-0.430788
-0.417644
-0.402333
-0.385236
-0.366429
-0.346046
-0.324283
-0.301388
-0.277652
-0.253376
-0.228981
-0.204823
-0.181292
-0.158793
-0.137718
-0.11845
-0.101341
-0.0867
-0.0747971
-0.0658257
-0.0599501
-0.057335
-0.057863
-0.0614236
-0.0678428
-0.0768586
-0.088122
-0.101213
-0.115654
-0.130914
-0.146438
-0.16164
-0.175957
-0.188843
-0.199792
-0.20837
-0.214222
-0.217076
-0.216751
-0.213208
-0.206549
-0.196939
-0.18467
-0.170142
-0.15383
-0.136269
-0.117915
-0.0996764
-0.0820021
-0.0654818
-0.0506544
-0.0379954
-0.027895
-0.0206452
-0.0164379
-0.0153687
-0.0173592
-0.0223067
-0.0299702
-0.0400245
-0.0520726
-0.0656606
-0.0802966
-0.0954711
-0.110671
-0.125396
-0.139187
-0.151623
-0.162344
-0.171055
-0.177538
-0.181647
-0.183321
-0.182573
-0.179486
-0.174213
-0.166963
-0.157996
-0.147608
-0.136126
-0.123891
-0.111253
-0.098556
-0.0861271
-0.0742733
-0.0632698
-0.0533546
-0.044722
-0.037524
-0.0318646
-0.0277985
-0.0253364
-0.0244433
-0.025044
-0.0270265
-0.0302469
-0.0345357
-0.0397034
-0.0455485
-0.0518754
-0.0584507
-0.0650925
-0.0716123
-0.07784
-0.0836281
-0.088856
-0.0934304
-0.0972884
-0.100398
-0.102759
-0.104397
-0.105367
-0.105747
-0.105634
-0.105142
-0.104391
-0.103507
-0.102612
-0.10182
-0.101227
-0.100908
-2.30156
-2.30165
-2.30182
-2.30203
-2.30221
-2.3023
-2.30218
-2.3017
-2.30071
-2.29901
-2.29638
-2.2926
-2.28744
-2.28066
-2.27201
-2.26124
-2.24808
-2.2323
-2.21368
-2.19203
-2.16719
-2.13903
-2.10747
-2.07246
-2.03401
-1.99217
-1.94705
-1.89879
-1.84759
-1.79368
-1.73733
-1.67883
-1.61849
-1.55664
-1.49362
-1.42981
-1.36556
-1.30124
-1.23723
-1.17387
-1.11152
-1.05053
-0.991217
-0.933952
-0.879071
-0.82559
-0.775157
-0.727862
-0.683828
-0.64316
-0.605946
-0.572252
-0.542122
-0.515576
-0.49261
-0.47319
-0.457251
-0.444683
-0.435336
-0.429024
-0.425531
-0.424612
-0.425992
-0.429366
-0.434413
-0.440789
-0.448131
-0.456063
-0.464197
-0.472148
-0.479463
-0.485906
-0.491048
-0.494545
-0.496087
-0.495393
-0.492228
-0.486394
-0.477745
-0.466181
-0.451662
-0.434413
-0.414435
-0.391881
-0.366996
-0.340097
-0.311557
-0.281806
-0.251314
-0.220595
-0.1902
-0.160669
-0.132562
-0.10642
-0.0827656
-0.0620727
-0.0447609
-0.0311982
-0.0216456
-0.0162363
-0.0150543
-0.0180186
-0.0249984
-0.0357363
-0.049834
-0.0667885
-0.0860051
-0.106816
-0.128495
-0.150302
-0.171421
-0.191119
-0.20868
-0.223456
-0.234893
-0.242558
-0.24613
-0.245432
-0.24059
-0.231666
-0.218938
-0.202862
-0.184003
-0.163025
-0.140667
-0.117486
-0.0947127
-0.072878
-0.0527153
-0.0348762
-0.01992
-0.00828377
-0.000280395
0.00391728
0.00427661
0.000931769
-0.00592173
-0.0159329
-0.0286616
-0.0435915
-0.0601498
-0.0777332
-0.0957302
-0.113541
-0.130583
-0.146352
-0.160385
-0.172295
-0.181784
-0.188639
-0.19274
-0.194057
-0.192647
-0.188642
-0.182244
-0.173719
-0.163377
-0.151568
-0.138669
-0.125064
-0.111139
-0.0972706
-0.0838115
-0.0710855
-0.0593802
-0.0489376
-0.0399521
-0.0325701
-0.0268841
-0.0229358
-0.0207173
-0.0201757
-0.0212152
-0.0237029
-0.0274733
-0.0323361
-0.0380825
-0.0444926
-0.0513498
-0.0584168
-0.0654945
-0.0723864
-0.0789168
-0.0849355
-0.0903209
-0.0949815
-0.098858
-0.101924
-0.104187
-0.105681
-0.10647
-0.106643
-0.106309
-0.105589
-0.104617
-0.103528
-0.102456
-0.101521
-0.100828
-0.100456
-2.38966
-2.39118
-2.39423
-2.39877
-2.40471
-2.41189
-2.4201
-2.42907
-2.43844
-2.4478
-2.45661
-2.46428
-2.47028
-2.47411
-2.47525
-2.47318
-2.46738
-2.45735
-2.44262
-2.42279
-2.39752
-2.36656
-2.32974
-2.28703
-2.23848
-2.18428
-2.12474
-2.06023
-1.99125
-1.91833
-1.84204
-1.76288
-1.68141
-1.59828
-1.51409
-1.42945
-1.34493
-1.26109
-1.17847
-1.09755
-1.0188
-0.942669
-0.86957
-0.799801
-0.73381
-0.671287
-0.614053
-0.561709
-0.514221
-0.471615
-0.433933
-0.401214
-0.373474
-0.350696
-0.332827
-0.319769
-0.311371
-0.307416
-0.30765
-0.311773
-0.319449
-0.330299
-0.343909
-0.359827
-0.377579
-0.396665
-0.416568
-0.436754
-0.456688
-0.475826
-0.493652
-0.509653
-0.523336
-0.534251
-0.541986
-0.546179
-0.546533
-0.542833
-0.534929
-0.522787
-0.505814
-0.484857
-0.459954
-0.431342
-0.399402
-0.364597
-0.327477
-0.288667
-0.248842
-0.208712
-0.169091
-0.130731
-0.09442
-0.0609172
-0.0309375
-0.00513214
0.0159408
0.0318167
0.0421275
0.0466405
0.0455359
0.0387735
0.0265696
0.00935466
-0.0122828
-0.0376128
-0.0657856
-0.0958566
-0.126811
-0.157589
-0.18714
-0.214433
-0.238517
-0.258553
-0.273825
-0.283808
-0.288145
-0.286639
-0.279552
-0.267037
-0.249579
-0.227851
-0.202669
-0.174958
-0.145721
-0.115939
-0.0868043
-0.0592303
-0.0341277
-0.0122875
0.00563563
0.0191505
0.0279498
0.0319075
0.0310676
0.025638
0.0159909
0.00262377
-0.0138614
-0.0327822
-0.0534054
-0.0749758
-0.0967493
-0.11801
-0.138089
-0.156411
-0.172468
-0.18585
-0.196256
-0.203492
-0.207472
-0.208211
-0.205842
-0.200549
-0.19261
-0.182359
-0.17018
-0.156492
-0.14173
-0.126337
-0.110748
-0.0953744
-0.0806005
-0.0667717
-0.0541886
-0.0430975
-0.0336906
-0.0261047
-0.0204168
-0.0166491
-0.0147711
-0.0147055
-0.0163296
-0.0194832
-0.0239734
-0.0295828
-0.0360773
-0.0432133
-0.0507568
-0.0584495
-0.0660803
-0.0734423
-0.0803528
-0.0866582
-0.0922364
-0.0969982
-0.10089
-0.103892
-0.106021
-0.107323
-0.107876
-0.107779
-0.107156
-0.106142
-0.104884
-0.103532
-0.102229
-0.10111
-0.100288
-0.0998495
-2.43146
-2.43578
-2.44448
-2.45752
-2.47477
-2.49604
-2.52101
-2.54918
-2.57974
-2.61176
-2.64425
-2.67615
-2.70615
-2.7329
-2.7551
-2.77154
-2.78116
-2.78301
-2.77631
-2.76043
-2.73492
-2.69948
-2.65397
-2.59845
-2.53322
-2.45877
-2.37587
-2.28546
-2.18856
-2.08601
-1.97876
-1.86799
-1.75488
-1.64049
-1.52582
-1.41179
-1.29924
-1.18897
-1.08168
-0.978006
-0.878534
-0.783785
-0.694199
-0.610273
-0.532258
-0.460885
-0.39676
-0.339305
-0.288607
-0.244755
-0.207808
-0.177777
-0.154619
-0.138237
-0.12848
-0.125108
-0.127819
-0.136254
-0.150012
-0.168642
-0.191641
-0.218461
-0.248513
-0.28116
-0.315732
-0.351542
-0.387879
-0.423837
-0.459009
-0.492499
-0.523603
-0.551639
-0.575959
-0.595977
-0.611165
-0.621065
-0.625298
-0.623546
-0.615604
-0.601081
-0.580822
-0.554576
-0.522663
-0.48555
-0.443814
-0.39813
-0.349292
-0.298192
-0.245787
-0.193096
-0.141193
-0.0911541
-0.0440534
-0.00091685
0.0372816
0.0696508
0.095448
0.114079
0.125119
0.128327
0.12384
0.111721
0.0923475
0.0663696
0.0346314
-0.00183057
-0.0418237
-0.0840381
-0.127076
-0.169481
-0.20984
-0.246769
-0.279024
-0.305513
-0.325345
-0.337887
-0.34277
-0.339781
-0.329308
-0.311752
-0.287856
-0.258589
-0.225103
-0.188672
-0.150653
-0.112437
-0.0753842
-0.0407568
-0.00968495
0.0168836
0.0381917
0.0537116
0.0631546
0.0664611
0.0638033
0.0555348
0.042212
0.0245332
0.00330572
-0.0205811
-0.0461938
-0.0725978
-0.098895
-0.124214
-0.147844
-0.1691
-0.187434
-0.202417
-0.213757
-0.221293
-0.224988
-0.224924
-0.221295
-0.214383
-0.204546
-0.192206
-0.177831
-0.161913
-0.144964
-0.127487
-0.109979
-0.0928792
-0.0766102
-0.061541
-0.0479829
-0.0361859
-0.0263367
-0.0185595
-0.0129121
-0.00938914
-0.00793631
-0.00844773
-0.0107694
-0.0147086
-0.020041
-0.0265187
-0.0338783
-0.0418503
-0.0501775
-0.0585833
-0.0668406
-0.074732
-0.0820672
-0.0886892
-0.0944762
-0.0993423
-0.103239
-0.106158
-0.108124
-0.109199
-0.109473
-0.109062
-0.108103
-0.106749
-0.105161
-0.103504
-0.101937
-0.100606
-0.0996355
-0.09912
-2.28397
-2.29413
-2.31455
-2.34511
-2.38542
-2.43472
-2.49196
-2.55567
-2.62444
-2.69649
-2.76996
-2.84282
-2.91321
-2.97916
-3.03877
-3.09028
-3.13203
-3.16244
-3.17999
-3.18315
-3.17042
-3.14043
-3.09217
-3.02532
-2.94032
-2.83828
-2.72089
-2.59019
-2.44859
-2.2989
-2.14384
-1.98566
-1.82635
-1.6676
-1.51089
-1.35747
-1.20847
-1.06482
-0.927335
-0.796683
-0.67345
-0.558093
-0.451046
-0.352392
-0.262181
-0.179931
-0.111796
-0.0522823
-0.00148389
0.0404234
0.0733367
0.0972405
0.112231
0.118506
0.116362
0.106171
0.0883764
0.0634808
0.0320538
-0.00527242
-0.0478109
-0.0948074
-0.145462
-0.198913
-0.254269
-0.310609
-0.366924
-0.422336
-0.475856
-0.526515
-0.573395
-0.615608
-0.652312
-0.682761
-0.706308
-0.722397
-0.730648
-0.730896
-0.723259
-0.70468
-0.678517
-0.644553
-0.603108
-0.554753
-0.500259
-0.44056
-0.376748
-0.310048
-0.241763
-0.173285
-0.106054
-0.0415234
0.0188728
0.0737843
0.121942
0.162198
0.193583
0.215339
0.22695
0.228058
0.21899
0.199863
0.171292
0.134192
0.0897386
0.0393602
-0.015319
-0.0725224
-0.130377
-0.186934
-0.240321
-0.288752
-0.330615
-0.364523
-0.389395
-0.404483
-0.409472
-0.404071
-0.38895
-0.364809
-0.332707
-0.293999
-0.25026
-0.203204
-0.154625
-0.106323
-0.0600044
-0.0172442
0.0205861
0.0523684
0.0772572
0.0947041
0.104464
0.10659
0.101427
0.0895236
0.0716592
0.0487753
0.0219241
-0.00776499
-0.0391312
-0.0710325
-0.102389
-0.132224
-0.15973
-0.184141
-0.204859
-0.221456
-0.233657
-0.241347
-0.244553
-0.243442
-0.238286
-0.229469
-0.217443
-0.202728
-0.185883
-0.167486
-0.148122
-0.128358
-0.108783
-0.0898203
-0.0719567
-0.0555797
-0.0410083
-0.0284944
-0.018216
-0.0102816
-0.0047269
-0.00150958
-0.000553973
-0.00172211
-0.00482572
-0.00963627
-0.0158953
-0.0233222
-0.0316224
-0.0404994
-0.0496659
-0.0588356
-0.0677595
-0.0762099
-0.08399
-0.0909401
-0.0969387
-0.101904
-0.105794
-0.10861
-0.110391
-0.111211
-0.111177
-0.110422
-0.109097
-0.107372
-0.105426
-0.103439
-0.101586
-0.100026
-0.0988951
-0.0982965
-1.97488
-1.99671
-2.04073
-2.10687
-2.19498
-2.30414
-2.43317
-2.57959
-2.7405
-2.91146
-3.08815
-3.26488
-3.43629
-3.59653
-3.74
-3.86181
-3.95787
-4.02491
-4.06056
-4.0634
-4.03298
-3.96976
-3.87493
-3.75006
-3.59721
-3.41886
-3.21838
-3.00144
-2.77476
-2.54482
-2.31469
-2.08682
-1.86346
-1.64646
-1.43724
-1.23692
-1.04638
-0.866263
-0.697142
-0.539422
-0.39353
-0.259776
-0.13834
-0.0296505
0.0658701
0.147536
0.223439
0.286707
0.337422
0.375812
0.40219
0.416894
0.420306
0.412883
0.395108
0.367514
0.330715
0.2854
0.232317
0.172297
0.106236
0.0351245
-0.039999
-0.118022
-0.197796
-0.278126
-0.357793
-0.435586
-0.510255
-0.580575
-0.645387
-0.703568
-0.754053
-0.795902
-0.828262
-0.850394
-0.861692
-0.861628
-0.849596
-0.829015
-0.796728
-0.753566
-0.700381
-0.638136
-0.567954
-0.491122
-0.409116
-0.323565
-0.236192
-0.148825
-0.063343
0.0183628
0.0944267
0.163101
0.222772
0.272001
0.309585
0.334584
0.346378
0.344727
0.329756
0.301911
0.262074
0.211488
0.151735
0.0847202
0.0125917
-0.0623089
-0.137557
-0.210598
-0.279049
-0.340622
-0.393295
-0.435349
-0.465477
-0.482806
-0.486904
-0.478352
-0.457334
-0.425022
-0.382937
-0.332928
-0.277086
-0.217646
-0.156904
-0.0971266
-0.040419
0.0113091
0.0564414
0.093693
0.122149
0.141273
0.150907
0.151253
0.142867
0.126544
0.10333
0.0744447
0.0412155
0.00503366
-0.032697
-0.070594
-0.107327
-0.141978
-0.173548
-0.201197
-0.224302
-0.242435
-0.255361
-0.263024
-0.265527
-0.263139
-0.25622
-0.245255
-0.230812
-0.213507
-0.194
-0.172957
-0.15104
-0.128889
-0.107129
-0.0862546
-0.0667628
-0.0490635
-0.0334845
-0.0202753
-0.00960213
-0.00155683
0.00384796
0.00670873
0.00710801
0.00522277
0.00127889
-0.00445934
-0.0116977
-0.0201212
-0.0294034
-0.0392187
-0.0492569
-0.0592095
-0.0688138
-0.0778314
-0.0860591
-0.0933352
-0.0995391
-0.104593
-0.108463
-0.11116
-0.112738
-0.113286
-0.112927
-0.111808
-0.110099
-0.107987
-0.105666
-0.103336
-0.101185
-0.0993875
-0.0980901
-0.0974054
-1.13424
-1.1728
-1.25046
-1.36854
-1.52744
-1.72386
-1.95803
-2.22109
-2.50779
-2.7997
-3.09486
-3.37417
-3.63755
-3.87813
-4.08951
-4.26776
-4.41148
-4.5201
-4.59308
-4.62931
-4.62692
-4.5833
-4.49582
-4.36175
-4.18055
-3.95182
-3.67946
-3.37189
-3.05124
-2.72954
-2.41466
-2.10926
-1.81609
-1.53644
-1.27148
-1.0223
-0.789704
-0.57409
-0.375492
-0.193875
-0.0289408
0.119667
0.252211
0.368855
0.469879
0.55563
0.628027
0.685851
0.729188
0.758191
0.773106
0.774291
0.762188
0.737303
0.700215
0.651593
0.592193
0.522866
0.444553
0.358293
0.26521
0.166536
0.0635667
-0.0423078
-0.149659
-0.256943
-0.36275
-0.465503
-0.563659
-0.655703
-0.740207
-0.815792
-0.881156
-0.935159
-0.976798
-1.00522
-1.0198
-1.0201
-1.00603
-0.978107
-0.936256
-0.881035
-0.81335
-0.734381
-0.64557
-0.548581
-0.445315
-0.337868
-0.228448
-0.119372
-0.0130104
0.0882446
0.18206
0.266252
0.338794
0.397913
0.442157
0.470428
0.482067
0.476536
0.454335
0.416108
0.363012
0.296689
0.219194
0.132995
0.0408563
-0.05424
-0.149166
-0.240779
-0.326047
-0.402138
-0.466567
-0.517276
-0.552739
-0.572025
-0.574823
-0.561587
-0.533153
-0.491035
-0.437249
-0.374198
-0.304578
-0.231213
-0.156953
-0.0845798
-0.0166333
0.0446441
0.0973817
0.140151
0.171994
0.19242
0.201404
0.199354
0.187044
0.165576
0.136299
0.100742
0.0605294
0.0173275
-0.0272232
-0.0715149
-0.113643
-0.153314
-0.189024
-0.219894
-0.245297
-0.264832
-0.27831
-0.285749
-0.287338
-0.283473
-0.27459
-0.261295
-0.244264
-0.224227
-0.201938
-0.178153
-0.153616
-0.129027
-0.105064
-0.0822685
-0.0611594
-0.042163
-0.0256115
-0.0117484
-0.000726254
0.00738111
0.0125729
0.0150422
0.0148399
0.0121962
0.00737554
0.000678956
-0.0075646
-0.0170051
-0.0272843
-0.0380482
-0.04896
-0.0596958
-0.0699757
-0.0795527
-0.0882185
-0.0958098
-0.102207
-0.107336
-0.111173
-0.11374
-0.115102
-0.115367
-0.114672
-0.113182
-0.111083
-0.108576
-0.105876
-0.103197
-0.100745
-0.0987072
-0.0972422
-0.0964708
0.209338
0.141343
0.00218973
-0.213003
-0.503854
-0.872127
-1.313
-1.80946
-2.35431
-2.8925
-3.42713
-3.95506
-4.48226
-5.0184
-5.48278
-5.86312
-6.1637
-6.38123
-6.51198
-6.55393
-6.50717
-6.37395
-6.15879
-5.86664
-5.50365
-5.07542
-4.5788
-4.00923
-3.43426
-2.937
-2.47151
-2.04271
-1.65069
-1.29448
-0.971638
-0.679054
-0.413784
-0.173426
0.0438682
0.239563
0.414813
0.570419
0.707016
0.825228
0.925539
1.00837
1.07467
1.12432
1.15723
1.17365
1.17395
1.15853
1.12786
1.0825
1.02313
0.950536
0.865603
0.769348
0.662899
0.547512
0.424538
0.295482
0.161924
0.0255467
-0.111905
-0.248617
-0.382782
-0.512535
-0.636003
-0.751356
-0.856873
-0.950898
-1.03188
-1.09846
-1.14947
-1.18392
-1.2011
-1.2006
-1.1823
-1.14641
-1.0934
-1.02406
-0.939543
-0.841353
-0.731298
-0.611463
-0.484221
-0.352182
-0.218086
-0.0848142
0.0446911
0.167514
0.280807
0.381905
0.468356
0.538019
0.589158
0.620468
0.631147
0.621095
0.590502
0.540343
0.472152
0.388036
0.290609
0.182965
0.0685696
-0.0488685
-0.165471
-0.277388
-0.3809
-0.472573
-0.549434
-0.609061
-0.649719
-0.670424
-0.670973
-0.651977
-0.614766
-0.561338
-0.49429
-0.416675
-0.331844
-0.243273
-0.154433
-0.0686413
0.0111257
0.082279
0.142708
0.19087
0.225789
0.247061
0.254831
0.249765
0.232904
0.20567
0.169743
0.126988
0.0793487
0.028775
-0.0228763
-0.0740341
-0.121036
-0.166029
-0.205847
-0.239826
-0.267375
-0.288136
-0.301982
-0.309006
-0.309489
-0.303981
-0.292981
-0.277222
-0.257499
-0.23465
-0.209525
-0.182966
-0.155795
-0.128781
-0.102642
-0.0779598
-0.0552782
-0.0350354
-0.0175662
-0.00310364
0.0082164
0.0163425
0.0212513
0.0233184
0.0224795
0.0190527
0.0133391
0.00567457
-0.00357711
-0.0140335
-0.0253034
-0.0370051
-0.0487767
-0.0602783
-0.0712156
-0.0813333
-0.0904193
-0.0983085
-0.104884
-0.110076
-0.113868
-0.116294
-0.117435
-0.117411
-0.116379
-0.114518
-0.112029
-0.10913
-0.106052
-0.103027
-0.100277
-0.098002
-0.0963714
-0.0955144
2.27863
2.20296
2.03097
1.76041
1.352
0.767273
-0.0632396
-1.07721
-2.96935
-4.11249
-5.03879
-5.84632
-6.50419
-6.97317
-7.34952
-7.64594
-7.85945
-7.99983
-8.08146
-8.11313
-8.08981
-7.99207
-7.79807
-7.47621
-7.00695
-6.46946
-5.67419
-4.20531
-3.40113
-2.74325
-2.17125
-1.67466
-1.241
-0.855516
-0.510738
-0.201933
0.0750261
0.323398
0.545776
0.744128
0.92005
1.07464
1.20877
1.32305
1.41789
1.4936
1.55046
1.58871
1.60844
1.60986
1.59325
1.559
1.50758
1.43961
1.35582
1.25708
1.14444
1.01907
0.882314
0.73562
0.580607
0.419053
0.252826
0.0839434
-0.0855084
-0.253425
-0.41761
-0.575854
-0.725943
-0.86571
-0.993123
-1.10623
-1.20322
-1.28251
-1.34274
-1.38279
-1.40185
-1.39948
-1.37559
-1.33045
-1.26472
-1.17945
-1.07611
-0.956569
-0.823038
-0.678078
-0.524599
-0.365758
-0.204871
-0.0454133
0.109076
0.255089
0.389208
0.508263
0.609366
0.690002
0.748143
0.782282
0.791541
0.775962
0.735787
0.672281
0.587383
0.483713
0.364492
0.233518
0.0950115
-0.0465235
-0.186395
-0.319968
-0.442796
-0.550801
-0.640497
-0.709087
-0.754633
-0.776124
-0.773502
-0.747688
-0.700456
-0.634398
-0.552757
-0.459316
-0.35814
-0.253398
-0.149214
-0.0494684
0.0424343
0.123555
0.191576
0.244864
0.282464
0.304081
0.310078
0.301453
0.279493
0.245979
0.202957
0.152635
0.0972893
0.0391674
-0.0195783
-0.0769463
-0.130462
-0.179996
-0.223678
-0.260575
-0.290083
-0.311876
-0.325905
-0.332351
-0.331624
-0.324286
-0.311056
-0.292756
-0.270292
-0.244607
-0.216645
-0.187333
-0.157567
-0.128185
-0.0999297
-0.0734278
-0.0492429
-0.0278235
-0.00950236
0.00549873
0.0170647
0.0251825
0.0299959
0.0314114
0.0299029
0.0256846
0.0190797
0.010456
0.000209961
-0.0112434
-0.0234813
-0.0360953
-0.0486986
-0.0609376
-0.0725041
-0.0831363
-0.0926188
-0.100786
-0.107523
-0.112765
-0.116503
-0.118782
-0.119698
-0.119387
-0.118022
-0.115796
-0.112925
-0.109643
-0.106196
-0.102833
-0.0997921
-0.0972865
-0.0954952
-0.0945553
5.26817
5.10098
4.77126
4.24842
3.57231
2.78959
1.9904
1.12024
-1.3928
-2.34488
-3.41409
-4.61542
-5.66848
-6.57793
-7.36361
-8.02981
-8.57461
-8.98725
-9.25043
-9.34841
-9.27711
-9.04342
-8.65635
-8.11732
-7.41754
-6.55252
-5.52824
-4.01251
-3.04523
-2.24119
-1.594
-1.07452
-0.626321
-0.241387
0.0940957
0.390483
0.654952
0.89192
1.1043
1.29398
1.46206
1.60921
1.73584
1.84216
1.92823
1.99408
2.03971
2.06511
2.07029
2.05536
2.02054
1.96615
1.89267
1.80075
1.69117
1.56492
1.42315
1.26724
1.09871
0.919248
0.730739
0.535251
0.334966
0.132227
-0.0704844
-0.270774
-0.466039
-0.653717
-0.831225
-0.996041
-1.14582
-1.2783
-1.3914
-1.4833
-1.55245
-1.59758
-1.61781
-1.61264
-1.58203
-1.52638
-1.44655
-1.34384
-1.22005
-1.07744
-0.918689
-0.746846
-0.565372
-0.378029
-0.188744
-0.00162276
0.17917
0.349506
0.505387
0.643114
0.759335
0.851144
0.916235
0.952928
0.960317
0.938294
0.887502
0.809469
0.70655
0.581916
0.439444
0.283677
0.119647
-0.0472924
-0.211587
-0.367769
-0.510621
-0.635395
-0.738069
-0.815482
-0.865498
-0.887113
-0.880477
-0.846852
-0.788528
-0.708743
-0.611465
-0.501233
-0.382885
-0.261327
-0.141373
-0.0274001
0.0767027
0.167686
0.243048
0.301091
0.340919
0.362405
0.366105
0.353445
0.325946
0.285778
0.235362
0.177261
0.114077
0.0483533
-0.0174841
-0.0812013
-0.140616
-0.194765
-0.242128
-0.281737
-0.312999
-0.335631
-0.349667
-0.355385
-0.353314
-0.344072
-0.328553
-0.307686
-0.282483
-0.253988
-0.223237
-0.191233
-0.158945
-0.127289
-0.0970031
-0.0687692
-0.0431667
-0.0206508
-0.00155011
0.0139272
0.025686
0.0337395
0.0382166
0.0391808
0.0370159
0.0320152
0.0245351
0.0149754
0.00376293
-0.00865496
-0.0218258
-0.0353153
-0.0487133
-0.0616527
-0.0738142
-0.0849297
-0.0947819
-0.103206
-0.110087
-0.115367
-0.119043
-0.121173
-0.121865
-0.121273
-0.119583
-0.117004
-0.113764
-0.110112
-0.106309
-0.102621
-0.0993007
-0.0965738
-0.0946287
-0.0936092
8.89261
8.87712
8.86003
8.85249
8.8349
8.73393
8.54839
8.2492
-1.05636
-0.782515
-0.597881
-0.325544
-0.0437092
0.250233
0.525369
0.790552
1.04035
1.273
1.48701
1.68205
1.85793
2.01451
2.15153
2.26864
2.36547
2.44161
2.49667
2.53033
2.5423
2.53243
2.50067
2.44712
2.37206
2.27595
2.15944
2.0234
1.86892
1.6973
1.51006
1.30896
1.09594
0.873132
0.642929
0.407834
0.170542
-0.066137
-0.299382
-0.526246
-0.743778
-0.949025
-1.13911
-1.31135
-1.46318
-1.59222
-1.69645
-1.7741
-1.82377
-1.84447
-1.83569
-1.79743
-1.73025
-1.6352
-1.51388
-1.36843
-1.20151
-1.01627
-0.8163
-0.605625
-0.388635
-0.169887
0.0458582
0.253782
0.449124
0.62729
0.784045
0.915557
1.01854
1.09039
1.12927
1.13421
1.10514
1.04294
0.949483
0.827574
0.68096
0.51421
0.332639
0.142137
-0.0510665
-0.240508
-0.419845
-0.583083
-0.724764
-0.840346
-0.926287
-0.98028
-1.00136
-0.989955
-0.947677
-0.877403
-0.783053
-0.669383
-0.541716
-0.405695
-0.266959
-0.131125
-0.00291135
0.113258
0.213829
0.296156
0.358529
0.400128
0.42103
0.422078
0.404922
0.371543
0.324476
0.26651
0.200556
0.12954
0.05629
-0.0165345
-0.0864615
-0.15141
-0.210014
-0.260844
-0.302944
-0.335751
-0.359039
-0.372927
-0.377791
-0.374265
-0.363099
-0.345281
-0.321863
-0.293965
-0.262726
-0.22927
-0.194672
-0.15996
-0.126151
-0.0939372
-0.0640722
-0.0371479
-0.013621
0.00618524
0.0220783
0.0339827
0.0419357
0.0460796
0.0465662
0.0437571
0.0379936
0.0296662
0.0192041
0.00706436
-0.00627572
-0.020336
-0.0346565
-0.0488055
-0.0624035
-0.0751215
-0.0866868
-0.0968806
-0.105538
-0.112549
-0.117856
-0.121465
-0.123445
-0.123918
-0.123053
-0.121051
-0.118135
-0.114543
-0.110538
-0.106395
-0.102398
-0.0988117
-0.0958747
-0.0937838
-0.0926892
13.5553
13.5441
13.5012
13.3898
13.1833
12.8534
12.6457
12.4596
0.0625804
0.248152
0.377169
0.573198
0.794999
1.01999
1.24441
1.46512
1.67829
1.88148
2.07264
2.24998
2.41194
2.55706
2.6841
2.79194
2.87958
2.94609
2.99067
3.01263
3.01145
2.98673
2.93829
2.86611
2.77042
2.65166
2.51052
2.34793
2.16506
1.9634
1.74466
1.51079
1.26398
1.00667
0.741555
0.47147
0.199472
-0.0712752
-0.337553
-0.596033
-0.843385
-1.07627
-1.29146
-1.48592
-1.6568
-1.80143
-1.91754
-2.00322
-2.05688
-2.07745
-2.06434
-2.01768
-1.93819
-1.82714
-1.68641
-1.5185
-1.32649
-1.11401
-0.885184
-0.644637
-0.397387
-0.148639
0.0961829
0.331595
0.552199
0.752793
0.928613
1.07534
1.18931
1.26764
1.30833
1.31036
1.27373
1.19956
1.09007
0.948552
0.77934
0.587707
0.379774
0.162303
-0.0575864
-0.272477
-0.475148
-0.658802
-0.817277
-0.945503
-1.03957
-1.09701
-1.11692
-1.10011
-1.04853
-0.965666
-0.856192
-0.725661
-0.580227
-0.426343
-0.270362
-0.118777
0.0234753
0.151383
0.261145
0.349983
0.416219
0.459142
0.479054
0.477166
0.455159
0.415697
0.361619
0.296076
0.222331
0.143608
0.0630024
-0.0166105
-0.0924738
-0.162644
-0.225461
-0.279514
-0.323874
-0.358023
-0.381801
-0.395412
-0.399329
-0.394301
-0.381197
-0.361104
-0.335191
-0.304675
-0.270792
-0.234743
-0.197671
-0.160651
-0.124834
-0.0908005
-0.0594148
-0.031268
-0.0068178
0.0136226
0.0298745
0.0418834
0.04971
0.0535203
0.0535239
0.0500878
0.0435898
0.0344511
0.0231289
0.0101082
-0.00410505
-0.0190054
-0.0341072
-0.0489597
-0.0631716
-0.076406
-0.0883863
-0.0988935
-0.107764
-0.114888
-0.120213
-0.123753
-0.125584
-0.125846
-0.12472
-0.122421
-0.119185
-0.115261
-0.110921
-0.106458
-0.102168
-0.0983322
-0.0951978
-0.0929703
-0.0918049
16.1031
16.0519
15.97
15.8877
15.8351
15.879
15.8844
15.8282
1.02825
1.1335
1.218
1.35393
1.5184
1.69871
1.88575
2.07613
2.26487
2.44847
2.62386
2.78845
2.93992
3.07614
3.1952
3.29541
3.37521
3.43327
3.46838
3.47954
3.46597
3.42709
3.36255
3.27227
3.15641
3.01542
2.85001
2.6612
2.45028
2.21889
1.96893
1.70258
1.42229
1.13078
0.831057
0.526311
0.219953
-0.0844908
-0.383407
-0.673086
-0.949815
-1.20988
-1.44967
-1.66585
-1.85525
-2.01492
-2.14238
-2.23554
-2.2927
-2.31264
-2.29462
-2.23898
-2.14665
-2.01914
-1.85858
-1.66783
-1.45038
-1.21038
-0.952462
-0.681867
-0.404246
-0.125448
0.148439
0.411263
0.656994
0.879827
1.07446
1.23612
1.36075
1.44521
1.48734
1.48608
1.44153
1.35505
1.22922
1.0678
0.875752
0.659043
0.424615
0.180097
-0.0664823
-0.306742
-0.532588
-0.736404
-0.911342
-1.05179
-1.1535
-1.21387
-1.23203
-1.20933
-1.14795
-1.0521
-0.92721
-0.779638
-0.616397
-0.444745
-0.271797
-0.104614
0.0512068
0.190375
0.308829
0.403684
0.473309
0.517137
0.535692
0.530467
0.503563
0.457954
0.396877
0.323854
0.242478
0.156269
0.068568
-0.0175654
-0.0990135
-0.174105
-0.240851
-0.297869
-0.344261
-0.379561
-0.403682
-0.416911
-0.419821
-0.413274
-0.398253
-0.37594
-0.347614
-0.314586
-0.278181
-0.239673
-0.200266
-0.161056
-0.1234
-0.0876537
-0.0548612
-0.0255932
-0.000305132
0.0207006
0.0372604
0.0493391
0.0570217
0.0604994
0.0600271
0.0559875
0.0487892
0.0388813
0.0267467
0.0128969
-0.00213702
-0.0178233
-0.0336546
-0.0491611
-0.063941
-0.0776511
-0.0900119
-0.100805
-0.109867
-0.117091
-0.122427
-0.125895
-0.127583
-0.127642
-0.126268
-0.123691
-0.120154
-0.115918
-0.111266
-0.106502
-0.101938
-0.0978682
-0.0945498
-0.092195
-0.0909639
18.9727
18.9593
18.939
18.9211
18.9139
18.9027
18.8997
18.882
1.76546
1.82828
1.9081
2.00993
2.14274
2.29385
2.45599
2.6256
2.79766
2.96807
3.1331
3.28946
3.43417
3.56454
3.67815
3.77282
3.84658
3.8977
3.92467
3.9262
3.90127
3.84914
3.76936
3.66176
3.52648
3.36397
3.17499
2.96064
2.72235
2.46192
2.18143
1.8833
1.57025
1.24526
0.911687
0.573035
0.233093
-0.104271
-0.435042
-0.755138
-1.06046
-1.34692
-1.61057
-1.84773
-2.05493
-2.22896
-2.36715
-2.46724
-2.52744
-2.54643
-2.52297
-2.45796
-2.35254
-2.2084
-2.02792
-1.81432
-1.57151
-1.30411
-1.01732
-0.716947
-0.40928
-0.100812
0.201719
0.491506
0.761891
1.00648
1.21945
1.39557
1.53042
1.62062
1.66384
1.65901
1.60633
1.50741
1.36518
1.18391
0.969126
0.727523
0.466844
0.195584
-0.077334
-0.34255
-0.591115
-0.814598
-1.00547
-1.15761
-1.26645
-1.32924
-1.34509
-1.31622
-1.24475
-1.13573
-0.995365
-0.830832
-0.649996
-0.460907
-0.271408
-0.0891391
0.0797147
0.229575
0.356162
0.456518
0.529076
0.573428
0.590343
0.581601
0.549719
0.49799
0.430029
0.349715
0.26096
0.167565
0.0731024
-0.0192466
-0.105881
-0.185592
-0.255968
-0.315686
-0.363891
-0.400167
-0.424506
-0.437273
-0.439144
-0.43109
-0.414197
-0.389746
-0.35911
-0.323694
-0.284906
-0.244088
-0.2025
-0.161289
-0.121836
-0.0845452
-0.0504637
-0.0201738
0.00587103
0.027378
0.0442
0.0563203
0.0638473
0.0669974
0.066064
0.0614499
0.0535895
0.0429584
0.0300628
0.0154386
-0.000360874
-0.0167782
-0.0332856
-0.0493962
-0.0646986
-0.0788444
-0.091552
-0.102604
-0.111839
-0.11915
-0.124491
-0.127888
-0.129438
-0.129305
-0.127697
-0.124859
-0.121043
-0.116517
-0.111573
-0.10653
-0.101711
-0.0974243
-0.0939354
-0.0914628
-0.0901709
21.5439
21.5384
21.5297
21.5195
21.5107
21.5004
21.4946
21.4828
2.34406
2.385
2.45883
2.54861
2.66603
2.8028
2.95237
3.11114
3.27441
3.43796
3.59776
3.75011
3.89159
4.01905
4.12967
4.22088
4.29038
4.33613
4.35634
4.34948
4.31429
4.24993
4.15587
4.03189
3.87811
3.695
3.48338
3.24445
2.97974
2.69124
2.38124
2.05238
1.70762
1.35025
0.983903
0.612446
0.240049
-0.129129
-0.49066
-0.840087
-1.17295
-1.4848
-1.77132
-2.02855
-2.25271
-2.44033
-2.58855
-2.69498
-2.75784
-2.77587
-2.74636
-2.67175
-2.55323
-2.39257
-2.19241
-1.95627
-1.68852
-1.39424
-1.07915
-0.749651
-0.412641
-0.075244
0.255171
0.571158
0.865447
1.13108
1.36171
1.55169
1.69625
1.79176
1.83577
1.82718
1.76629
1.65498
1.49655
1.29573
1.05863
0.792625
0.506269
0.208903
-0.0897048
-0.379181
-0.649762
-0.892222
-1.09837
-1.26158
-1.377
-1.44179
-1.45483
-1.41965
-1.33795
-1.21577
-1.0601
-0.878929
-0.680924
-0.474923
-0.269463
-0.0727619
0.108478
0.268395
0.402523
0.507865
0.582927
0.627479
0.642544
0.630184
0.593331
0.535595
0.460947
0.37361
0.277796
0.17757
0.0767352
-0.021377
-0.113019
-0.196935
-0.270631
-0.332792
-0.382603
-0.419702
-0.444151
-0.456406
-0.457223
-0.447697
-0.429002
-0.402509
-0.369683
-0.33202
-0.290999