/*--------------------------------*- C++ -*----------------------------------*\
  =========                 |
  \\      /  F ield         | OpenFOAM: The Open Source CFD Toolbox
   \\    /   O peration     | Website:  https://openfoam.org
    \\  /    A nd           | Version:  12
     \\/     M anipulation  |
\*---------------------------------------------------------------------------*/
FoamFile
{
    format      ascii;
    class       surfaceScalarField;
    location    "5";
    object      phi;
}
// * * * * * * * * * * * * * * * * * * * * * * * * * * * * * * * * * * * * * //

dimensions      [1 0 -1 0 0 0 0];

internalField   nonuniform List<scalar> 
7429
(
7.81978e-05
-7.81977e-05
0.000157597
-7.93988e-05
0.000238019
-8.04218e-05
0.000319541
-8.15226e-05
0.000402247
-8.27052e-05
0.000486242
-8.39955e-05
0.000571651
-8.54083e-05
0.000658628
-8.69775e-05
0.000747344
-8.87158e-05
0.000837906
-9.0562e-05
0.000930202
-9.22952e-05
0.00102412
-9.39181e-05
0.00111958
-9.54598e-05
0.00121642
-9.68356e-05
0.00131456
-9.81423e-05
0.00141388
-9.93221e-05
0.00151428
-0.000100398
0.00161561
-0.000101328
0.00171769
-0.000102086
0.00182039
-0.000102694
0.00192346
-0.000103078
0.00202671
-0.000103241
0.00212987
-0.000103162
0.00223268
-0.000102809
0.00233486
-0.000102181
0.00243607
-0.000101213
0.00253599
-9.99177e-05
0.00263423
-9.82385e-05
0.00273039
-9.61678e-05
0.00282406
-9.3663e-05
0.00291479
-9.07283e-05
0.00300206
-8.72708e-05
0.00308536
-8.33049e-05
0.00316414
-7.87788e-05
0.00323788
-7.37414e-05
0.00330638
-6.84938e-05
0.00336932
-6.294e-05
0.00342637
-5.70529e-05
0.0034771
-5.07302e-05
0.00352107
-4.39667e-05
0.00355777
-3.67042e-05
0.0035867
-2.89273e-05
0.00360741
-2.07156e-05
0.0036195
-1.20856e-05
0.00362213
-2.63417e-06
0.00361273
9.4078e-06
0.00359187
2.08541e-05
0.00355937
3.2497e-05
0.00351507
4.43073e-05
0.00345882
5.62461e-05
0.00339062
6.82001e-05
0.00331051
8.01078e-05
0.00321869
9.18215e-05
0.00311542
0.000103272
0.00300111
0.000114313
0.00287616
0.000124942
0.00274126
0.000134909
0.00259686
0.000144391
0.00244383
0.000153038
0.00228288
0.000160943
0.00211516
0.000167718
0.00194173
0.000173432
0.00176398
0.000177751
0.00158316
0.000180821
0.00140088
0.000182283
0.00121863
0.000182246
0.00103813
0.000180503
0.000861048
0.000177081
0.000689139
0.000171909
0.000524149
0.00016499
0.000367716
0.000156433
0.00022153
0.000146187
8.7249e-05
0.000134281
-3.3798e-05
0.000121047
-0.0001403
0.000106502
-0.000231137
9.08376e-05
-0.000305394
7.42569e-05
-0.000362328
5.69335e-05
-0.000401606
3.92786e-05
-0.000423076
2.14699e-05
-0.000427211
4.13456e-06
-0.000412213
-1.49979e-05
-0.000380418
-3.17946e-05
-0.00033322
-4.71982e-05
-0.000271981
-6.12389e-05
-0.000198287
-7.36942e-05
-0.000114223
-8.40637e-05
-2.189e-05
-9.23335e-05
7.62785e-05
-9.81685e-05
0.0001777
-0.000101421
0.000279639
-0.000101939
0.000379288
-9.96494e-05
0.000473876
-9.45875e-05
0.000560745
-8.68696e-05
0.000637314
-7.65683e-05
0.000701315
-6.40017e-05
0.000750732
-4.94164e-05
0.000783978
-3.32461e-05
0.000799815
-1.58368e-05
0.000796142
3.67241e-06
0.000772845
2.32976e-05
0.000731131
4.17134e-05
0.00067222
5.89111e-05
0.00059747
7.47502e-05
0.000508705
8.87649e-05
0.000408352
0.000100353
0.000299224
0.000109128
0.00018452
0.000114704
6.77328e-05
0.000116787
-4.75433e-05
0.000115276
-0.00015764
0.000110097
-0.000258996
0.000101355
-0.00034832
8.93246e-05
-0.000422635
7.43151e-05
-0.000479513
5.68778e-05
-0.000517111
3.75977e-05
-0.000534265
1.71543e-05
-0.000529088
-5.1773e-06
-0.00050224
-2.68483e-05
-0.00045547
-4.677e-05
-0.000390368
-6.51014e-05
-0.000309228
-8.11401e-05
-0.000214896
-9.43321e-05
-0.000110621
-0.000104275
-2.22207e-07
-0.000110398
0.000112461
-0.000112684
0.000223496
-0.000111035
0.000329029
-0.000105533
0.000425474
-9.64456e-05
0.000509654
-8.418e-05
0.000578856
-6.92012e-05
0.000630988
-5.21323e-05
0.000664629
-3.36406e-05
0.000679233
-1.46043e-05
0.00067392
5.31326e-06
0.000649979
2.39409e-05
0.000608779
4.11995e-05
0.000552112
5.66676e-05
0.000482271
6.98411e-05
0.000401979
8.02917e-05
0.000314173
8.78058e-05
0.000221982
9.21909e-05
0.00012852
9.34627e-05
3.68506e-05
9.16691e-05
-5.01684e-05
8.7019e-05
-0.000129994
7.98252e-05
-0.000200392
7.03989e-05
-0.000259556
5.91632e-05
-0.000306134
4.65788e-05
-0.000339305
3.31704e-05
-0.000358584
1.92795e-05
-0.000364116
5.5319e-06
-0.000356356
-7.76003e-06
-0.000336279
-2.0077e-05
-0.0003051
-3.11791e-05
-0.000264373
-4.07268e-05
-0.00021587
-4.85034e-05
-0.000161553
-5.43166e-05
-0.000103393
-5.81606e-05
-4.34471e-05
-5.99455e-05
1.62783e-05
-5.97254e-05
7.39086e-05
-5.76303e-05
0.000127667
-5.37581e-05
0.000176014
-4.83471e-05
0.000217607
-4.15932e-05
0.000251381
-3.37741e-05
0.000276537
-2.5156e-05
0.000292528
-1.59908e-05
0.000299129
-6.60148e-06
0.000296356
2.77389e-06
0.000284499
1.1857e-05
0.000264072
2.04271e-05
0.000235806
2.82657e-05
0.000200612
3.51942e-05
0.000159541
4.10707e-05
0.000113772
4.57687e-05
6.45541e-05
4.92182e-05
1.31794e-05
5.13747e-05
-3.90483e-05
5.22277e-05
-9.08463e-05
5.1798e-05
-0.000140974
5.01281e-05
-0.00018828
4.73056e-05
-0.000231679
4.33985e-05
-0.000270245
3.85662e-05
-0.00030314
3.28949e-05
-0.000329695
2.65555e-05
-0.000349385
1.96899e-05
-0.000361836
1.2451e-05
-0.000366821
4.98534e-06
-0.000364274
-2.54699e-06
-0.000354255
-1.00193e-05
-0.000336979
-1.72756e-05
-0.000312753
-2.42267e-05
-0.00028206
-3.06929e-05
-0.000245451
-3.66084e-05
-0.000203599
-4.18525e-05
-0.000157233
-4.63658e-05
-0.000107214
-5.00188e-05
-5.44663e-05
-5.27479e-05
-5.44663e-05
7.33044e-05
-0.000151502
0.00014778
-0.000153874
0.000223157
-0.000155799
0.000299527
-0.000157892
0.0003769
-0.000160078
0.000455296
-0.000162391
0.000534729
-0.000164841
0.000615218
-0.000167466
0.000696831
-0.000170328
0.000779744
-0.000173475
0.00086437
-0.000176921
0.00095121
-0.000180758
0.00104036
-0.000184608
0.00113159
-0.000188067
0.00122462
-0.000191177
0.00131924
-0.000193935
0.00141519
-0.000196347
0.00151232
-0.000198461
0.00161048
-0.00020025
0.00170947
-0.00020168
0.00180914
-0.000202746
0.0019093
-0.0002034
0.00200974
-0.000203603
0.0021102
-0.000203267
0.00221039
-0.00020237
0.00230993
-0.00020076
0.00240847
-0.000198451
0.00250548
-0.000195246
0.00260042
-0.000191115
0.00269272
-0.000185959
0.00278174
-0.000179755
0.00286716
-0.000172688
0.00294901
-0.000165149
0.00302732
-0.000157097
0.00310203
-0.000148448
0.0031725
-0.000138968
0.00323819
-0.000128628
0.00329844
-0.000117298
0.00335261
-0.000104906
0.0034001
-9.14575e-05
0.00344032
-7.692e-05
0.00347265
-6.1255e-05
0.00349642
-4.44844e-05
0.00351123
-2.69007e-05
0.00351693
-8.32898e-06
0.00350896
1.73762e-05
0.00348869
4.11206e-05
0.00345611
6.50784e-05
0.00341112
8.92972e-05
0.00335366
0.000113706
0.0032837
0.000138159
0.00320133
0.000162477
0.00310673
0.000186425
0.00300012
0.000209879
0.00288181
0.000232625
0.00275222
0.000254533
0.00261195
0.000275177
0.00246155
0.000294795
0.00230192
0.000312662
0.0021339
0.000328964
0.00195871
0.000342914
0.00177766
0.000354482
0.00159206
0.000363344
0.00140361
0.000369272
0.00121386
0.000372039
0.0010246
0.000371505
0.000837531
0.000367571
0.000654618
0.000359994
0.000477737
0.00034879
0.000308803
0.000333924
0.000149563
0.000315673
1.83528e-06
0.000293914
-0.000132685
0.000268801
-0.000252524
0.000240886
-0.00035625
0.000210227
-0.000442579
0.000177167
-0.000510675
0.000142353
-0.000559934
0.000106192
-0.000589864
6.92085e-05
-0.000600704
3.23094e-05
-0.00059033
-6.23951e-06
-0.00056178
-4.35477e-05
-0.000515604
-7.79708e-05
-0.00045301
-0.000109792
-0.000375478
-0.00013877
-0.00028497
-0.000164203
-0.000183687
-0.000185346
-7.42686e-05
-0.000201752
4.06568e-05
-0.000213094
0.000158116
-0.000218881
0.000275124
-0.000218947
0.000388614
-0.000213139
0.000495568
-0.000201542
0.00059306
-0.000184362
0.000678416
-0.000161924
0.000749138
-0.000134724
0.000803047
-0.000103325
0.000838593
-6.87919e-05
0.000854118
-3.13613e-05
0.000848185
9.60483e-06
0.00082133
5.01533e-05
0.000774435
8.86082e-05
0.000708617
0.000124729
0.000625449
0.000157919
0.000527209
0.000187005
0.000416657
0.000210904
0.000297062
0.000228724
0.000171969
0.000239797
4.52884e-05
0.000243468
-7.90226e-05
0.000239587
-0.000196998
0.000228073
-0.000304814
0.000209171
-0.000398979
0.000183489
-0.000476382
0.000151719
-0.000534538
0.000115034
-0.000571366
7.44252e-05
-0.000585829
3.16178e-05
-0.000576781
-1.42256e-05
-0.000545522
-5.81077e-05
-0.000493278
-9.90134e-05
-0.000421963
-0.000136417
-0.00033418
-0.000168923
-0.000233221
-0.000195291
-0.000122912
-0.000214585
-7.10764e-06
-0.000226202
0.000110018
-0.000229809
0.000224365
-0.000225382
0.000331949
-0.000213116
0.000429183
-0.00019368
0.000512951
-0.000167948
0.000580614
-0.000136864
0.000630334
-0.000101853
0.000660796
-6.41018e-05
0.000671432
-2.52409e-05
0.000662514
1.42312e-05
0.000635129
5.13264e-05
0.000590681
8.56478e-05
0.000531271
0.000116077
0.000459402
0.00014171
0.000377912
0.000161782
0.00028985
0.000175868
0.000198333
0.000183707
0.00010646
0.000185336
1.72049e-05
0.000180924
-6.6727e-05
0.000170951
-0.000142924
0.000156022
-0.000209348
0.000136823
-0.000264365
0.00011418
-0.000306866
8.90802e-05
-0.000336098
6.24015e-05
-0.00035194
3.51216e-05
-0.000354532
8.12432e-06
-0.00034457
-1.77225e-05
-0.000322977
-4.16699e-05
-0.00029109
-6.30655e-05
-0.000250486
-8.13316e-05
-0.000202886
-9.61031e-05
-0.000150113
-0.00010709
-9.419e-05
-0.000114083
-3.69782e-05
-0.000117157
1.96248e-05
-0.000116328
7.38707e-05
-0.000111876
0.000124164
-0.000104051
0.000169073
-9.32567e-05
0.000207437
-7.99563e-05
0.000238298
-6.46354e-05
0.00026096
-4.78186e-05
0.000275027
-3.00574e-05
0.000280311
-1.18856e-05
0.000276911
6.17428e-06
0.000265122
2.36456e-05
0.000245493
4.00561e-05
0.00021872
5.50385e-05
0.000185681
6.82331e-05
0.000147372
7.93799e-05
0.000104884
8.82568e-05
5.93919e-05
9.47102e-05
1.20804e-05
9.86862e-05
-3.58692e-05
0.000100177
-8.32785e-05
9.92073e-05
-0.000129026
9.58752e-05
-0.000172086
9.03661e-05
-0.000211473
8.27857e-05
-0.000246377
7.34703e-05
-0.00027605
6.25672e-05
-0.000299921
5.04271e-05
-0.00031751
3.72781e-05
-0.000328505
2.34468e-05
-0.000332729
9.20895e-06
-0.000330123
-5.15274e-06
-0.000320809
-1.93337e-05
-0.000304922
-3.31627e-05
-0.000282837
-4.63113e-05
-0.000254934
-5.85956e-05
-0.000221741
-6.98018e-05
-0.000183868
-7.97255e-05
-0.00014194
-8.82934e-05
-9.67686e-05
-9.51907e-05
-4.91482e-05
-0.000100368
-0.000103615
6.25092e-05
-0.000214011
0.000125691
-0.000217055
0.000189621
-0.000219729
0.000254253
-0.000222524
0.000319662
-0.000225487
0.00038593
-0.00022866
0.000453176
-0.000232087
0.000521579
-0.000235869
0.00059131
-0.000240059
0.000662725
-0.00024489
0.000736109
-0.000250305
0.000811947
-0.000256596
0.000890733
-0.000263394
0.000972254
-0.000269587
0.0010562
-0.000275121
0.00114234
-0.000280075
0.00123058
-0.000284585
0.00132083
-0.000288716
0.00141302
-0.000292435
0.00150702
-0.000295684
0.00160269
-0.000298412
0.00169987
-0.000300584
0.00179843
-0.000302166
0.00189811
-0.000302944
0.00199871
-0.00030297
0.00209989
-0.000301943
0.00220131
-0.000299864
0.00230271
-0.000296647
0.00240373
-0.000292134
0.00250415
-0.000286375
0.00260326
-0.000278865
0.00270058
-0.000270013
0.00279521
-0.000259781
0.00288687
-0.000248753
0.0029753
-0.000236878
0.00306005
-0.000223723
0.00314055
-0.000209128
0.00321602
-0.000192766
0.00328565
-0.000174535
0.00334858
-0.000154384
0.00340384
-0.000132183
0.0034506
-0.000108017
0.00348738
-8.12659e-05
0.00351397
-5.34841e-05
0.00352732
-2.16865e-05
0.00352908
1.56186e-05
0.00351712
5.30834e-05
0.00349104
9.1154e-05
0.00345044
0.000129898
0.00339508
0.000169074
0.00332484
0.000208393
0.00323972
0.000247602
0.00313981
0.00028633
0.00302509
0.000324602
0.00289602
0.00036169
0.00275306
0.000397494
0.00259681
0.000431432
0.00242825
0.000463353
0.00224844
0.000492472
0.00205868
0.000518724
0.00186046
0.000541133
0.00165539
0.00055955
0.0014452
0.000573536
0.00123202
0.000582451
0.00101763
0.000586428
0.000804401
0.000584735
0.000594303
0.000577668
0.000389688
0.000564609
0.000192854
0.000545624
6.07288e-06
0.000520704
-0.000168569
0.000490315
-0.000328715
0.00045406
-0.000472515
0.000412602
-0.000598118
0.000366489
-0.000704006
0.000316115
-0.000788735
0.000261897
-0.000851318
0.000204935
-0.000891071
0.000145945
-0.000907635
8.57728e-05
-0.000901567
2.62417e-05
-0.000870642
-3.7165e-05
-0.000818729
-9.54601e-05
-0.000746264
-0.000150436
-0.000654742
-0.000201314
-0.000546267
-0.000247245
-0.000423411
-0.000287059
-0.000288882
-0.000319875
-0.00014581
-0.000344824
2.40162e-06
-0.000361306
0.000152196
-0.000368675
0.000299965
-0.000366717
0.000442037
-0.000355211
0.000574687
-0.000334191
0.000694428
-0.000304103
0.000798133
-0.000265629
0.000882916
-0.000219507
0.000946074
-0.000166483
0.00098617
-0.000108888
0.00100229
-4.74837e-05
0.000991514
2.03832e-05
0.000955934
8.57335e-05
0.000896307
0.000148235
0.000813906
0.000207129
0.000710935
0.000260889
0.000590397
0.000307543
0.000455885
0.000345417
0.000311445
0.000373163
0.000161542
0.0003897
1.08506e-05
0.000394159
-0.000135805
0.000386243
-0.000273693
0.00036596
-0.000398263
0.000333741
-0.000505603
0.000290829
-0.000592159
0.000238275
-0.000655228
0.000178102
-0.000692711
0.000111908
-0.000703687
4.25944e-05
-0.000687546
-3.03666e-05
-0.000646147
-9.95074e-05
-0.000580828
-0.000164332
-0.00049425
-0.000222995
-0.00038998
-0.000273192
-0.000271998
-0.000313273
-0.000144661
-0.000341922
-1.28253e-05
-0.000358038
0.000118743
-0.000361378
0.000245451
-0.000352091
0.000362914
-0.000330579
0.000467336
-0.000298101
0.000555446
-0.000256058
0.000624678
-0.000206096
0.000673207
-0.000150382
0.000700193
-9.10874e-05
0.000705588
-3.06361e-05
0.000690139
2.96802e-05
0.000655099
8.63657e-05
0.000602473
0.000138274
0.000534794
0.000183756
0.000455021
0.000221482
0.00036636
0.000250444
0.000272183
0.000270044
0.000175773
0.000280117
8.03729e-05
0.000280737
-1.10002e-05
0.000272297
-9.56193e-05
0.00025557
-0.000171272
0.000231675
-0.000235973
0.000201523
-0.000288354
0.000166561
-0.000327493
0.000128219
-0.000352879
8.77877e-05
-0.000364595
4.68381e-05
-0.000363066
6.59523e-06
-0.000349152
-3.16364e-05
-0.000324
-6.68224e-05
-0.000289063
-9.80024e-05
-0.000246011
-0.000124384
-0.000196625
-0.000145489
-0.000142839
-0.000160876
-8.65696e-05
-0.000170352
-2.96744e-05
-0.000174052
2.59946e-05
-0.000171997
7.88256e-05
-0.000164707
0.000127291
-0.000152516
0.000170139
-0.000136105
0.000206285
-0.000116103
0.000234939
-9.32892e-05
0.000255527
-6.84062e-05
0.000267699
-4.22301e-05
0.000271458
-1.5644e-05
0.000266937
1.06952e-05
0.00025452
3.60623e-05
0.000234772
5.98044e-05
0.000208412
8.13985e-05
0.00017631
0.000100335
0.00013945
0.00011624
9.89025e-05
0.000128804
5.5743e-05
0.00013787
1.10947e-05
0.000143335
-3.38646e-05
0.000145137
-7.81213e-05
0.000143464
-0.000120656
0.00013841
-0.000160497
0.000130208
-0.000196791
0.000119079
-0.00022879
0.000105469
-0.000255849
8.96258e-05
-0.000277463
7.20421e-05
-0.000293239
5.30531e-05
-0.000302903
3.31118e-05
-0.000306346
1.26513e-05
-0.000303554
-7.94487e-06
-0.000294568
-2.83196e-05
-0.000279685
-4.8046e-05
-0.000259158
-6.68382e-05
-0.0002334
-8.43535e-05
-0.000202843
-0.000100358
-0.00016805
-0.000114518
-0.000129683
-0.000126661
-8.83732e-05
-0.0001365
-4.48796e-05
-0.000143862
-0.000148494
6.005e-05
-0.000274061
0.000120884
-0.000277889
0.000182802
-0.000281647
0.00024599
-0.000285712
0.000310558
-0.000290055
0.000376604
-0.000294705
0.000444061
-0.000299543
0.000512915
-0.000304723
0.000583128
-0.000310272
0.000655376
-0.000317138
0.000731067
-0.000325996
0.000810202
-0.00033573
0.000890422
-0.000343614
0.000970666
-0.000349831
0.00105073
-0.000355183
0.00113098
-0.000360328
0.00121191
-0.000365509
0.00129406
-0.000370869
0.00137809
-0.000376464
0.00146468
-0.000382274
0.00155438
-0.000388115
0.00164772
-0.000393928
0.00174504
-0.000399482
0.00184646
-0.000404362
0.0019518
-0.000408316
0.00206076
-0.000410898
0.00217247
-0.000411569
0.00228597
-0.000410151
0.00239945
-0.000405618
0.00251156
-0.000398482
0.00262126
-0.000388558
0.0027299
-0.000378655
0.00283847
-0.000368349
0.00294638
-0.000356663
0.00305258
-0.000343084
0.00315595
-0.000327094
0.00325518
-0.000308355
0.0033491
-0.000286689
0.00343649
-0.000261925
0.00351604
-0.000233928
0.00358653
-0.000202677
0.00364622
-0.00016771
0.00369535
-0.00013039
0.00373008
-8.82203e-05
0.00375382
-4.54178e-05
0.00375965
9.78546e-06
0.00374753
6.5204e-05
0.00371828
0.000120402
0.00367188
0.000176297
0.00360822
0.000232738
0.00352706
0.000289553
0.00342826
0.000346403
0.00331172
0.000402862
0.00317783
0.000458501
0.00302677
0.00051275
0.00285877
0.000565488
0.00267504
0.000615164
0.0024766
0.000661791
0.00226499
0.000704081
0.00204155
0.000742171
0.00180843
0.00077425
0.00156739
0.000800586
0.00132086
0.000820072
0.00107123
0.000832073
0.000820959
0.000836703
0.000572605
0.000833089
0.000329034
0.00082124
9.29489e-05
0.000800694
-0.000132753
0.000771326
-0.000345253
0.000733204
-0.000542002
0.000687063
-0.000720405
0.000632464
-0.000878079
0.000570275
-0.0010131
0.000501506
-0.00112342
0.000426436
-0.00120757
0.000346045
-0.00126486
0.000262225
-0.00129391
0.000174997
-0.00129503
8.68934e-05
-0.00126505
-3.73802e-06
-0.00120951
-9.27021e-05
-0.00112797
-0.000177
-0.00102195
-0.000256452
-0.000893451
-0.000329818
-0.000745296
-0.000395401
-0.000580547
-0.000451807
-0.000403005
-0.000497418
-0.000216501
-0.000531328
-2.52643e-05
-0.000552542
0.000166291
-0.000560231
0.000353572
-0.000553997
0.000532066
-0.000533705
0.000697185
-0.00049931
0.000845028
-0.000451946
0.000971748
-0.000392349
0.00107399
-0.00032175
0.00114876
-0.000241257
0.00119351
-0.000153629
0.00120727
-6.12488e-05
0.00118952
3.81349e-05
0.00114119
0.000134066
0.00106315
0.000226268
0.000957422
0.000312861
0.000827105
0.000391207
0.000676045
0.000458602
0.000508935
0.000512527
0.00033091
0.000551188
0.00014755
0.00057306
-3.5192e-05
0.000576902
-0.000211486
0.000562537
-0.000375749
0.000530224
-0.000522356
0.000480348
-0.000646948
0.000415421
-0.000745002
0.00033633
-0.000813987
0.000247087
-0.000851643
0.000149564
-0.00085699
4.79413e-05
-0.000830907
-5.645e-05
-0.000774959
-0.000155455
-0.000691383
-0.000247908
-0.000583927
-0.000330451
-0.000457044
-0.000400075
-0.000315762
-0.000454556
-0.000165621
-0.000492063
-1.23196e-05
-0.000511339
0.000138543
-0.00051224
0.000281703
-0.000495251
0.000412285
-0.00046116
0.000526149
-0.000411965
0.000619947
-0.000349857
0.000691144
-0.000277293
0.000738375
-0.000197613
0.000761076
-0.000113788
0.000759463
-2.90232e-05
0.000735206
5.39369e-05
0.000689922
0.000131651
0.000626331
0.000201864
0.000547544
0.000262543
0.000457037
0.00031199
0.000358485
0.000348995
0.000255569
0.00037296
0.000152005
0.000383682
5.10923e-05
0.000381649
-4.4044e-05
0.000367433
-0.000130756
0.000342282
-0.000206771
0.00030769
-0.00027043
0.000265183
-0.000320488
0.000216619
-0.000356244
0.000163975
-0.000377562
0.000109105
-0.000384716
5.39928e-05
-0.000378453
3.31921e-07
-0.000359848
-5.02411e-05
-0.00033024
-9.64307e-05
-0.000291272
-0.000136971
-0.000244746
-0.000170909
-0.000192574
-0.000197661
-0.000136703
-0.000216748
-7.91318e-05
-0.000227923
-2.16329e-05
-0.000231551
3.39569e-05
-0.000227587
8.61333e-05
-0.000216884
0.000133434
-0.000199818
0.000174746
-0.000177417
0.000209095
-0.000150451
0.000235824
-0.000120018
0.000254466
-8.70484e-05
0.000264836
-5.26001e-05
0.000266966
-1.77736e-05
0.000261138
1.65225e-05
0.000247759
4.94418e-05
0.000227479
8.00846e-05
0.000201053
0.000107824
0.000169364
0.000132024
0.000133374
0.00015223
9.4127e-05
0.000168051
5.26604e-05
0.000179336
1.0093e-05
0.000185902
-3.25941e-05
0.000187824
-7.43498e-05
0.00018522
-0.000114264
0.000178324
-0.000151447
0.00016739
-0.000185158
0.00015279
-0.000214682
0.000134994
-0.000239493
0.000114437
-0.000259124
9.16737e-05
-0.000273286
6.72146e-05
-0.000281753
4.15788e-05
-0.000284433
1.53318e-05
-0.000281338
-1.10399e-05
-0.000272641
-3.70167e-05
-0.000258475
-6.22121e-05
-0.000239183
-8.61306e-05
-0.000215155
-0.000108381
-0.000186806
-0.000128707
-0.00015466
-0.000146664
-0.000119261
-0.00016206
-8.12331e-05
-0.000174529
-4.12465e-05
-0.000183849
-0.000189741
5.51077e-05
-0.000329168
0.000109457
-0.000332238
0.000163505
-0.000335695
0.000216867
-0.000339074
0.000269628
-0.000342815
0.000322496
-0.000347573
0.000376825
-0.000353872
0.000434309
-0.000362207
0.00049158
-0.000367543
0.000547499
-0.000373056
0.000600477
-0.000378974
0.000650569
-0.000385822
0.00070083
-0.000393875
0.000753968
-0.000402969
0.000811807
-0.000413022
0.00087526
-0.000423781
0.000944753
-0.000435002
0.00102026
-0.000446372
0.00110158
-0.000457787
0.00118837
-0.00046906
0.00128025
-0.000479998
0.00137706
-0.000490738
0.00147859
-0.000501015
0.00158505
-0.000510819
0.00169601
-0.000519277
0.00181097
-0.000525854
0.00192828
-0.00052888
0.00204558
-0.000527456
0.0021614
-0.000521437
0.00228017
-0.000517248
0.00240525
-0.000513646
0.00253606
-0.000509464
0.00267049
-0.000502779
0.00280706
-0.000493233
0.00294398
-0.000479997
0.00307956
-0.000462682
0.00321206
-0.000440848
0.00333977
-0.000414399
0.00346073
-0.000382887
0.00357304
-0.000346243
0.00367489
-0.000304519
0.00376466
-0.000257479
0.00383892
-0.000204651
0.0038988
-0.000148102
0.00393682
-8.34452e-05
0.00396037
-1.37576e-05
0.00396259
6.29792e-05
0.00394396
0.00013903
0.00390377
0.000216487
0.00384166
0.000294854
0.0037571
0.000374108
0.00365
0.00045351
0.0035201
0.000532756
0.00336778
0.000610822
0.00319383
0.000686701
0.00299917
0.000760152
0.00278555
0.000828781
0.00255393
0.000893408
0.0023063
0.00095171
0.00204488
0.00100359
0.00177193
0.0010472
0.00148999
0.00108253
0.00120208
0.00110798
0.000910713
0.00112344
0.000619398
0.00112802
0.00033129
0.0011212
4.97028e-05
0.00110283
-0.000221958
0.00107235
-0.000480217
0.00102959
-0.000721836
0.000974823
-0.000943725
0.000908952
-0.0011428
0.000831541
-0.0013162
0.000743669
-0.00146153
0.000646842
-0.00157664
0.000541548
-0.00165987
0.00042927
-0.00170952
0.000311878
-0.00172633
0.000191807
-0.00170813
6.869e-05
-0.00165511
-5.6761e-05
-0.00157068
-0.000177123
-0.00145521
-0.000292469
-0.0013107
-0.000400964
-0.00114015
-0.000500373
-0.000946933
-0.000588616
-0.00073501
-0.00066373
-0.000509073
-0.000723355
-0.000273966
-0.000766434
-3.4956e-05
-0.000791553
0.00020268
-0.000797866
0.000433492
-0.00078481
0.000651914
-0.000752126
0.000852596
-0.000699992
0.0010305
-0.000629854
0.00118095
-0.000542792
0.00130045
-0.000441251
0.00138605
-0.000326862
0.00143515
-0.000202721
0.00144633
-7.24345e-05
0.00141813
6.63398e-05
0.00135303
0.000199162
0.00125212
0.000327181
0.00111835
0.000446629
0.000955681
0.000553876
0.000769053
0.00064523
0.000564314
0.000717267
0.000347865
0.000767636
0.000126561
0.000794363
-9.24357e-05
0.000795899
-0.000301942
0.000772043
-0.000494994
0.000723276
-0.000665469
0.000650823
-0.000807959
0.000557911
-0.000917676
0.000446047
-0.0009917
0.000321111
-0.00102794
0.000185799
-0.00102558
4.55893e-05
-0.00098671
-9.53229e-05
-0.000912848
-0.000229317
-0.000807596
-0.00035316
-0.000675679
-0.000462368
-0.000522832
-0.000552922
-0.000355413
-0.000621974
-0.000179915
-0.000667561
-3.0916e-06
-0.000688163
0.000168585
-0.000683917
0.000329085
-0.000655751
0.00047315
-0.000605225
0.000596273
-0.000535088
0.000695208
-0.000448792
0.000767571
-0.000349657
0.000812214
-0.000242256
0.000829058
-0.000130632
0.000819062
-1.90274e-05
0.000784412
8.85865e-05
0.000727472
0.000188591
0.000651594
0.000277742
0.000560525
0.000353612
0.000458348
0.000414167
0.000349206
0.000458137
0.000237213
0.000484953
0.000126155
0.00049474
1.96204e-05
0.000488184
-7.92459e-05
0.000466299
-0.000167857
0.000430893
-0.000244125
0.000383958
-0.000306464
0.000327522
-0.00035395
0.000264105
-0.000386186
0.000196211
-0.000403054
0.000125974
-0.000405412
5.63514e-05
-0.000394222
-1.08587e-05
-0.000370682
-7.37804e-05
-0.000336482
-0.000130632
-0.000293375
-0.000180077
-0.000243291
-0.000220993
-0.000188256
-0.000252697
-0.00013025
-0.000274754
-7.12568e-05
-0.000286916
-1.31196e-05
-0.000289689
4.25274e-05
-0.000283234
9.41151e-05
-0.000268471
0.000140343
-0.000246045
0.000180186
-0.000217259
0.000212831
-0.000183096
0.000237704
-0.000144891
0.000254464
-0.000103809
0.000263041
-6.11763e-05
0.000263568
-1.83013e-05
0.0002564
2.36912e-05
0.000242055
6.37862e-05
0.000221158
0.000100982
0.000194556
0.000134426
0.000163124
0.000163456
0.000127827
0.000187527
8.96798e-05
0.000206199
4.96946e-05
0.000219322
8.89487e-06
0.000226702
-3.17809e-05
0.000228499
-7.13216e-05
0.00022476
-0.00010891
0.000215912
-0.000143718
0.000202199
-0.000175087
0.000184159
-0.000202382
0.000162288
-0.000225181
0.000137236
-0.000243044
0.000109537
-0.000255729
7.99e-05
-0.000263097
4.89466e-05
-0.000265065
1.72998e-05
-0.000261705
-1.44e-05
-0.000253155
-4.55673e-05
-0.000239652
-7.57152e-05
-0.000221468
-0.000104314
-0.000198975
-0.000130874
-0.000172581
-0.000155101
-0.000142751
-0.000176495
-0.000110003
-0.000194808
-7.48887e-05
-0.000209643
-3.80101e-05
-0.000220727
-0.000227751
3.76727e-05
-0.000366841
7.61531e-05
-0.000370719
0.000118737
-0.000378278
0.000167688
-0.000388025
0.000224596
-0.000399723
0.000291705
-0.000414682
0.000365813
-0.00042798
0.000453596
-0.000449989
0.00054583
-0.000459778
0.000646645
-0.000473871
0.000744349
-0.000476678
0.000835306
-0.000476778
0.000914597
-0.000473167
0.000980068
-0.00046844
0.00103072
-0.000463669
0.00106754
-0.000460608
0.0010926
-0.000460058
0.00110952
-0.000463292
0.00112286
-0.000471131
0.00113823
-0.000484422
0.00116185
-0.000503626
0.0011998
-0.000528682
0.00125592
-0.000557139
0.00133371
-0.000588609
0.00143136
-0.00061692
0.00155129
-0.000645785
0.00168413
-0.000661722
0.00183916
-0.000682483
0.00199624
-0.000678524
0.00216125
-0.000682252
0.00232794
-0.000680334
0.00249893
-0.000680458
0.00267287
-0.000676718
0.00284886
-0.000669222
0.00302497
-0.000656115
0.00319874
-0.000636451
0.00336756
-0.000609666
0.00352909
-0.000575931
0.00368069
-0.00053448
0.00382004
-0.000485599
0.00394519
-0.000429668
0.00405226
-0.000364551
0.00414321
-0.000295597
0.00421346
-0.000218356
0.00426454
-0.000134519
0.00429689
-4.61099e-05
0.00429772
6.21528e-05
0.00427473
0.000162013
0.00422771
0.000263514
0.00415546
0.000367095
0.00405688
0.000472696
0.00393162
0.000578764
0.00378051
0.000683867
0.00360296
0.00078837
0.00340051
0.000889151
0.00317421
0.000986452
0.00292502
0.00107798
0.00265544
0.00116299
0.00236806
0.00123908
0.00206479
0.00130687
0.00174862
0.00136337
0.00142275
0.0014084
0.00109002
0.00144071
0.000754702
0.00145876
0.00042008
0.00146264
9.03088e-05
0.00145097
-0.000230963
0.0014241
-0.000539544
0.00138094
-0.000831565
0.00132161
-0.00110304
0.0012463
-0.00135047
0.00115638
-0.00157018
0.00105124
-0.00175898
0.000932474
-0.00191444
0.000802301
-0.00203358
0.000660684
-0.0021147
0.0005104
-0.00215649
0.000353666
-0.00215716
0.00019247
-0.00211954
3.10732e-05
-0.00204156
-0.000134741
-0.00192582
-0.000292867
-0.00177393
-0.000444357
-0.00158878
-0.000586112
-0.00137412
-0.000715033
-0.00113417
-0.000828565
-0.000873706
-0.000924195
-0.000598182
-0.000998878
-0.000313397
-0.00105122
-2.54509e-05
-0.0010795
0.000259031
-0.00108235
0.000533651
-0.00105943
0.00079209
-0.00101057
0.00102824
-0.000936145
0.00123612
-0.000837736
0.00141027
-0.00071694
0.00154607
-0.000577047
0.00164035
-0.000421148
0.00169046
-0.000252829
0.00169448
-7.64526e-05
0.00165516
0.000105659
0.00157127
0.000283051
0.00144517
0.000453284
0.00128075
0.000611047
0.00108315
0.000751479
0.000858468
0.00086991
0.000613913
0.000961822
0.000357282
0.00102427
9.68213e-05
0.00105482
-0.000159004
0.00105172
-0.000401845
0.00101488
-0.000623817
0.000945247
-0.000817633
0.00084464
-0.000976864
0.000717142
-0.00109692
0.000566103
-0.00117377
0.000397963
-0.00120654
0.000218568
-0.00119445
3.34943e-05
-0.0011402
-0.000149566
-0.00104622
-0.000323296
-0.000917338
-0.000482045
-0.000759511
-0.000620195
-0.000579726
-0.000732708
-0.000385464
-0.000816236
-0.000184462
-0.000868564
1.54645e-05
-0.000888089
0.000207
-0.000875453
0.000383675
-0.000832425
0.000539643
-0.000761193
0.000670405
-0.00066585
0.000772657
-0.000551044
0.00084432
-0.000421319
0.00088475
-0.000282686
0.000894354
-0.000140236
0.00087482
5.07365e-07
0.000828866
0.00013454
0.000759803
0.000257654
0.000671643
0.000365902
0.000568677
0.000456578
0.00045534
0.000527503
0.000336229
0.000577249
0.000215979
0.000605203
9.83168e-05
0.000612402
-1.27094e-05
0.00059921
-0.00011438
0.00056797
-0.000203988
0.000520501
-0.000279651
0.000459621
-0.000339974
0.000387844
-0.000384341
0.000308472
-0.000412496
0.000224366
-0.000425102
0.000138579
-0.000422684
5.39335e-05
-0.00040663
-2.6913e-05
-0.000378484
-0.000101926
-0.000340023
-0.000169093
-0.000293136
-0.000226964
-0.000239968
-0.000274161
-0.000182515
-0.00031015
-0.000122858
-0.000334411
-6.28193e-05
-0.000346954
-4.41895e-06
-0.000348089
5.08677e-05
-0.000338521
0.000101618
-0.000319221
0.000146612
-0.00029104
0.000184879
-0.000255527
0.000215723
-0.00021394
0.000238704
-0.000167872
0.000253614
-0.00011872
0.000260482
-6.80445e-05
0.000259505
-1.73235e-05
0.000251077
3.21192e-05
0.000235853
7.90096e-05
0.000214496
0.000122339
0.000187794
0.000161128
0.000156693
0.000194556
0.000122136
0.000222084
8.51031e-05
0.000243232
4.65651e-05
0.00025786
7.44715e-06
0.00026582
-3.12104e-05
0.000267157
-6.86322e-05
0.000262182
-0.000103994
0.000251274
-0.000136563
0.000234768
-0.000165736
0.000213331
-0.000190973
0.000187525
-0.000211871
0.000158134
-0.000228138
0.000125803
-0.000239474
9.12367e-05
-0.000245847
5.5319e-05
-0.000247177
1.863e-05
-0.000243608
-1.79693e-05
-0.000235205
-5.39696e-05
-0.000222307
-8.86136e-05
-0.000205151
-0.00012147
-0.000184091
-0.000151934
-0.000159502
-0.000179689
-0.000131815
-0.000204182
-0.000101508
-0.000225116
-6.90679e-05
-0.000242083
-3.50388e-05
-0.000254756
-0.000262789
0.000125105
-0.000491946
0.000246859
-0.000492472
0.000369065
-0.000500484
0.000483757
-0.000502717
0.000588732
-0.000504698
0.000679186
-0.000505137
0.000743057
-0.00049185
0.000787498
-0.000494431