/*--------------------------------*- C++ -*----------------------------------*\
  =========                 |
  \\      /  F ield         | OpenFOAM: The Open Source CFD Toolbox
   \\    /   O peration     | Website:  https://openfoam.org
    \\  /    A nd           | Version:  12
     \\/     M anipulation  |
\*---------------------------------------------------------------------------*/
FoamFile
{
    format      ascii;
    class       volVectorField;
    location    "5";
    object      U;
}
// * * * * * * * * * * * * * * * * * * * * * * * * * * * * * * * * * * * * * //

dimensions      [0 1 -1 0 0 0 0];

internalField   nonuniform List<vector> 
3829
(
(3.12267e-06 -4.39922e-05 0)
(9.41127e-06 -4.4201e-05 0)
(1.57901e-05 -4.41604e-05 0)
(2.22554e-05 -4.41001e-05 0)
(2.88161e-05 -4.40184e-05 0)
(3.54761e-05 -4.39144e-05 0)
(4.22261e-05 -4.37879e-05 0)
(4.91062e-05 -4.36433e-05 0)
(5.61305e-05 -4.34721e-05 0)
(6.32883e-05 -4.32881e-05 0)
(7.05824e-05 -4.30896e-05 0)
(7.80074e-05 -4.28695e-05 0)
(8.55884e-05 -4.26239e-05 0)
(9.32612e-05 -4.23542e-05 0)
(0.000101038 -4.20402e-05 0)
(0.000108939 -4.17009e-05 0)
(0.000116914 -4.1314e-05 0)
(0.000124968 -4.08784e-05 0)
(0.00013309 -4.03942e-05 0)
(0.000141266 -3.98579e-05 0)
(0.000149481 -3.92662e-05 0)
(0.000157722 -3.8616e-05 0)
(0.000165964 -3.79039e-05 0)
(0.000174189 -3.71261e-05 0)
(0.000182376 -3.62782e-05 0)
(0.0001905 -3.53586e-05 0)
(0.000198514 -3.43629e-05 0)
(0.00020643 -3.32903e-05 0)
(0.000214201 -3.21357e-05 0)
(0.000221803 -3.09023e-05 0)
(0.000229173 -2.95948e-05 0)
(0.000236256 -2.82084e-05 0)
(0.00024309 -2.67481e-05 0)
(0.000249538 -2.52155e-05 0)
(0.000255623 -2.36005e-05 0)
(0.000261331 -2.19061e-05 0)
(0.000266558 -2.01181e-05 0)
(0.000271335 -1.82319e-05 0)
(0.00027565 -1.62501e-05 0)
(0.000279445 -1.41808e-05 0)
(0.000282649 -1.2016e-05 0)
(0.00028528 -9.76934e-06 0)
(0.000287267 -7.44558e-06 0)
(0.000288562 -5.04929e-06 0)
(0.000289152 -2.59238e-06 0)
(0.000288877 -7.93426e-08 0)
(0.000287668 2.46568e-06 0)
(0.000285536 5.02531e-06 0)
(0.00028247 7.58265e-06 0)
(0.000278452 1.01198e-05 0)
(0.000273448 1.26144e-05 0)
(0.000267519 1.50673e-05 0)
(0.000260669 1.7441e-05 0)
(0.000252874 1.97354e-05 0)
(0.000244189 2.19022e-05 0)
(0.000234622 2.39435e-05 0)
(0.000224213 2.58364e-05 0)
(0.000213016 2.75499e-05 0)
(0.000201081 2.90846e-05 0)
(0.000188576 3.0408e-05 0)
(0.000175491 3.14802e-05 0)
(0.000161839 3.23286e-05 0)
(0.000147737 3.28632e-05 0)
(0.000133479 3.31838e-05 0)
(0.000119017 3.31683e-05 0)
(0.000104392 3.28923e-05 0)
(8.99297e-05 3.22925e-05 0)
(7.56225e-05 3.14203e-05 0)
(6.16801e-05 3.02579e-05 0)
(4.82846e-05 2.88099e-05 0)
(3.54245e-05 2.70941e-05 0)
(2.33542e-05 2.51305e-05 0)
(1.21753e-05 2.29327e-05 0)
(1.88708e-06 2.05403e-05 0)
(-7.29399e-06 1.79847e-05 0)
(-1.51982e-05 1.53198e-05 0)
(-2.17182e-05 1.2549e-05 0)
(-2.69823e-05 9.69621e-06 0)
(-3.07938e-05 6.87254e-06 0)
(-3.31218e-05 4.03265e-06 0)
(-3.41666e-05 1.27227e-06 0)
(-3.37587e-05 -1.35244e-06 0)
(-3.18247e-05 -3.79608e-06 0)
(-2.85832e-05 -6.05227e-06 0)
(-2.42293e-05 -8.07299e-06 0)
(-1.88784e-05 -9.81589e-06 0)
(-1.25601e-05 -1.12247e-05 0)
(-5.43862e-06 -1.23195e-05 0)
(2.22781e-06 -1.30467e-05 0)
(1.02069e-05 -1.34197e-05 0)
(1.82965e-05 -1.34076e-05 0)
(2.6349e-05 -1.30176e-05 0)
(3.41098e-05 -1.22778e-05 0)
(4.13504e-05 -1.11976e-05 0)
(4.78747e-05 -9.81092e-06 0)
(5.34816e-05 -8.152e-06 0)
(5.8003e-05 -6.26955e-06 0)
(6.1291e-05 -4.21229e-06 0)
(6.324e-05 -2.04202e-06 0)
(6.37164e-05 1.77027e-07 0)
(6.26201e-05 2.37932e-06 0)
(6.00112e-05 4.51247e-06 0)
(5.59801e-05 6.50891e-06 0)
(5.0611e-05 8.31277e-06 0)
(4.40773e-05 9.86717e-06 0)
(3.65214e-05 1.11124e-05 0)
(2.81338e-05 1.20173e-05 0)
(1.91935e-05 1.25477e-05 0)
(9.94016e-06 1.26884e-05 0)
(6.65137e-07 1.24344e-05 0)
(-8.34605e-06 1.17913e-05 0)
(-1.67931e-05 1.07849e-05 0)
(-2.44035e-05 9.44067e-06 0)
(-3.0937e-05 7.82183e-06 0)
(-3.61788e-05 5.9705e-06 0)
(-3.99313e-05 3.96428e-06 0)
(-4.20937e-05 1.85262e-06 0)
(-4.25535e-05 -2.54717e-07 0)
(-4.12732e-05 -2.30724e-06 0)
(-3.83062e-05 -4.22936e-06 0)
(-3.38055e-05 -5.97871e-06 0)
(-2.79641e-05 -7.46308e-06 0)
(-2.09272e-05 -8.65675e-06 0)
(-1.2976e-05 -9.52311e-06 0)
(-4.36964e-06 -1.00218e-05 0)
(4.57171e-06 -1.01597e-05 0)
(1.35159e-05 -9.9385e-06 0)
(2.21594e-05 -9.38021e-06 0)
(3.02209e-05 -8.51089e-06 0)
(3.74289e-05 -7.38242e-06 0)
(4.35407e-05 -6.03852e-06 0)
(4.83743e-05 -4.53866e-06 0)
(5.17817e-05 -2.94839e-06 0)
(5.36896e-05 -1.31853e-06 0)
(5.4036e-05 2.69346e-07 0)
(5.28457e-05 1.78527e-06 0)
(5.02294e-05 3.16919e-06 0)
(4.63002e-05 4.3802e-06 0)
(4.12306e-05 5.38636e-06 0)
(3.52134e-05 6.16031e-06 0)
(2.84877e-05 6.6922e-06 0)
(2.12974e-05 6.97259e-06 0)
(1.38746e-05 7.01074e-06 0)
(6.47928e-06 6.82007e-06 0)
(-6.53777e-07 6.42035e-06 0)
(-7.31293e-06 5.83919e-06 0)
(-1.33049e-05 5.10815e-06 0)
(-1.84673e-05 4.26337e-06 0)
(-2.26805e-05 3.3343e-06 0)
(-2.58503e-05 2.36908e-06 0)
(-2.79314e-05 1.38887e-06 0)
(-2.89069e-05 4.41684e-07 0)
(-2.88027e-05 -4.6117e-07 0)
(-2.76757e-05 -1.27578e-06 0)
(-2.5612e-05 -2.00103e-06 0)
(-2.27285e-05 -2.60342e-06 0)
(-1.91578e-05 -3.08244e-06 0)
(-1.50417e-05 -3.42397e-06 0)
(-1.0538e-05 -3.6348e-06 0)
(-5.81609e-06 -3.70922e-06 0)
(-1.02879e-06 -3.66214e-06 0)
(3.65492e-06 -3.49882e-06 0)
(8.10381e-06 -3.22997e-06 0)
(1.2182e-05 -2.87777e-06 0)
(1.57681e-05 -2.45061e-06 0)
(1.87733e-05 -1.9734e-06 0)
(2.11199e-05 -1.4585e-06 0)
(2.27558e-05 -9.2258e-07 0)
(2.36508e-05 -3.8748e-07 0)
(2.37954e-05 1.37337e-07 0)
(2.32029e-05 6.33231e-07 0)
(2.19072e-05 1.09157e-06 0)
(1.9955e-05 1.50012e-06 0)
(1.74145e-05 1.8513e-06 0)
(1.43645e-05 2.13961e-06 0)
(1.08943e-05 2.35964e-06 0)
(7.10007e-06 2.5107e-06 0)
(3.08518e-06 2.59202e-06 0)
(-1.06144e-06 2.60648e-06 0)
(-5.22543e-06 2.55689e-06 0)
(-9.29315e-06 2.44734e-06 0)
(-1.31834e-05 2.28437e-06 0)
(-1.68027e-05 2.07287e-06 0)
(-2.00733e-05 1.82229e-06 0)
(-2.29233e-05 1.53713e-06 0)
(-2.52936e-05 1.22902e-06 0)
(-2.71348e-05 9.02533e-07 0)
(-2.84146e-05 5.64654e-07 0)
(-2.91073e-05 2.25638e-07 0)
(-2.91991e-05 -1.07757e-07 0)
(-2.86921e-05 -4.33081e-07 0)
(-2.75971e-05 -7.39617e-07 0)
(-2.59404e-05 -1.02758e-06 0)
(-2.37467e-05 -1.28751e-06 0)
(-2.10582e-05 -1.51889e-06 0)
(-1.79224e-05 -1.7172e-06 0)
(-1.44006e-05 -1.88116e-06 0)
(-1.05549e-05 -2.00587e-06 0)
(-6.45192e-06 -2.09091e-06 0)
(-2.17418e-06 -2.13427e-06 0)
(3.28731e-06 -8.11685e-05 0)
(9.96349e-06 -8.13249e-05 0)
(1.67037e-05 -8.13213e-05 0)
(2.35191e-05 -8.13199e-05 0)
(3.04513e-05 -8.13178e-05 0)
(3.74836e-05 -8.13212e-05 0)
(4.45603e-05 -8.13266e-05 0)
(5.17946e-05 -8.13403e-05 0)
(5.91208e-05 -8.13513e-05 0)
(6.64714e-05 -8.13668e-05 0)
(7.40257e-05 -8.13861e-05 0)
(8.17938e-05 -8.13975e-05 0)
(8.97304e-05 -8.14012e-05 0)
(9.78991e-05 -8.13659e-05 0)
(0.000106171 -8.13026e-05 0)
(0.000114578 -8.11869e-05 0)
(0.000123229 -8.10017e-05 0)
(0.000131949 -8.07553e-05 0)
(0.000140748 -8.04088e-05 0)
(0.000149633 -7.9987e-05 0)
(0.000158589 -7.94518e-05 0)
(0.000167598 -7.88027e-05 0)
(0.000176642 -7.80201e-05 0)
(0.000185707 -7.70954e-05 0)
(0.000194756 -7.60164e-05 0)
(0.000203761 -7.47568e-05 0)
(0.000212671 -7.33162e-05 0)
(0.000221499 -7.16647e-05 0)
(0.000230174 -6.97906e-05 0)
(0.000238605 -6.76938e-05 0)
(0.000246783 -6.53466e-05 0)
(0.000254651 -6.2723e-05 0)
(0.000262209 -5.98084e-05 0)
(0.000269414 -5.66217e-05 0)
(0.000276281 -5.31223e-05 0)
(0.000282819 -4.93145e-05 0)
(0.000288969 -4.51781e-05 0)
(0.000294657 -4.07136e-05 0)
(0.000299796 -3.59098e-05 0)
(0.000304391 -3.07794e-05 0)
(0.000308341 -2.5317e-05 0)
(0.00031159 -1.95306e-05 0)
(0.000314126 -1.3451e-05 0)
(0.00031586 -7.09412e-06 0)
(0.000316785 -4.9318e-07 0)
(0.000316677 6.29856e-06 0)
(0.000315402 1.32644e-05 0)
(0.000313016 2.03645e-05 0)
(0.000309516 2.75267e-05 0)
(0.000304858 3.47283e-05 0)
(0.000299112 4.18894e-05 0)
(0.000292269 4.89731e-05 0)
(0.000284331 5.58886e-05 0)
(0.000275228 6.25782e-05 0)
(0.000265032 6.89689e-05 0)
(0.000253885 7.50084e-05 0)
(0.00024167 8.05697e-05 0)
(0.000228559 8.5687e-05 0)
(0.000214601 9.01883e-05 0)
(0.000199779 9.40534e-05 0)
(0.000184369 9.71938e-05 0)
(0.000168163 9.95778e-05 0)
(0.000151603 0.000101125 0)
(0.000134849 0.000101881 0)
(0.000117738 0.000101693 0)
(0.000100582 0.000100649 0)
(8.35929e-05 9.86575e-05 0)
(6.69626e-05 9.57803e-05 0)
(5.06933e-05 9.20233e-05 0)
(3.51195e-05 8.74153e-05 0)
(2.02903e-05 8.19825e-05 0)
(6.43237e-06 7.5825e-05 0)
(-6.27912e-06 6.89347e-05 0)
(-1.77761e-05 6.14771e-05 0)
(-2.78015e-05 5.34917e-05 0)
(-3.63069e-05 4.51294e-05 0)
(-4.33047e-05 3.64712e-05 0)
(-4.85221e-05 2.76414e-05 0)
(-5.20378e-05 1.88009e-05 0)
(-5.38895e-05 1.00425e-05 0)
(-5.39066e-05 1.52943e-06 0)
(-5.21247e-05 -6.5401e-06 0)
(-4.86603e-05 -1.40989e-05 0)
(-4.37291e-05 -2.10158e-05 0)
(-3.74048e-05 -2.71661e-05 0)
(-2.97858e-05 -3.2444e-05 0)
(-2.11259e-05 -3.6702e-05 0)
(-1.16035e-05 -3.99143e-05 0)
(-1.45371e-06 -4.20108e-05 0)
(9.00919e-06 -4.29557e-05 0)
(1.96034e-05 -4.27244e-05 0)
(2.99897e-05 -4.13376e-05 0)
(3.99108e-05 -3.8842e-05 0)
(4.9125e-05 -3.52962e-05 0)
(5.73645e-05 -3.08082e-05 0)
(6.43906e-05 -2.5489e-05 0)
(7.00008e-05 -1.94907e-05 0)
(7.40187e-05 -1.29789e-05 0)
(7.63025e-05 -6.13865e-06 0)
(7.67236e-05 8.56062e-07 0)
(7.52291e-05 7.76822e-06 0)
(7.18843e-05 1.4439e-05 0)
(6.67818e-05 2.0658e-05 0)
(6.00472e-05 2.62442e-05 0)
(5.18546e-05 3.10208e-05 0)
(4.24273e-05 3.48248e-05 0)
(3.20327e-05 3.75484e-05 0)
(2.09981e-05 3.91005e-05 0)
(9.64487e-06 3.9426e-05 0)
(-1.68085e-06 3.85232e-05 0)
(-1.26144e-05 3.64155e-05 0)
(-2.28078e-05 3.3191e-05 0)
(-3.18999e-05 2.89422e-05 0)
(-3.96169e-05 2.38436e-05 0)
(-4.57182e-05 1.80583e-05 0)
(-4.9997e-05 1.17989e-05 0)
(-5.22887e-05 5.28682e-06 0)
(-5.24911e-05 -1.24018e-06 0)
(-5.06605e-05 -7.56335e-06 0)
(-4.68776e-05 -1.34598e-05 0)
(-4.12691e-05 -1.87622e-05 0)
(-3.40751e-05 -2.32656e-05 0)
(-2.55748e-05 -2.68233e-05 0)
(-1.60216e-05 -2.93399e-05 0)
(-5.77515e-06 -3.07546e-05 0)
(4.74998e-06 -3.10551e-05 0)
(1.51909e-05 -3.02576e-05 0)
(2.51947e-05 -2.84381e-05 0)
(3.44209e-05 -2.56911e-05 0)
(4.25677e-05 -2.21586e-05 0)
(4.93846e-05 -1.80022e-05 0)
(5.46521e-05 -1.33984e-05 0)
(5.82487e-05 -8.53611e-06 0)
(6.00782e-05 -3.61076e-06 0)
(6.01274e-05 1.20446e-06 0)
(5.84718e-05 5.75419e-06 0)
(5.52067e-05 9.88763e-06 0)
(5.05044e-05 1.34779e-05 0)
(4.45676e-05 1.64323e-05 0)
(3.76337e-05 1.86784e-05 0)
(2.99768e-05 2.01879e-05 0)
(2.18757e-05 2.09449e-05 0)
(1.36034e-05 2.09768e-05 0)
(5.43675e-06 2.03273e-05 0)
(-2.3671e-06 1.90635e-05 0)
(-9.57914e-06 1.727e-05 0)
(-1.59955e-05 1.50418e-05 0)
(-2.14616e-05 1.24829e-05 0)
(-2.58415e-05 9.70222e-06 0)
(-2.90594e-05 6.80652e-06 0)
(-3.10745e-05 3.89877e-06 0)
(-3.1889e-05 1.07932e-06 0)
(-3.15395e-05 -1.57374e-06 0)
(-3.01011e-05 -3.9808e-06 0)
(-2.76792e-05 -6.08569e-06 0)
(-2.43928e-05 -7.84552e-06 0)
(-2.04061e-05 -9.22144e-06 0)
(-1.58722e-05 -1.01999e-05 0)
(-1.09618e-05 -1.07855e-05 0)
(-5.85584e-06 -1.09781e-05 0)
(-7.2267e-07 -1.08049e-05 0)
(4.27602e-06 -1.0296e-05 0)
(8.98602e-06 -9.48842e-06 0)
(1.32762e-05 -8.4272e-06 0)
(1.70232e-05 -7.16294e-06 0)
(2.01343e-05 -5.74289e-06 0)
(2.25448e-05 -4.2212e-06 0)
(2.41915e-05 -2.64951e-06 0)
(2.50552e-05 -1.07406e-06 0)
(2.51323e-05 4.5767e-07 0)
(2.44384e-05 1.90949e-06 0)
(2.30167e-05 3.2429e-06 0)
(2.09162e-05 4.43024e-06 0)
(1.82143e-05 5.44872e-06 0)
(1.4993e-05 6.28025e-06 0)
(1.13479e-05 6.91512e-06 0)
(7.38088e-06 7.34555e-06 0)
(3.19967e-06 7.57543e-06 0)
(-1.10275e-06 7.60924e-06 0)
(-5.41092e-06 7.45762e-06 0)
(-9.60725e-06 7.13009e-06 0)
(-1.36101e-05 6.648e-06 0)
(-1.73232e-05 6.02694e-06 0)
(-2.06699e-05 5.2916e-06 0)
(-2.35764e-05 4.46034e-06 0)
(-2.59841e-05 3.55729e-06 0)
(-2.78494e-05 2.60553e-06 0)
(-2.91343e-05 1.62675e-06 0)
(-2.9814e-05 6.41191e-07 0)
(-2.98834e-05 -3.31146e-07 0)
(-2.9341e-05 -1.26923e-06 0)
(-2.82006e-05 -2.16197e-06 0)
(-2.64902e-05 -2.9928e-06 0)
(-2.42342e-05 -3.74723e-06 0)
(-2.14797e-05 -4.41496e-06 0)
(-1.82737e-05 -4.98836e-06 0)
(-1.46774e-05 -5.46206e-06 0)
(-1.07537e-05 -5.82344e-06 0)
(-6.57245e-06 -6.07109e-06 0)
(-2.21462e-06 -6.19628e-06 0)
(3.15196e-06 -0.000163208 0)
(9.51065e-06 -0.000163835 0)
(1.59329e-05 -0.000163802 0)
(2.2429e-05 -0.000163736 0)
(2.89977e-05 -0.000163649 0)
(3.56437e-05 -0.000163526 0)
(4.23556e-05 -0.00016337 0)
(4.92377e-05 -0.000163164 0)
(5.62873e-05 -0.000162916 0)
(6.34092e-05 -0.000162611 0)
(7.07663e-05 -0.000162231 0)
(7.83462e-05 -0.000161781 0)
(8.63008e-05 -0.000161218 0)
(9.44999e-05 -0.000160573 0)
(0.000102883 -0.000159848 0)
(0.000111665 -0.000159027 0)
(0.000120582 -0.000158138 0)
(0.000129761 -0.000157175 0)
(0.000139082 -0.000156154 0)
(0.000148518 -0.000155014 0)
(0.000158222 -0.00015379 0)
(0.00016805 -0.000152436 0)
(0.000178027 -0.000150926 0)
(0.000188082 -0.000149212 0)
(0.000198298 -0.000147259 0)
(0.000208573 -0.000144998 0)
(0.000218874 -0.000142422 0)
(0.000229276 -0.000139419 0)
(0.000239545 -0.000135978 0)
(0.000249741 -0.000132089 0)
(0.000259952 -0.000127742 0)
(0.00027004 -0.00012296 0)
(0.00027978 -0.000117663 0)
(0.000289187 -0.00011181 0)
(0.000298365 -0.000105417 0)
(0.000307186 -9.83705e-05 0)
(0.000315571 -9.07321e-05 0)
(0.000323486 -8.24316e-05 0)
(0.000330844 -7.34855e-05 0)
(0.000337565 -6.39178e-05 0)
(0.000343603 -5.3748e-05 0)
(0.000348785 -4.29895e-05 0)
(0.000353015 -3.16935e-05 0)
(0.000356236 -1.98913e-05 0)
(0.000358264 -7.66795e-06 0)
(0.000359026 4.93895e-06 0)
(0.000358524 1.78426e-05 0)
(0.000356519 3.09415e-05 0)
(0.0003531 4.41355e-05 0)
(0.000348228 5.73289e-05 0)
(0.000341829 7.04274e-05 0)
(0.00033393 8.33104e-05 0)
(0.000324454 9.58331e-05 0)
(0.00031348 0.000107935 0)
(0.000301102 0.000119475 0)
(0.000287133 0.00013029 0)
(0.000271987 0.000140284 0)
(0.000255559 0.000149351 0)
(0.000237677 0.000157315 0)
(0.000218871 0.000164108 0)
(0.000199124 0.000169596 0)
(0.000178478 0.000173673 0)
(0.000157401 0.000176301 0)
(0.000135896 0.000177395 0)
(0.000114072 0.000176883 0)
(9.2249e-05 0.00017476 0)
(7.06333e-05 0.000171041 0)
(4.9613e-05 0.000165674 0)
(2.9233e-05 0.000158747 0)
(9.76581e-06 0.0001503 0)
(-8.54051e-06 0.000140404 0)
(-2.55819e-05 0.000129181 0)
(-4.10334e-05 0.000116751 0)
(-5.47232e-05 0.000103262 0)
(-6.65237e-05 8.89087e-05 0)
(-7.61624e-05 7.38552e-05 0)
(-8.36531e-05 5.83277e-05 0)
(-8.88392e-05 4.25753e-05 0)
(-9.1702e-05 2.67755e-05 0)
(-9.22329e-05 1.12488e-05 0)
(-9.0271e-05 -3.74498e-06 0)
(-8.60247e-05 -1.79861e-05 0)
(-7.96868e-05 -3.12987e-05 0)
(-7.13101e-05 -4.33493e-05 0)
(-6.11784e-05 -5.39965e-05 0)
(-4.93623e-05 -6.29865e-05 0)
(-3.61851e-05 -7.02131e-05 0)
(-2.20591e-05 -7.5482e-05 0)
(-7.21459e-06 -7.87421e-05 0)
(7.9624e-06 -7.99022e-05 0)
(2.31061e-05 -7.89729e-05 0)
(3.78458e-05 -7.59814e-05 0)
(5.18281e-05 -7.10073e-05 0)
(6.46642e-05 -6.41925e-05 0)
(7.60254e-05 -5.57156e-05 0)
(8.56085e-05 -4.57932e-05 0)
(9.31203e-05 -3.46987e-05 0)
(9.83527e-05 -2.27277e-05 0)
(0.000101203 -1.0234e-05 0)
(0.000101443 2.44243e-06 0)
(9.90542e-05 1.49447e-05 0)
(9.41967e-05 2.69307e-05 0)
(8.69385e-05 3.80382e-05 0)
(7.74837e-05 4.7942e-05 0)
(6.6082e-05 5.63235e-05 0)
(5.30806e-05 6.29314e-05 0)
(3.88702e-05 6.75519e-05 0)
(2.38757e-05 7.00556e-05 0)
(8.56589e-06 7.03492e-05 0)
(-6.57639e-06 6.84467e-05 0)
(-2.10552e-05 6.4397e-05 0)
(-3.4419e-05 5.8377e-05 0)
(-4.62076e-05 5.05883e-05 0)
(-5.6044e-05 4.13005e-05 0)
(-6.36531e-05 3.08757e-05 0)
(-6.87363e-05 1.96614e-05 0)
(-7.11693e-05 8.0927e-06 0)
(-7.08834e-05 -3.44619e-06 0)
(-6.79124e-05 -1.4546e-05 0)
(-6.24477e-05 -2.48259e-05 0)
(-5.47084e-05 -3.39492e-05 0)
(-4.49597e-05 -4.16e-05 0)
(-3.36011e-05 -4.75528e-05 0)
(-2.10965e-05 -5.16249e-05 0)
(-7.88906e-06 -5.37562e-05 0)
(5.53931e-06 -5.39299e-05 0)
(1.86871e-05 -5.22092e-05 0)
(3.11045e-05 -4.87331e-05 0)
(4.23928e-05 -4.36955e-05 0)
(5.21706e-05 -3.73612e-05 0)
(6.01532e-05 -3.00029e-05 0)
(6.61255e-05 -2.19612e-05 0)
(6.9932e-05 -1.35497e-05 0)
(7.15494e-05 -5.08748e-06 0)
(7.10126e-05 3.12029e-06 0)
(6.84117e-05 1.07907e-05 0)
(6.39219e-05 1.76918e-05 0)
(5.77746e-05 2.36133e-05 0)
(5.02488e-05 2.84146e-05 0)
(4.16573e-05 3.19937e-05 0)
(3.23399e-05 3.4304e-05 0)
(2.26341e-05 3.53484e-05 0)
(1.28706e-05 3.51748e-05 0)
(3.36819e-06 3.3877e-05 0)
(-5.57905e-06 3.15738e-05 0)
(-1.37236e-05 2.84151e-05 0)
(-2.08521e-05 2.45635e-05 0)
(-2.67931e-05 2.02017e-05 0)
(-3.14321e-05 1.55094e-05 0)
(-3.46974e-05 1.06625e-05 0)
(-3.6564e-05 5.83868e-06 0)
(-3.70625e-05 1.18089e-06 0)
(-3.62589e-05 -3.16022e-06 0)
(-3.42496e-05 -7.08059e-06 0)
(-3.11801e-05 -1.04803e-05 0)
(-2.71957e-05 -1.32898e-05 0)
(-2.24754e-05 -1.54649e-05 0)
(-1.7222e-05 -1.69869e-05 0)
(-1.16129e-05 -1.78499e-05 0)
(-5.84742e-06 -1.80829e-05 0)
(-1.17514e-07 -1.77196e-05 0)
(5.39926e-06 -1.68133e-05 0)
(1.05534e-05 -1.5434e-05 0)
(1.51968e-05 -1.36507e-05 0)
(1.92092e-05 -1.15484e-05 0)
(2.25013e-05 -9.20615e-06 0)
(2.49963e-05 -6.71053e-06 0)
(2.6655e-05 -4.14735e-06 0)
(2.74567e-05 -1.58632e-06 0)
(2.74084e-05 8.93223e-07 0)
(2.65374e-05 3.23224e-06 0)
(2.48909e-05 5.37423e-06 0)
(2.25363e-05 7.27369e-06 0)
(1.95551e-05 8.89579e-06 0)
(1.60422e-05 1.02121e-05 0)
(1.20996e-05 1.12102e-05 0)
(7.83924e-06 1.18786e-05 0)
(3.37791e-06 1.22256e-05 0)
(-1.18841e-06 1.22521e-05 0)
(-5.74072e-06 1.19863e-05 0)
(-1.0155e-05 1.14417e-05 0)
(-1.43448e-05 1.06504e-05 0)
(-1.82149e-05 9.64082e-06 0)
(-2.1686e-05 8.44778e-06 0)
(-2.46883e-05 7.10588e-06 0)
(-2.71596e-05 5.65476e-06 0)
(-2.90552e-05 4.12572e-06 0)
(-3.03463e-05 2.55788e-06 0)
(-3.10103e-05 9.83153e-07 0)
(-3.1035e-05 -5.67863e-07 0)
(-3.04314e-05 -2.06465e-06 0)
(-2.92157e-05 -3.48472e-06 0)
(-2.74122e-05 -4.8022e-06 0)
(-2.50521e-05 -6.00039e-06 0)
(-2.21845e-05 -7.06121e-06 0)
(-1.88618e-05 -7.96971e-06 0)
(-1.51413e-05 -8.71987e-06 0)
(-1.1089e-05 -9.29073e-06 0)
(-6.77561e-06 -9.68264e-06 0)
(-2.28218e-06 -9.88017e-06 0)
(3.43914e-06 -0.000191223 0)
(1.03127e-05 -0.000191328 0)
(1.73249e-05 -0.000191227 0)
(2.44647e-05 -0.000191084 0)
(3.17408e-05 -0.000190915 0)
(3.91845e-05 -0.000190749 0)
(4.67602e-05 -0.000190579 0)
(5.45327e-05 -0.000190426 0)
(6.24399e-05 -0.000190218 0)
(7.05766e-05 -0.000190025 0)
(7.89838e-05 -0.000189805 0)
(8.7826e-05 -0.000189685 0)
(9.69167e-05 -0.000189669 0)
(0.000106015 -0.000189828 0)
(0.000115281 -0.00019012 0)
(0.000124618 -0.000190514 0)
(0.000134048 -0.000190992 0)
(0.000143481 -0.000191501 0)
(0.000153244 -0.000191939 0)
(0.000163238 -0.000192254 0)
(0.000173359 -0.00019235 0)
(0.000183919 -0.000192234 0)
(0.000194911 -0.000191879 0)
(0.000206349 -0.000191145 0)
(0.0002183 -0.000190085 0)
(0.000230573 -0.000188556 0)
(0.000243325 -0.000186501 0)
(0.000256578 -0.000184054 0)
(0.00026969 -0.000181002 0)
(0.000282584 -0.00017756 0)
(0.00029509 -0.000173425 0)
(0.000307485 -0.000168603 0)
(0.000320069 -0.000163055 0)
(0.000332323 -0.000156515 0)
(0.000344601 -0.000149048 0)
(0.000356674 -0.000140518 0)
(0.000368264 -0.000130905 0)
(0.000379513 -0.000120117 0)
(0.000389893 -0.00010821 0)
(0.000399392 -9.51749e-05 0)
(0.000407972 -8.10079e-05 0)
(0.00041543 -6.57741e-05 0)
(0.000421674 -4.95251e-05 0)
(0.000426485 -3.23729e-05 0)
(0.000429826 -1.43845e-05 0)
(0.000431508 4.25526e-06 0)
(0.000431155 2.34466e-05 0)
(0.000428763 4.31009e-05 0)
(0.000424391 6.30341e-05 0)
(0.000418053 8.30687e-05 0)
(0.000409726 0.00010297 0)
(0.000399233 0.000122626 0)
(0.000386837 0.000141773 0)
(0.000372533 0.000160377 0)
(0.000356022 0.000177992 0)
(0.000337615 0.00019456 0)
(0.000317516 0.000209839 0)
(0.000295581 0.000223543 0)
(0.000272001 0.000235596 0)
(0.000247015 0.00024578 0)
(0.000220744 0.000253943 0)
(0.000193384 0.000259938 0)
(0.00016547 0.000263679 0)
(0.000137026 0.000264916 0)
(0.000108219 0.000263819 0)
(7.96636e-05 0.000260169 0)
(5.14083e-05 0.000254066 0)
(2.39068e-05 0.000245454 0)
(-2.54247e-06 0.00023444 0)
(-2.76825e-05 0.000221074 0)
(-5.11792e-05 0.000205532 0)
(-7.27096e-05 0.000187934 0)
(-9.20248e-05 0.000168571 0)
(-0.000108825 0.000147598 0)
(-0.000122877 0.000125376 0)
(-0.000134057 0.000102122 0)
(-0.000142145 7.82529e-05 0)
(-0.000147082 5.40858e-05 0)
(-0.000148789 2.99708e-05 0)
(-0.000147093 6.34634e-06 0)
(-0.000142163 -1.64077e-05 0)
(-0.000134354 -3.79695e-05 0)
(-0.000123513 -5.79243e-05 0)
(-0.000109967 -7.59386e-05 0)
(-9.40782e-05 -9.16629e-05 0)
(-7.60719e-05 -0.0001048 0)
(-5.64096e-05 -0.000115135 0)
(-3.54566e-05 -0.000122445 0)
(-1.3737e-05 -0.000126611 0)
(8.25706e-06 -0.000127546 0)
(3.00145e-05 -0.00012524 0)
(5.1028e-05 -0.000119782 0)
(7.07549e-05 -0.000111293 0)
(8.87128e-05 -0.000100024 0)
(0.000104479 -8.62365e-05 0)
(0.000117614 -7.03437e-05 0)
(0.00012776 -5.27142e-05 0)
(0.000134595 -3.38571e-05 0)
(0.000137925 -1.42413e-05 0)
(0.000137673 5.52967e-06 0)
(0.00013384 2.49451e-05 0)
(0.000126537 4.34183e-05 0)
(0.000115951 6.04304e-05 0)
(0.000102361 7.54523e-05 0)
(8.6159e-05 8.80445e-05 0)
(6.78513e-05 9.78235e-05 0)
(4.80065e-05 0.000104485 0)
(2.72394e-05 0.000107833 0)
(6.19944e-06 0.000107764 0)
(-1.44554e-05 0.000104314 0)
(-3.40251e-05 9.76024e-05 0)
(-5.18607e-05 8.79068e-05 0)
(-6.74347e-05 7.55721e-05 0)
(-8.01859e-05 6.10462e-05 0)
(-8.97587e-05 4.48737e-05 0)
(-9.58418e-05 2.76515e-05 0)
(-9.82639e-05 9.97433e-06 0)
(-9.7035e-05 -7.47514e-06 0)
(-9.22595e-05 -2.41417e-05 0)
(-8.42095e-05 -3.9428e-05 0)
(-7.31906e-05 -5.2813e-05 0)
(-5.96848e-05 -6.38658e-05 0)
(-4.42482e-05 -7.22731e-05 0)
(-2.74701e-05 -7.78264e-05 0)
(-1.00213e-05 -8.04061e-05 0)
(7.46437e-06 -8.00582e-05 0)
(2.43508e-05 -7.69102e-05 0)
(4.00702e-05 -7.12019e-05 0)
(5.40879e-05 -6.3272e-05 0)
(6.59936e-05 -5.35146e-05 0)
(7.54451e-05 -4.23704e-05 0)
(8.21901e-05 -3.03439e-05 0)
(8.61741e-05 -1.78881e-05 0)
(8.73584e-05 -5.50235e-06 0)
(8.58241e-05 6.38838e-06 0)
(8.17926e-05 1.73697e-05 0)
(7.55041e-05 2.71225e-05 0)
(6.72925e-05 3.53798e-05 0)
(5.75471e-05 4.19461e-05 0)
(4.66626e-05 4.67101e-05 0)
(3.50764e-05 4.96204e-05 0)
(2.32088e-05 5.07255e-05 0)
(1.14634e-05 5.00945e-05 0)
(2.11687e-07 4.78937e-05 0)
(-1.0219e-05 4.43014e-05 0)
(-1.95515e-05 3.95614e-05 0)
(-2.7554e-05 3.38879e-05 0)
(-3.40632e-05 2.75573e-05 0)
(-3.89711e-05 2.08302e-05 0)
(-4.22225e-05 1.39392e-05 0)
(-4.38358e-05 7.15068e-06 0)
(-4.38648e-05 6.51519e-07 0)
(-4.24111e-05 -5.36189e-06 0)
(-3.9626e-05 -1.07413e-05 0)
(-3.56692e-05 -1.53643e-05 0)
(-3.07373e-05 -1.91387e-05 0)
(-2.50607e-05 -2.20241e-05 0)
(-1.88453e-05 -2.39838e-05 0)
(-1.2319e-05 -2.50368e-05 0)
(-5.70879e-06 -2.52151e-05 0)
(7.89844e-07 -2.45795e-05 0)
(6.97627e-06 -2.32095e-05 0)
(1.26846e-05 -2.11976e-05 0)
(1.77712e-05 -1.86578e-05 0)
(2.21083e-05 -1.56921e-05 0)
(2.56078e-05 -1.24241e-05 0)
(2.82033e-05 -8.96404e-06 0)
(2.9859e-05 -5.42643e-06 0)
(3.05673e-05 -1.91676e-06 0)
(3.03421e-05 1.47206e-06 0)
(2.92286e-05 4.64969e-06 0)
(2.7288e-05 7.54729e-06 0)
(2.45962e-05 1.01048e-05 0)
(2.12505e-05 1.22764e-05 0)
(1.7358e-05 1.40277e-05 0)
(1.30323e-05 1.53411e-05 0)
(8.39671e-06 1.62094e-05 0)
(3.57146e-06 1.66365e-05 0)
(-1.33253e-06 1.66344e-05 0)
(-6.18857e-06 1.62353e-05 0)
(-1.08766e-05 1.54695e-05 0)
(-1.53027e-05 1.43674e-05 0)
(-1.93705e-05 1.29797e-05 0)
(-2.29994e-05 1.13494e-05 0)
(-2.61144e-05 9.5256e-06 0)
(-2.86615e-05 7.55579e-06 0)
(-3.05997e-05 5.48947e-06 0)
(-3.18935e-05 3.37337e-06 0)
(-3.25275e-05 1.25569e-06 0)
(-3.24988e-05 -8.2703e-07 0)
(-3.18155e-05 -2.8351e-06 0)
(-3.04967e-05 -4.73303e-06 0)
(-2.85761e-05 -6.49449e-06 0)
(-2.60859e-05 -8.09163e-06 0)
(-2.30755e-05 -9.50699e-06 0)
(-1.96026e-05 -1.07185e-05 0)
(-1.5724e-05 -1.17117e-05 0)
(-1.15081e-05 -1.24717e-05 0)
(-7.0296e-06 -1.29894e-05 0)
(-2.36678e-06 -1.32523e-05 0)
(3.59452e-06 -0.000275993 0)
(1.05848e-05 -0.000276588 0)
(1.75717e-05 -0.00027688 0)
(2.45389e-05 -0.00027728 0)
(3.13238e-05 -0.000277686 0)
(3.8069e-05 -0.000278064 0)
(4.48119e-05 -0.000278197 0)
(5.20169e-05 -0.000278133 0)
(5.94047e-05 -0.000277437 0)
(6.67126e-05 -0.000276301 0)
(7.37669e-05 -0.000274391 0)
(8.03313e-05 -0.000271838 0)
(8.68536e-05 -0.000268787 0)
(9.34554e-05 -0.000265423 0)
(0.000100673 -0.000261938 0)
(0.00010854 -0.000258573 0)
(0.000116934 -0.000255613 0)
(0.000126408 -0.000253207 0)
(0.000136849 -0.000251571 0)
(0.000148141 -0.000250818 0)
(0.000160104 -0.000250829 0)
(0.000172282 -0.000251618 0)
(0.000185409 -0.000252986 0)
(0.000199024 -0.000254739 0)
(0.000213202 -0.000256506 0)
(0.000228334 -0.000258108 0)
(0.000243089 -0.000259061 0)
(0.000258244 -0.000259338 0)
(0.000273174 -0.000258246 0)
(0.000288291 -0.000256279 0)
(0.000304616 -0.000252785 0)
(0.000320856 -0.000247925 0)
(0.000338002 -0.000241428 0)
(0.000355546 -0.000233358 0)
(0.000373017 -0.000223502 0)
(0.00039063 -0.000211879 0)
(0.000408068 -0.000198395 0)
(0.000424988 -0.000183134 0)
(0.000440904 -0.000166049 0)
(0.000456004 -0.000147162 0)
(0.000469949 -0.00012658 0)
(0.000482349 -0.00010441 0)
(0.000492946 -8.07939e-05 0)
(0.000501626 -5.58998e-05 0)
(0.000507972 -2.98622e-05 0)
(0.000511807 -2.82196e-06 0)
(0.00051349 2.50484e-05 0)
(0.000512524 5.34433e-05 0)
(0.000508701 8.21764e-05 0)
(0.000501849 0.000110951 0)
(0.000492194 0.000139586 0)
(0.000479675 0.000167786 0)
(0.000464565 0.000195302 0)
(0.000446359 0.000221751 0)
(0.000425043 0.000246873 0)
(0.000401267 0.000270355 0)
(0.000374688 0.000291905 0)
(0.000345786 0.000311227 0)
(0.000314703 0.000328115 0)
(0.000281713 0.000342278 0)
(0.000247083 0.000353476 0)
(0.000211108 0.000361611 0)
(0.000173972 0.000366327 0)
(0.000136487 0.000367702 0)
(9.88757e-05 0.000365493 0)
(6.12791e-05 0.000359751 0)
(2.43834e-05 0.000350393 0)
(-1.14168e-05 0.000337556 0)
(-4.57413e-05 0.000321227 0)
(-7.81446e-05 0.000301636 0)
(-0.000108185 0.000278949 0)
(-0.000135462 0.000253446 0)
(-0.000159598 0.000225418 0)
(-0.000180241 0.000195257 0)
(-0.000197149 0.000163308 0)
(-0.000209997 0.000130055 0)
(-0.000218531 9.59927e-05 0)
(-0.000222859 6.16153e-05 0)
(-0.000222724 2.75241e-05 0)
(-0.000218071 -5.80929e-06 0)
(-0.000209136 -3.78571e-05 0)
(-0.000196139 -6.80426e-05 0)
(-0.000179262 -9.57786e-05 0)
(-0.000158803 -0.000120657 0)
(-0.000135192 -0.000142141 0)
(-0.000108899 -0.00015989 0)
(-8.04879e-05 -0.000173516 0)
(-5.0607e-05 -0.000182806 0)
(-1.98558e-05 -0.000187532 0)
(1.10952e-05 -0.000187666 0)
(4.14689e-05 -0.000183165 0)
(7.0597e-05 -0.0001742 0)
(9.77654e-05 -0.000160962 0)
(0.000122301 -0.000143789 0)
(0.000143559 -0.000123107 0)
(0.000161044 -9.94808e-05 0)
(0.000174316 -7.35469e-05 0)
(0.000183008 -4.59935e-05 0)
(0.000186878 -1.75659e-05 0)
(0.00018572 1.09156e-05 0)
(0.000179632 3.87403e-05 0)
(0.000168817 6.50778e-05 0)
(0.000153552 8.91668e-05 0)
(0.00013427 0.000110247 0)
(0.000111583 0.00012773 0)
(8.61673e-05 0.000141069 0)
(5.88257e-05 0.000149874 0)
(3.04083e-05 0.000153871 0)
(1.84463e-06 0.000152981 0)
(-2.59542e-05 0.000147257 0)
(-5.20513e-05 0.000136988 0)
(-7.55992e-05 0.000122491 0)
(-9.5872e-05 0.000104373 0)
(-0.000112182 8.32888e-05 0)
(-0.000124044 6.00283e-05 0)
(-0.000131139 3.54756e-05 0)
(-0.000133274 1.04992e-05 0)
(-0.000130532 -1.39766e-05 0)
(-0.000123161 -3.71162e-05 0)
(-0.000111475 -5.80947e-05 0)
(-9.60381e-05 -7.62355e-05 0)
(-7.75217e-05 -9.09475e-05 0)
(-5.67251e-05 -0.000101851 0)
(-3.44518e-05 -0.000108668 0)
(-1.15771e-05 -0.000111346 0)
(1.10259e-05 -0.000109957 0)
(3.25635e-05 -0.000104755 0)
(5.22823e-05 -9.61152e-05 0)
(6.95735e-05 -8.45392e-05 0)
(8.39458e-05 -7.0625e-05 0)
(9.49969e-05 -5.4989e-05 0)
(0.000102533 -3.8332e-05 0)
(0.000106467 -2.13148e-05 0)
(0.00010686 -4.57434e-06 0)
(0.000103909 1.13034e-05 0)
(9.79062e-05 2.5802e-05 0)
(8.9262e-05 3.84947e-05 0)
(7.84055e-05 4.90719e-05 0)
(6.58518e-05 5.73008e-05 0)
(5.21224e-05 6.3064e-05 0)
(3.77755e-05 6.63635e-05 0)
(2.33086e-05 6.72286e-05 0)
(9.19989e-06 6.58642e-05 0)
(-4.10363e-06 6.24697e-05 0)
(-1.62256e-05 5.73245e-05 0)
(-2.68899e-05 5.07197e-05 0)
(-3.58648e-05 4.30209e-05 0)
(-4.29455e-05 3.45401e-05 0)
(-4.80904e-05 2.56306e-05 0)
(-5.12449e-05 1.66268e-05 0)
(-5.24593e-05 7.80238e-06 0)
(-5.18631e-05 -5.55947e-07 0)
(-4.95845e-05 -8.22547e-06 0)
(-4.582e-05 -1.50269e-05 0)
(-4.07866e-05 -2.08018e-05 0)
(-3.47308e-05 -2.54673e-05 0)
(-2.79003e-05 -2.89574e-05 0)
(-2.05623e-05 -3.12629e-05 0)
(-1.29712e-05 -3.23929e-05 0)
(-5.36937e-06 -3.24248e-05 0)
(2.00672e-06 -3.14316e-05 0)
(8.9509e-06 -2.95338e-05 0)
(1.52843e-05 -2.68302e-05 0)
(2.08577e-05 -2.34919e-05 0)
(2.55483e-05 -1.96297e-05 0)
(2.92663e-05 -1.5419e-05 0)
(3.19535e-05 -1.0993e-05 0)
(3.35831e-05 -6.49597e-06 0)
(3.41623e-05 -2.06138e-06 0)
(3.3719e-05 2.19674e-06 0)
(3.23101e-05 6.17574e-06 0)
(3.00161e-05 9.78629e-06 0)
(2.69294e-05 1.29491e-05 0)
(2.31586e-05 1.56229e-05 0)
(1.88261e-05 1.77618e-05 0)
(1.40601e-05 1.93474e-05 0)
(8.99194e-06 2.03757e-05 0)
(3.75445e-06 2.08507e-05 0)
(-1.53195e-06 2.08014e-05 0)
(-6.73424e-06 2.02547e-05 0)
(-1.17322e-05 1.9252e-05 0)
(-1.64246e-05 1.78402e-05 0)
(-2.07084e-05 1.6081e-05 0)
(-2.4508e-05 1.40271e-05 0)
(-2.77521e-05 1.17432e-05 0)
(-3.03823e-05 9.28317e-06 0)
(-3.23573e-05 6.71136e-06 0)
(-3.36508e-05 4.08528e-06 0)
(-3.42511e-05 1.46134e-06 0)
(-3.41556e-05 -1.11329e-06 0)
(-3.33772e-05 -3.58484e-06 0)
(-3.19437e-05 -5.92402e-06 0)
(-2.98876e-05 -8.08704e-06 0)
(-2.72472e-05 -1.00455e-05 0)
(-2.40768e-05 -1.17789e-05 0)
(-2.04321e-05 -1.32615e-05 0)
(-1.63759e-05 -1.44735e-05 0)
(-1.19786e-05 -1.54047e-05 0)
(-7.3137e-06 -1.60362e-05 0)
(-2.46212e-06 -1.63569e-05 0)
(2.71497e-06 -0.000251846 0)
(8.03607e-06 -0.00024939 0)
(1.37857e-05 -0.000246626 0)
(2.03847e-05 -0.000242479 0)
(2.78435e-05 -0.000237006 0)
(3.67448e-05 -0.000230465 0)
(4.66149e-05 -0.000222868 0)
(5.86544e-05 -0.000215269 0)
(7.19427e-05 -0.0002071 0)
(8.59098e-05 -0.000200673 0)
(0.000100987 -0.000196117 0)
(0.000114886 -0.000193933 0)
(0.000127286 -0.000194406 0)
(0.000137837 -0.000197469 0)
(0.000146498 -0.000202836 0)
(0.000152845 -0.000210129 0)
(0.000157348 -0.000218927 0)
(0.000160362 -0.000228718 0)
(0.000162411 -0.000239188 0)
(0.000165034 -0.000249908 0)
(0.000168408 -0.000260587 0)