/*--------------------------------*- C++ -*----------------------------------*\
  =========                 |
  \\      /  F ield         | OpenFOAM: The Open Source CFD Toolbox
   \\    /   O peration     | Website:  https://openfoam.org
    \\  /    A nd           | Version:  12
     \\/     M anipulation  |
\*---------------------------------------------------------------------------*/
FoamFile
{
    format      ascii;
    class       volVectorField;
    location    "5";
    object      zeta;
}
// * * * * * * * * * * * * * * * * * * * * * * * * * * * * * * * * * * * * * //

dimensions      [0 1 0 0 0 0 0];

internalField   uniform (0 0 0);

boundaryField
{
    freeSurface
    {
        type            calculated;
        value           nonuniform List<vector> 
181
(
(0 0.00306072 0)
(0 0.00306052 0)
(0 0.00306023 0)
(0 0.00305965 0)
(0 0.00305929 0)
(0 0.00305868 0)
(0 0.00305853 0)
(0 0.00305785 0)
(0 0.000396803 0)
(0 0.000399604 0)
(0 0.000407118 0)
(0 0.000416142 0)
(0 0.000428204 0)
(0 0.000442373 0)
(0 0.000458237 0)
(0 0.000475391 0)
(0 0.000493329 0)
(0 0.000511572 0)
(0 0.000529565 0)
(0 0.00054679 0)
(0 0.000562703 0)
(0 0.000576826 0)
(0 0.000588872 0)
(0 0.000598451 0)
(0 0.000605261 0)
(0 0.000608962 0)
(0 0.000609312 0)
(0 0.000606037 0)
(0 0.000598987 0)
(0 0.000588034 0)
(0 0.000573129 0)
(0 0.000554235 0)
(0 0.000531383 0)
(0 0.000504634 0)
(0 0.000474116 0)
(0 0.000439961 0)
(0 0.000402406 0)
(0 0.000361746 0)
(0 0.000318327 0)
(0 0.000272461 0)
(0 0.000224571 0)
(0 0.000175124 0)
(0 0.000124609 0)
(0 7.3556e-05 0)
(0 2.25577e-05 0)
(0 -2.7802e-05 0)
(0 -7.69614e-05 0)
(0 -0.000124279 0)
(0 -0.000169176 0)
(0 -0.000211015 0)
(0 -0.000249255 0)
(0 -0.000283333 0)
(0 -0.00031277 0)
(0 -0.000337095 0)
(0 -0.000355924 0)
(0 -0.000368945 0)
(0 -0.000375918 0)
(0 -0.0003767 0)
(0 -0.000371244 0)
(0 -0.000359615 0)
(0 -0.000341987 0)
(0 -0.000318637 0)
(0 -0.000289982 0)
(0 -0.000256498 0)
(0 -0.000218844 0)
(0 -0.000177735 0)
(0 -0.000133961 0)
(0 -8.84082e-05 0)
(0 -4.20453e-05 0)
(0 4.14466e-06 0)
(0 4.91557e-05 0)
(0 9.19852e-05 0)
(0 0.000131615 0)
(0 0.00016712 0)
(0 0.000197655 0)
(0 0.000222456 0)
(0 0.000240925 0)
(0 0.000252575 0)
(0 0.00025712 0)
(0 0.000254457 0)
(0 0.000244679 0)
(0 0.00022808 0)
(0 0.000205137 0)
(0 0.000176542 0)
(0 0.000143124 0)
(0 0.000105955 0)
(0 6.61987e-05 0)
(0 2.51895e-05 0)
(0 -1.57142e-05 0)
(0 -5.5073e-05 0)
(0 -9.15474e-05 0)
(0 -0.000123836 0)
(0 -0.000150862 0)
(0 -0.000171717 0)
(0 -0.000185843 0)
(0 -0.000192884 0)
(0 -0.000192897 0)
(0 -0.000186178 0)
(0 -0.000173353 0)
(0 -0.00015527 0)
(0 -0.000132974 0)
(0 -0.00010761 0)
(0 -8.04156e-05 0)
(0 -5.25993e-05 0)
(0 -2.53214e-05 0)
(0 3.82668e-07 0)
(0 2.36238e-05 0)
(0 4.36962e-05 0)
(0 6.01099e-05 0)
(0 7.25469e-05 0)
(0 8.09144e-05 0)
(0 8.52717e-05 0)
(0 8.58356e-05 0)
(0 8.29577e-05 0)
(0 7.70822e-05 0)
(0 6.87191e-05 0)
(0 5.84113e-05 0)
(0 4.67232e-05 0)
(0 3.41989e-05 0)
(0 2.13488e-05 0)
(0 8.65389e-06 0)
(0 -3.48352e-06 0)
(0 -1.47303e-05 0)
(0 -2.47968e-05 0)
(0 -3.3484e-05 0)
(0 -4.06616e-05 0)
(0 -4.62617e-05 0)
(0 -5.02749e-05 0)
(0 -5.2733e-05 0)
(0 -5.37241e-05 0)
(0 -5.33594e-05 0)
(0 -5.17831e-05 0)
(0 -4.91629e-05 0)
(0 -4.56681e-05 0)
(0 -4.14831e-05 0)
(0 -3.67935e-05 0)
(0 -3.17765e-05 0)
(0 -2.65964e-05 0)
(0 -2.14062e-05 0)
(0 -1.63471e-05 0)
(0 -1.15393e-05 0)
(0 -7.08911e-06 0)
(0 -3.07958e-06 0)
(0 4.25725e-07 0)
(0 3.38219e-06 0)
(0 5.76417e-06 0)
(0 7.5664e-06 0)
(0 8.79531e-06 0)
(0 9.47275e-06 0)
(0 9.63329e-06 0)
(0 9.3213e-06 0)
(0 8.5897e-06 0)
(0 7.49267e-06 0)
(0 6.09037e-06 0)
(0 4.44254e-06 0)
(0 2.61443e-06 0)
(0 6.71945e-07 0)
(0 -1.31657e-06 0)
(0 -3.288e-06 0)
(0 -5.18624e-06 0)
(0 -6.96449e-06 0)
(0 -8.58708e-06 0)
(0 -1.00244e-05 0)
(0 -1.12558e-05 0)
(0 -1.22654e-05 0)
(0 -1.30432e-05 0)
(0 -1.35846e-05 0)
(0 -1.38953e-05 0)
(0 -1.39886e-05 0)
(0 -1.38884e-05 0)
(0 -1.36217e-05 0)
(0 -1.32188e-05 0)
(0 -1.27094e-05 0)
(0 -1.21231e-05 0)
(0 -1.14933e-05 0)
(0 -1.08582e-05 0)
(0 -1.02572e-05 0)
(0 -9.72721e-06 0)
(0 -9.29898e-06 0)
(0 -8.997e-06 0)
(0 -8.83945e-06 0)
)
;
    }
    walls
    {
        type            calculated;
        value           uniform (0 0 0);
    }
    floatingObject
    {
        type            calculated;
        value           uniform (0 0 0);
    }
    frontAndBack
    {
        type            empty;
    }
}


// ************************************************************************* //
