/*--------------------------------*- C++ -*----------------------------------*\
  =========                 |
  \\      /  F ield         | OpenFOAM: The Open Source CFD Toolbox
   \\    /   O peration     | Website:  https://openfoam.org
    \\  /    A nd           | Version:  12
     \\/     M anipulation  |
\*---------------------------------------------------------------------------*/
FoamFile
{
    format      ascii;
    class       volVectorField;
    location    "17.9";
    object      zeta;
}
// * * * * * * * * * * * * * * * * * * * * * * * * * * * * * * * * * * * * * //

dimensions      [0 1 0 0 0 0 0];

internalField   uniform (0 0 0);

boundaryField
{
    freeSurface
    {
        type            calculated;
        value           nonuniform List<vector> 
181
(
(0 0.00486592 0)
(0 0.00486628 0)
(0 0.00486523 0)
(0 0.00486316 0)
(0 0.00486134 0)
(0 0.00485808 0)
(0 0.00485713 0)
(0 0.00485288 0)
(0 0.00138793 0)
(0 0.00139014 0)
(0 0.00139752 0)
(0 0.00140584 0)
(0 0.00141419 0)
(0 0.00142495 0)
(0 0.00143469 0)
(0 0.00144455 0)
(0 0.00145236 0)
(0 0.00145755 0)
(0 0.00145894 0)
(0 0.00145555 0)
(0 0.00144703 0)
(0 0.00143259 0)
(0 0.00141213 0)
(0 0.00138497 0)
(0 0.00135063 0)
(0 0.00130856 0)
(0 0.00125835 0)
(0 0.00119999 0)
(0 0.00113353 0)
(0 0.00105915 0)
(0 0.000977116 0)
(0 0.000887681 0)
(0 0.000791215 0)
(0 0.00068806 0)
(0 0.000579163 0)
(0 0.000465185 0)
(0 0.000347027 0)
(0 0.000225587 0)
(0 0.000101865 0)
(0 -2.30952e-05 0)
(0 -0.000148083 0)
(0 -0.000271795 0)
(0 -0.000392933 0)
(0 -0.000510214 0)
(0 -0.00062226 0)
(0 -0.000727624 0)
(0 -0.000824897 0)
(0 -0.000912634 0)
(0 -0.000989401 0)
(0 -0.00105382 0)
(0 -0.00110474 0)
(0 -0.00114142 0)
(0 -0.00116272 0)
(0 -0.00116794 0)
(0 -0.00115663 0)
(0 -0.00112861 0)
(0 -0.00108378 0)
(0 -0.00102244 0)
(0 -0.000945104 0)
(0 -0.000852589 0)
(0 -0.000745898 0)
(0 -0.000626362 0)
(0 -0.000495774 0)
(0 -0.000356139 0)
(0 -0.00020958 0)
(0 -5.8773e-05 0)
(0 9.36209e-05 0)
(0 0.000244505 0)
(0 0.00039092 0)
(0 0.000529822 0)
(0 0.000658115 0)
(0 0.000772669 0)
(0 0.000870871 0)
(0 0.000949958 0)
(0 0.0010077 0)
(0 0.00104211 0)
(0 0.00105176 0)
(0 0.00103568 0)
(0 0.000993498 0)
(0 0.000925761 0)
(0 0.00083337 0)
(0 0.000718156 0)
(0 0.000582894 0)
(0 0.000430643 0)
(0 0.000265531 0)
(0 9.19458e-05 0)
(0 -8.50893e-05 0)
(0 -0.000260393 0)
(0 -0.000428374 0)
(0 -0.000583408 0)
(0 -0.000720029 0)
(0 -0.000833021 0)
(0 -0.000917925 0)
(0 -0.000971063 0)
(0 -0.000989625 0)
(0 -0.000971817 0)
(0 -0.000917512 0)
(0 -0.000827677 0)
(0 -0.000704985 0)
(0 -0.000553493 0)
(0 -0.000378724 0)
(0 -0.000187402 0)
(0 1.23059e-05 0)
(0 0.000212253 0)
(0 0.000403627 0)
(0 0.000577058 0)
(0 0.000724117 0)
(0 0.000836816 0)
(0 0.000908615 0)
(0 0.000934982 0)
(0 0.000913025 0)
(0 0.000842809 0)
(0 0.000726897 0)
(0 0.000570554 0)
(0 0.000381823 0)
(0 0.000170872 0)
(0 -5.05449e-05 0)
(0 -0.000269229 0)
(0 -0.000472302 0)
(0 -0.000646609 0)
(0 -0.000779986 0)
(0 -0.000863028 0)
(0 -0.000888863 0)
(0 -0.000854398 0)
(0 -0.000760775 0)
(0 -0.00061333 0)
(0 -0.00042204 0)
(0 -0.000200615 0)
(0 3.36321e-05 0)
(0 0.000262882 0)
(0 0.000468708 0)
(0 0.000632793 0)
(0 0.000739909 0)
(0 0.000779687 0)
(0 0.000747096 0)
(0 0.000644232 0)
(0 0.000480167 0)
(0 0.000270344 0)
(0 3.64059e-05 0)
(0 -0.000197977 0)
(0 -0.000409515 0)
(0 -0.000574325 0)
(0 -0.000673735 0)
(0 -0.000695819 0)
(0 -0.000637461 0)
(0 -0.00050526 0)
(0 -0.00031524 0)
(0 -9.15936e-05 0)
(0 0.000137009 0)
(0 0.000343266 0)
(0 0.000498905 0)
(0 0.000582627 0)
(0 0.000582236 0)
(0 0.00049735 0)
(0 0.000339972 0)
(0 0.0001334 0)
(0 -9.01958e-05 0)
(0 -0.000299888 0)
(0 -0.000462701 0)
(0 -0.000552454 0)
(0 -0.000554257 0)
(0 -0.000467329 0)
(0 -0.000306364 0)
(0 -9.91311e-05 0)
(0 0.000119298 0)
(0 0.000313501 0)
(0 0.000448765 0)
(0 0.000501049 0)
(0 0.000460247 0)
(0 0.000334971 0)
(0 0.000151752 0)
(0 -5.50284e-05 0)
(0 -0.000245632 0)
(0 -0.000381648 0)
(0 -0.000435727 0)
(0 -0.000394709 0)
(0 -0.0002698 0)
(0 -8.7459e-05 0)
(0 0.00011126 0)
(0 0.000279944 0)
(0 0.000377467 0)
)
;
    }
    walls
    {
        type            calculated;
        value           uniform (0 0 0);
    }
    floatingObject
    {
        type            calculated;
        value           uniform (0 0 0);
    }
    frontAndBack
    {
        type            empty;
    }
}


// ************************************************************************* //
