/*--------------------------------*- C++ -*----------------------------------*\
  =========                 |
  \\      /  F ield         | OpenFOAM: The Open Source CFD Toolbox
   \\    /   O peration     | Website:  https://openfoam.org
    \\  /    A nd           | Version:  12
     \\/     M anipulation  |
\*---------------------------------------------------------------------------*/
FoamFile
{
    format      ascii;
    class       volScalarField;
    location    "13.1";
    object      p_rgh;
}
// * * * * * * * * * * * * * * * * * * * * * * * * * * * * * * * * * * * * * //

dimensions      [1 -1 -2 0 0 0 0];

internalField   nonuniform List<scalar> 
3829
(
-4.25998
-4.25868
-4.25608
-4.25207
-4.24657
-4.23948
-4.23072
-4.22016
-4.2077
-4.1932
-4.17654
-4.15756
-4.13614
-4.11215
-4.08547
-4.05598
-4.02355
-3.98807
-3.94944
-3.90755
-3.86231
-3.81366
-3.76153
-3.70591
-3.64678
-3.58416
-3.51813
-3.44881
-3.37523
-3.29736
-3.21571
-3.13064
-3.04248
-2.95154
-2.85814
-2.76257
-2.66516
-2.56623
-2.46611
-2.36512
-2.26363
-2.16197
-2.06051
-1.95966
-1.85981
-1.76137
-1.66476
-1.57038
-1.47864
-1.38993
-1.30463
-1.22312
-1.14576
-1.07286
-1.00473
-0.94167
-0.884247
-0.832807
-0.787262
-0.747554
-0.713611
-0.685344
-0.662609
-0.645247
-0.633063
-0.625773
-0.623054
-0.624479
-0.629566
-0.637883
-0.648687
-0.66136
-0.675259
-0.689697
-0.703959
-0.717309
-0.729017
-0.738365
-0.744659
-0.747253
-0.745579
-0.73914
-0.727525
-0.708237
-0.682735
-0.651128
-0.613616
-0.5705
-0.522159
-0.46908
-0.411899
-0.351415
-0.288587
-0.224488
-0.160307
-0.0973331
-0.0368836
0.0196914
0.0710789
0.116024
0.153373
0.182163
0.201636
0.211371
0.207115
0.19213
0.166915
0.132133
0.0886444
0.0376175
-0.0194088
-0.0806226
-0.144823
-0.207893
-0.268403
-0.324004
-0.372404
-0.411498
-0.439483
-0.454974
-0.457085
-0.44418
-0.417155
-0.377012
-0.325098
-0.263309
-0.194112
-0.120286
-0.0453201
0.0273729
0.0944611
0.152693
0.199242
0.231892
0.249175
0.248062
0.230751
0.198622
0.153582
0.0984463
0.0366459
-0.0286856
-0.0907076
-0.146217
-0.191561
-0.223751
-0.240776
-0.241885
-0.22704
-0.198477
-0.159182
-0.113292
-0.0656956
-0.0125647
0.0241252
0.0493995
0.0598509
0.0537674
0.0298832
-0.00890146
-0.0593387
-0.117178
-0.176931
-0.231714
-0.276676
-0.307339
-0.320975
-0.310986
-0.283708
-0.241785
-0.189678
-0.132987
-0.0781739
-0.0310951
0.00376641
0.0235734
0.0272181
0.0167712
-0.00483337
-0.035267
-0.0648453
-0.0916157
-0.111922
-0.122744
-0.124915
-0.11983
-0.109009
-0.0971028
-0.0858601
-0.0772297
-0.0718577
-0.0690818
-0.067544
-0.0652477
-0.061048
-0.054443
-0.0456822
-0.0361104
-0.0278962
-0.0230822
-4.33762
-4.33675
-4.33489
-4.33206
-4.32827
-4.32352
-4.31781
-4.3112
-4.30378
-4.29578
-4.28611
-4.27359
-4.25781
-4.23868
-4.21609
-4.18995
-4.16009
-4.12634
-4.08854
-4.04651
-4.00011
-3.94918
-3.89356
-3.83313
-3.76779
-3.69737
-3.62162
-3.54017
-3.45529
-3.36846
-3.279
-3.18651
-3.09077
-2.99169
-2.88937
-2.78407
-2.6762
-2.56615
-2.45441
-2.34147
-2.22787
-2.11416
-2.00085
-1.88847
-1.77754
-1.66858
-1.56211
-1.45862
-1.35858
-1.26245
-1.17066
-1.08357
-1.00151
-0.924781
-0.853529
-0.787673
-0.732287
-0.683768
-0.642024
-0.606999
-0.578644
-0.556882
-0.541585
-0.532566
-0.529573
-0.532272
-0.540219
-0.552885
-0.569683
-0.59104
-0.614112
-0.639148
-0.665325
-0.691776
-0.717608
-0.741901
-0.763746
-0.782262
-0.796601
-0.805964
-0.809643
-0.807043
-0.797726
-0.778851
-0.752241
-0.717962
-0.676166
-0.627138
-0.571314
-0.509315
-0.441978
-0.370333
-0.295596
-0.219124
-0.14241
-0.0670808
0.0052134
0.0727747
0.133946
0.187133
0.230848
0.263804
0.284984
0.293527
0.288355
0.269824
0.238499
0.195154
0.140919
0.0773543
0.00644362
-0.0695195
-0.149186
-0.227242
-0.302051
-0.37071
-0.430393
-0.478506
-0.512828
-0.531626
-0.533706
-0.517979
-0.485145
-0.436226
-0.372878
-0.297558
-0.213353
-0.123779
-0.0331464
0.0544156
0.134768
0.203919
0.258421
0.295497
0.313314
0.310121
0.287202
0.24612
0.189588
0.121494
0.0467946
-0.0392827
-0.113064
-0.179485
-0.233374
-0.270808
-0.289231
-0.28761
-0.266612
-0.228516
-0.177139
-0.117507
-0.0551484
0.00453712
0.0526821
0.0854323
0.0991931
0.0919975
0.0636475
0.0168073
-0.0443227
-0.114347
-0.186474
-0.25208
-0.305288
-0.3405
-0.354121
-0.342865
-0.310231
-0.25977
-0.197303
-0.129753
-0.0655159
-0.0112441
0.0276094
0.0478411
0.0490566
0.0334302
0.00495722
-0.0324661
-0.0685019
-0.100035
-0.122754
-0.134094
-0.134559
-0.126283
-0.111848
-0.096657
-0.0832649
-0.073847
-0.0689375
-0.0675282
-0.067667
-0.0667337
-0.0631301
-0.0561406
-0.0461115
-0.0348217
-0.0249798
-0.0191697
-4.6822
-4.68211
-4.68189
-4.68126
-4.67982
-4.67701
-4.67208
-4.66371
-4.6539
-4.64171
-4.62767
-4.61235
-4.59567
-4.57664
-4.55484
-4.52969
-4.50067
-4.46727
-4.42905
-4.38561
-4.33657
-4.28166
-4.22068
-4.15349
-4.08005
-4.00042
-3.91483
-3.82369
-3.72734
-3.62486
-3.51245
-3.39269
-3.2673
-3.13755
-3.00449
-2.86897
-2.73168
-2.5931
-2.45368
-2.31392
-2.17439
-2.03569
-1.89844
-1.7633
-1.63091
-1.50189
-1.37692
-1.25659
-1.14156
-1.03244
-0.929783
-0.834157
-0.746176
-0.666376
-0.595361
-0.53396
-0.47672
-0.428563
-0.389625
-0.359953
-0.339524
-0.328208
-0.325768
-0.331816
-0.345825
-0.367197
-0.395255
-0.429238
-0.468297
-0.511895
-0.55821
-0.606524
-0.655693
-0.704543
-0.751861
-0.796394
-0.83691
-0.872223
-0.901175
-0.92272
-0.935907
-0.939944
-0.934174
-0.91603
-0.887079
-0.847349
-0.796972
-0.736306
-0.665949
-0.586799
-0.500049
-0.407139
-0.30978
-0.209844
-0.109331
-0.0106295
0.0840722
0.172433
0.252173
0.321101
0.377186
0.418727
0.444234
0.452475
0.443525
0.416869
0.372974
0.312792
0.237911
0.150547
0.0534183
-0.0503219
-0.158797
-0.264878
-0.366324
-0.459208
-0.539762
-0.604505
-0.650449
-0.675224
-0.677136
-0.655737
-0.611507
-0.545694
-0.460635
-0.359792
-0.247416
-0.128395
-0.00847107
0.106769
0.211691
0.301003
0.370086
0.415352
0.434245
0.426149
0.391678
0.332909
0.253635
0.15903
0.0550755
-0.0530066
-0.153701
-0.242228
-0.312538
-0.359785
-0.380627
-0.373611
-0.340473
-0.284271
-0.210474
-0.126037
-0.0386519
0.042518
0.109142
0.154571
0.173805
0.164247
0.126835
0.0644331
-0.0169863
-0.109922
-0.205098
-0.29088
-0.359508
-0.403327
-0.417257
-0.402644
-0.359106
-0.292362
-0.210482
-0.12232
-0.0407201
0.0264094
0.0722149
0.0929132
0.0888568
0.0631619
0.0216954
-0.02885
-0.0767472
-0.116846
-0.143742
-0.155339
-0.152215
-0.13782
-0.115834
-0.0947221
-0.0775894
-0.0669999
-0.0632797
-0.0646898
-0.0681441
-0.0699023
-0.0674469
-0.0596734
-0.0471911
-0.032588
-0.019613
-0.0118957
-4.72504
-4.72713
-4.73137
-4.7379
-4.7469
-4.75857
-4.77318
-4.79148
-4.81024
-4.82933
-4.84877
-4.86498
-4.87705
-4.88447
-4.88658
-4.88263
-4.87184
-4.85347
-4.8268
-4.79118
-4.74603
-4.69086
-4.6251
-4.54879
-4.46165
-4.36358
-4.25454
-4.13451
-4.00316
-3.85913
-3.71622
-3.56941
-3.41757
-3.26035
-3.09801
-2.93111
-2.76052
-2.58736
-2.41278
-2.23782
-2.0638
-1.89157
-1.72205
-1.55617
-1.39479
-1.2388
-1.08899
-0.946179
-0.811089
-0.684455
-0.566981
-0.45925
-0.361771
-0.27507
-0.199411
-0.135141
-0.0819676
-0.0422108
-0.0146374
0.00106002
0.00500203
-0.00261689
-0.0214958
-0.0511779
-0.0910322
-0.140289
-0.198035
-0.263226
-0.334668
-0.411061
-0.490965
-0.572862
-0.655157
-0.736219
-0.814364
-0.88786
-0.955019
-1.01418
-1.06378
-1.10234
-1.12858
-1.14127
-1.13934
-1.12225
-1.08968
-1.04159
-0.978148
-0.899891
-0.80774
-0.703049
-0.587517
-0.463203
-0.332495
-0.19802
-0.0626408
0.0703569
0.197904
0.316741
0.423705
0.515764
0.590138
0.644365
0.676346
0.684885
0.669813
0.630552
0.567632
0.482404
0.377147
0.254914
0.119513
-0.0247316
-0.174556
-0.321334
-0.461336
-0.589145
-0.699581
-0.787912
-0.850125
-0.883094
-0.884742
-0.854671
-0.793278
-0.702389
-0.585475
-0.447385
-0.294118
-0.132237
0.0299589
0.185012
0.325222
0.443279
0.533041
0.589548
0.609804
0.593607
0.541353
0.456202
0.343695
0.211091
0.0668559
-0.0796093
-0.21678
-0.336167
-0.429478
-0.490338
-0.514508
-0.498572
-0.446868
-0.363992
-0.257523
-0.137149
-0.013353
0.100198
0.193202
0.256261
0.282792
0.269582
0.218174
0.132583
0.0213879
-0.104748
-0.233103
-0.34806
-0.438889
-0.495581
-0.511823
-0.489181
-0.428417
-0.337739
-0.228203
-0.108733
-0.00312821
0.0816419
0.136665
0.157374
0.144717
0.103888
0.0433766
-0.0262021
-0.0909114
-0.1428
-0.175067
-0.186015
-0.177076
-0.153755
-0.119326
-0.0901934
-0.0680803
-0.0562469
-0.0547461
-0.0606754
-0.0692402
-0.0751058
-0.0743478
-0.0653542
-0.0492037
-0.0296406
-0.011998
-0.0014612
-4.96369
-4.97167
-4.98766
-5.01137
-5.04223
-5.07931
-5.12142
-5.167
-5.21425
-5.26082
-5.30659
-5.35254
-5.39676
-5.43693
-5.47088
-5.49657
-5.51214
-5.51609
-5.50641
-5.48205
-5.44198
-5.38541
-5.31188
-5.22127
-5.11383
-4.99016
-4.85138
-4.69895
-4.5351
-4.36386
-4.16569
-3.95385
-3.73355
-3.50869
-3.28125
-3.05216
-2.82238
-2.59293
-2.36483
-2.13912
-1.91686
-1.69904
-1.48666
-1.2809
-1.08244
-0.892377
-0.711634
-0.541135
-0.381756
-0.234294
-0.0995039
0.0218128
0.129025
0.221568
0.298784
0.360417
0.405517
0.43692
0.452704
0.452439
0.436219
0.40447
0.357837
0.297122
0.223274
0.13739
0.040743
-0.0652214
-0.178877
-0.29844
-0.42198
-0.547437
-0.67262
-0.795318
-0.913246
-1.02405
-1.12546
-1.21524
-1.29125
-1.35145
-1.39408
-1.41761
-1.42079
-1.40365
-1.36501
-1.30467
-1.2229
-1.12052
-0.998878
-0.859862
-0.705832
-0.539645
-0.3646
-0.184328
-0.00287548
0.175488
0.346421
0.505455
0.64827
0.770752
0.869052
0.939813
0.980372
0.988782
0.965513
0.90935
0.821031
0.70255
0.557109
0.388966
0.203261
0.00589647
-0.198135
-0.397907
-0.588119
-0.761371
-0.910584
-1.02941
-1.11241
-1.15549
-1.15604
-1.1137
-1.029
-0.90463
-0.745547
-0.558364
-0.351278
-0.133533
0.0838309
0.290603
0.476315
0.631324
0.747287
0.817925
0.839017
0.811061
0.734484
0.614029
0.457427
0.274954
0.0780737
-0.119615
-0.303874
-0.462663
-0.584869
-0.662465
-0.692068
-0.661413
-0.584547
-0.466375
-0.317007
-0.149553
0.0227498
0.178564
0.305425
0.390925
0.426363
0.407635
0.33695
0.220377
0.0698886
-0.0998311
-0.271253
-0.423944
-0.5433
-0.616124
-0.634733
-0.600448
-0.516166
-0.393911
-0.25054
-0.0859567
0.0478117
0.154498
0.220517
0.240173
0.215253
0.153941
0.0682382
-0.0262007
-0.112345
-0.178751
-0.217017
-0.225755
-0.208276
-0.17383
-0.120478
-0.0822094
-0.0540608
-0.0411535
-0.0431905
-0.0556127
-0.0712836
-0.0827662
-0.0842091
-0.0735173
-0.0523869
-0.0261326
-0.00222045
0.0121218
-4.68791
-4.7053
-4.74041
-4.79324
-4.8635
-4.95035
-5.05273
-5.16873
-5.29621
-5.43247
-5.57173
-5.70735
-5.83681
-5.95686
-6.06428
-6.15593
-6.22885
-6.28029
-6.30777
-6.30921
-6.28308
-6.22815
-6.14396
-6.0303
-5.8877
-5.71698
-5.51984
-5.2978
-5.05269
-4.78317
-4.51769
-4.24732
-3.97059
-3.68715
-3.3986
-3.1074
-2.81578
-2.52567
-2.23881
-1.95674
-1.68091
-1.41275
-1.15328
-0.903649
-0.66494
-0.438198
-0.224474
-0.0247343
0.160081
0.328983
0.481161
0.615823
0.732142
0.829455
0.907323
0.965441
1.00327
1.02009
1.01669
0.99315
0.949675
0.886729
0.80503
0.705561
0.589529
0.458382
0.313803
0.157692
-0.00778963
-0.18026
-0.357184
-0.535842
-0.713363
-0.886788
-1.05315
-1.2093
-1.35221
-1.47898
-1.58677
-1.6729
-1.73498
-1.77103
-1.77949
-1.7613
-1.71403
-1.63743
-1.53195
-1.39877
-1.23977
-1.05753
-0.855224
-0.636658
-0.406309
-0.169014
0.0698108
0.304474
0.529174
0.73797
0.925103
1.08508
1.21278
1.30383
1.35496
1.36311
1.32911
1.25144
1.13121
0.971264
0.775936
0.550853
0.302827
0.0398955
-0.230487
-0.495505
-0.747179
-0.975894
-1.17237
-1.32812
-1.4361
-1.49095
-1.48913
-1.43076
-1.31646
-1.15024
-0.93864
-0.690747
-0.417434
-0.130475
0.154399
0.4243
0.665384
0.864903
1.01224
1.099
1.12042
1.07653
0.968832
0.803958
0.592457
0.348162
0.0863254
-0.174427
-0.416114
-0.622459
-0.778542
-0.873045
-0.898188
-0.858093
-0.751698
-0.58992
-0.387715
-0.162687
0.0713463
0.278322
0.445961
0.558246
0.603714
0.577313
0.48196
0.32666
0.127493
-0.0959953
-0.319996
-0.518489
-0.672102
-0.763918
-0.784429
-0.734528
-0.62018
-0.45724
-0.265808
-0.0632009
0.110944
0.244674
0.323161
0.340205
0.299071
0.211763
0.0947326
-0.0301836
-0.142031
-0.225235
-0.269601
-0.273983
-0.244324
-0.193284
-0.122115
-0.0706276
-0.0350728
-0.0214518
-0.0285834
-0.0496637
-0.0745607
-0.0931801
-0.0973226
-0.0843999
-0.0568892
-0.0221616
0.00965737
0.0287931
-4.22981
-4.26621
-4.33959
-4.44963
-4.5953
-4.77432
-4.98395
-5.21921
-5.47487
-5.74288
-6.01624
-6.28992
-6.55533
-6.80457
-7.03071
-7.22755
-7.38974
-7.51275
-7.59291
-7.62717
-7.61339
-7.5502
-7.43743
-7.27582
-7.06788
-6.8172
-6.52983
-6.21326
-5.8794
-5.51429
-5.12686
-4.73079
-4.33312
-3.93702
-3.54521
-3.15972
-2.78205
-2.4133
-2.05442
-1.70628
-1.36978
-1.0458
-0.735998
-0.439553
-0.158207
0.106984
0.355012
0.584877
0.795584
0.986181
1.1556
1.3029
1.42723
1.52789
1.60399
1.65487
1.68048
1.68157
1.65691
1.60664
1.53129
1.43159
1.30854
1.16342
0.997795
0.813502
0.612709
0.397861
0.171758
-0.0625651
-0.301874
-0.542634
-0.781116
-1.01361
-1.23622
-1.44497
-1.63597
-1.80545
-1.94977
-2.06568
-2.15021
-2.20052
-2.21466
-2.19372
-2.13484
-2.03775
-1.90311
-1.73256
-1.52855
-1.29442
-1.03434
-0.753286
-0.457059
-0.15193
0.155002
0.456433
0.7448
1.0124
1.2518
1.45589
1.61811
1.73298
1.79593
1.80387
1.7566
1.65292
1.49452
1.28521
1.03055
0.737923
0.416313
0.0760212
-0.272549
-0.614276
-0.938079
-1.23148
-1.48276
-1.68117
-1.8177
-1.88561
-1.88042
-1.80209
-1.65208
-1.43578
-1.16181
-0.841876
-0.490206
-0.122088
0.242176
0.585872
0.891274
1.14228
1.32525
1.43004
1.45045
1.38647
1.24093
1.02283
0.745997
0.428415
0.0899646
-0.244887
-0.553762
-0.81535
-1.01063
-1.12528
-1.15019
-1.09115
-0.947272
-0.732792
-0.467927
-0.178891
0.136487
0.399006
0.613664
0.756555
0.812812
0.776575
0.651292
0.449697
0.192842
-0.0939934
-0.379443
-0.631237
-0.82418
-0.937111
-0.958679
-0.889276
-0.738717
-0.527645
-0.281926
-0.0306113
0.187859
0.351883
0.443507
0.455957
0.394542
0.275772
0.121501
-0.0391448
-0.180484
-0.282222
-0.332315
-0.329988
-0.284462
-0.212038
-0.122716
-0.0547777
-0.0108046
0.00291191
-0.011045
-0.0430386
-0.0793091
-0.106503
-0.113832
-0.0980768
-0.0627676
-0.0177928
0.0235452
0.0484203
-2.87819
-2.94687
-3.08564
-3.29522
-3.57576
-3.92418
-4.3403
-4.81382
-5.34264
-5.88879
-6.42875
-6.94593
-7.42986
-7.87107
-8.26277
-8.59977
-8.87785
-9.09237
-9.23859
-9.31222
-9.31003
-9.22935
-9.0687
-8.82705
-8.50648
-8.11037
-7.64743
-7.12549
-6.58561
-6.06051
-5.54181
-5.02784
-4.52162
-4.02577
-3.54211
-3.07169
-2.61547
-2.17429
-1.74872
-1.33932
-0.946731
-0.573029
-0.215407
0.124308
0.445123
0.746018
1.02601
1.28408
1.51911
1.72987
1.91516
2.07382
2.20483
2.30714
2.37981
2.42212
2.43371
2.41431
2.36379
2.2823
2.17031
2.02868
1.85861
1.66167
1.43981
1.19535
0.930976
0.649772
0.355192
0.0510515
-0.258583
-0.569329
-0.876522
-1.17545
-1.4613
-1.72905
-1.97392
-2.19115
-2.37636
-2.52523
-2.6341
-2.69987
-2.71952
-2.69457
-2.62145
-2.49999
-2.33118
-2.11714
-1.86102
-1.56701
-1.2404
-0.887538
-0.515719
-0.132909
0.251988
0.629717
0.990739
1.32536
1.62422
1.87835
2.07966
2.22132
2.29744
2.30458
2.24161
2.10772
1.90533
1.63926
1.31663
0.946848
0.541247
0.112881
-0.324488
-0.753266
-1.15879
-1.52536
-1.83823
-2.08411
-2.25191
-2.33333
-2.32367
-2.22186
-2.03047
-1.75649
-1.41107
-1.00888
-0.567759
-0.107415
0.346846
0.773804
1.15146
1.4598
1.68215
1.80589
1.82404
1.73587
1.54613
1.26656
0.914752
0.513317
0.0879121
-0.331065
-0.715797
-1.03929
-1.27827
-1.41539
-1.44065
-1.35665
-1.16798
-0.891822
-0.553088
-0.181492
0.202164
0.536966
0.806137
0.98334
1.05092
1.00231
0.842119
0.587181
0.264278
-0.0943679
-0.449254
-0.760867
-0.997425
-1.13313
-1.15446
-1.06193
-0.869477
-0.603538
-0.29688
0.0109953
0.278122
0.474955
0.579833
0.585508
0.499765
0.344328
0.147414
-0.0536586
-0.227707
-0.349217
-0.404248
-0.392824
-0.328029
-0.230931
-0.120151
-0.0341394
0.0187648
0.0317367
0.00913457
-0.0359732
-0.0856475
-0.122779
-0.133664
-0.114459
-0.0699962
-0.0130914
0.0392725
0.0707827
-0.718644
-0.832598
-1.06338
-1.4124
-1.88007
-2.46435
-3.1605
-3.96115
-4.87161
-5.8014
-6.72897
-7.62439
-8.46803
-9.2416
-9.92985
-10.5194
-10.9992
-11.3616
-11.6022
-11.7189
-11.7094
-11.5737
-11.3128
-10.9285
-10.4256
-9.81085
-9.09734
-8.29645
-7.51475
-6.74888
-6.01176
-5.31053
-4.64662
-4.01936
-3.42603
-2.86383
-2.32985
-1.82156
-1.33685
-0.874307
-0.433236
-0.0164138
0.382916
0.76134
1.11804
1.45195
1.76197
2.04686
2.30511
2.53526
2.73581
2.90529
3.04217
3.14522
3.21331
3.24551
3.24104
3.19952
3.12076
3.00498
2.85275
2.66508
2.44341
2.18966
1.90616
1.59575
1.26169
0.907736
0.538147
0.157571
-0.229056
-0.616391
-0.998695
-1.3702
-1.72509
-2.05723
-2.36068
-2.62988
-2.85917
-3.04364
-3.17868
-3.26059
-3.28616
-3.25538
-3.16537
-3.016
-2.80855
-2.54565
-2.23117
-1.87029
-1.46957
-1.03678
-0.58092
-0.111713
0.359623
0.821866
1.26328
1.67193
2.03634
2.34563
2.58995
2.76069
2.85118
2.85665
2.77572
2.6079
2.35635
2.0271
1.62901
1.17366
0.675101
0.149347
-0.386257
-0.910775
-1.40603
-1.85285
-2.23313
-2.53067
-2.73214
-2.82764
-2.81167
-2.68284
-2.44479
-2.1065
-1.68161
-1.18851
-0.648953
-0.085371
0.467403
0.985385
1.44175
1.81228
2.07678
2.22028
2.23446
2.11837
1.87879
1.53042
1.09521
0.601136
0.0792375
-0.43216
-0.899855
-1.29086
-1.57699
-1.73754
-1.76133
-1.64898
-1.4096
-1.06427
-0.643515
-0.183393
0.28102
0.692326
1.02082
1.23501
1.31407
1.25057
1.05089
0.736418
0.340392
-0.0976734
-0.528631
-0.905426
-1.18902
-1.34855
-1.36824
-1.24923
-1.00984
-0.6831
-0.309544
0.0608745
0.380429
0.611956
0.729869
0.726522
0.612627
0.415847
0.171592
-0.0738902
-0.283196
-0.425247
-0.484168
-0.461308
-0.374118
-0.249358
-0.11413
-0.00870739
0.0533188
0.0645868
0.0315656
-0.0287044
-0.0935917
-0.141865
-0.156572
-0.133319
-0.0784552
-0.00811285
0.0566105
0.0955529
2.72276
2.54973
2.19559
1.64607
0.871176
-0.133758
-1.47959
-3.05188
-5.48299
-7.24687
-8.82409
-10.1785
-11.3393
-12.3246
-13.1507
-13.8279
-14.3628
-14.7579
-15.0188
-15.1414
-15.1176
-14.9357
-14.5844
-14.0445
-13.2956
-12.3143
-11.1268
-9.27558
-8.06926
-6.97001
-6.03039
-5.19076
-4.43251
-3.73251
-3.07944
-2.46598
-1.8869
-1.33778
-0.814983
-0.316087
0.155438
0.609654
1.04283
1.45401
1.84223
2.20618
2.54423
2.85459
3.13536
3.38451
3.60005
3.78003
3.92259
4.02602
4.08883
4.10979
4.08796
4.02269
3.91376
3.76138
3.56617
3.32932
3.05252
2.73804
2.38868
2.00777
1.59924
1.16755
0.717801
0.255549
-0.213311
-0.682396
-1.14484
-1.59377
-2.02216
-2.42279
-2.78862
-3.11279
-3.38886
-3.61073
-3.77322
-3.87161
-3.9025
-3.8648
-3.75588
-3.57572
-3.32596
-3.00973
-2.63173
-2.19826
-1.71718
-1.19781
-0.651013
-0.088446
0.476244
1.02967
1.55771
2.04607
2.48101
2.84949
3.13966
3.34135
3.44663
3.44998
3.34911
3.14421
2.83921
2.44145
1.96168
1.41392
0.815108
0.18439
-0.456914
-1.08424
-1.6756
-2.2081
-2.66021
-3.01264
-3.24952
-3.35931
-3.33527
-3.17628
-2.88724
-2.47909
-1.96833
-1.37697
-0.731146
-0.0570352
0.601779
1.21694
1.75698
2.19328
2.50194
2.66533
2.67393
2.52674
2.23254
1.80936
1.2838
0.689768
0.0641292
-0.546425
-1.10274
-1.56547
-1.90118
-2.08565
-2.10603
-1.96239
-1.6674
-1.24679
-0.737617
-0.182934
0.37059
0.862758
1.25401
1.50693
1.59728
1.51665
1.27366
0.894437
0.419378
-0.104033
-0.616301
-1.06243
-1.39557
-1.57946
-1.59608
-1.44762
-1.15702
-0.764619
-0.319287
0.118101
0.49295
0.760393
0.890869
0.876346
0.73092
0.488831
0.193421
-0.0996238
-0.346034
-0.508947
-0.570586
-0.534087
-0.421755
-0.266768
-0.104688
0.0211564
0.0922611
0.100821
0.0557607
-0.0214557
-0.103067
-0.163473
-0.182166
-0.154298
-0.0879607
-0.00291465
0.0752855
0.122314
7.60005
7.39033
6.95154
6.24897
5.2333
3.85569
2.01319
-0.380123
-4.04838
-6.43142
-8.66448
-10.623
-12.3279
-13.7911
-15.0268
-16.0429
-16.8468
-17.3926
-17.781
-17.9596
-17.9254
-17.6724
-17.1911
-16.4679
-15.4823
-14.2239
-12.7594
-10.0799
-8.34633
-6.9305
-5.77597
-4.80451
-3.96207
-3.2171
-2.54126
-1.91634
-1.32706
-0.765837
-0.227094
0.290177
0.788895
1.26959
1.73084
2.17115
2.58875
2.98153
3.34715
3.68309
3.98671
4.25541
4.48658
4.6777
4.82639
4.93048
4.98803
4.99735
4.95783
4.86811
4.72793
4.53751
4.29757
4.00947
3.67517
3.2973
2.87913
2.42458
1.93822
1.42528
0.891747
0.344133
-0.210649
-0.765139
-1.31127
-1.841
-2.34612
-2.81808
-3.24871
-3.63009
-3.95457
-4.21513
-4.40566
-4.5208
-4.55659
-4.51079
-4.38127
-4.16809
-3.87316
-3.50023
-3.05481
-2.54435
-1.97816
-1.36726
-0.724399
-0.0633629
0.599878
1.24946
1.86879
2.44106
2.9501
3.38069
3.7188
3.95266
4.07294
4.07341
3.95106
3.70666
3.34491
2.87455
2.30839
1.66298
0.958376
0.21718
-0.53513
-1.27046
-1.96254
-2.58465
-3.11159
-3.52088
-3.79407
-3.91779
-3.88448
-3.693
-3.34957
-2.86714
-2.2658
-1.57125
-0.813345
-0.0221351
0.747708
1.46414
2.09122
2.59568
2.94967
3.13284
3.1343
2.95341
2.60077
2.09808
1.47701
0.777486
0.0429331
-0.671622
-1.32057
-1.85785
-2.24464
-2.45302
-2.46831
-2.29086
-1.9365
-1.436
-0.833504
-0.179369
0.468617
1.04504
1.5014
1.79408
1.89525
1.79558
1.50617
1.05814
0.499485
-0.113204
-0.7107
-1.22899
-1.6132
-1.82159
-1.83382
-1.65345
-1.30822
-0.846416
-0.326036
0.181507
0.61353
0.917471
1.05979
1.03219
0.852456
0.561946
0.212504
-0.130333
-0.414993
-0.598686
-0.66185
-0.609755
-0.470001
-0.282776
-0.0920586
0.0548509
0.134812
0.139751
0.0811923
-0.0144217
-0.113909
-0.187208
-0.209951
-0.176969
-0.0982916
0.0024486
0.0949785
0.150588
13.6814
13.6025
13.4481
13.223
12.9537
12.642
12.4613
12.0847
-5.08564
-4.62811
-4.39846
-3.95196
-3.46676
-2.93476
-2.38552
-1.82621
-1.26728
-0.71066
-0.161213
0.380312
0.908691
1.42717
1.93148
2.41944
2.88843
3.33558
3.75778
4.15179
4.51428
4.84187
5.13122
5.37904
5.58223
5.73785
5.84326
5.89615
5.89469
5.83688
5.72224
5.55026
5.32107
5.03546
4.69498
4.30182
3.85904
3.37036
2.8403
2.27412
1.67786
1.05838
0.423204
-0.219715
-0.861779
-1.49368
-2.10617
-2.68979
-3.23474
-3.73162
-4.17132
-4.54509
-4.8449
-5.0637
-5.19544
-5.23549
-5.18087
-5.02959
-4.78182
-4.43978
-4.00785
-3.49239
-2.90204
-2.24759
-1.54184
-0.799529
-0.0366653
0.728502
1.47745
2.19105
2.84987
3.43528
3.92971
4.31699
4.58366
4.71901
4.7159
4.57094
4.28522
3.86437
3.31862
2.66286
1.91638
1.10244
0.247364
-0.619467
-1.46598
-2.26165
-2.97565
-3.57913
-4.04632
-4.35615
-4.49337
-4.44956
-4.22378
-3.8234
-3.26381
-2.56857
-1.76813
-0.896718
0.0208347
0.902665
1.72225
2.4382
3.01206
3.41185
3.61438
3.60746
3.39073
2.977
2.39163
1.67144
0.862941
0.0162888
-0.805248
-1.54912
-2.16249
-2.60096
-2.83286
-2.84172
-2.62844
-2.21198
-1.62853
-0.929172
-0.172892
0.572915
1.23569
1.75839
2.09118
2.20256
2.08235
1.7442
1.22458
0.579641
-0.125254
-0.810124
-1.4021
-1.83803
-2.07062
-2.07731
-1.86313
-1.46094
-0.927229
-0.329708
0.249775
0.739855
1.08028
1.23356
1.19132
0.975182
0.63396
0.228751
-0.165281
-0.488671
-0.692725
-0.756255
-0.686942
-0.518027
-0.297136
-0.0766282
0.0916373
0.180085
0.180484
0.107341
-0.00774731
-0.125886
-0.212612
-0.239372
-0.200871
-0.109213
0.00790835
0.115352
0.179876
19.5045
19.4624
19.381
19.2642
19.1236
18.9578
18.8363
18.5653
-4.15322
-3.75296
-3.49868
-3.1057
-2.67134
-2.20421
-1.71164
-1.1962
-0.667603
-0.128125
0.413226
0.960474
1.50377
2.04199
2.57107
3.08717
3.58635
4.06463
4.51787
4.94191
5.33254
5.68559
5.99697
6.26272
6.4791
6.64262
6.75014
6.79891
6.78665
6.71144
6.57229
6.36865
6.10069
5.76927
5.37613
4.92376
4.4156
3.85589
3.2497
2.60303
1.92272
1.21653
0.493011
-0.238813
-0.969198
-1.68757
-2.38345
-3.04614
-3.66454
-4.22801
-4.72627
-5.14943
-5.48845
-5.73537
-5.88337
-5.92715
-5.86311
-5.68933
-5.40607
-5.01582
-4.52363
-3.93675
-3.26504
-2.52078
-1.71854
-0.875155
-0.00851792
0.860043
1.70984
2.51904
3.26558
3.92834
4.48728
4.92416
5.22373
5.37392
5.36669
5.19834
4.87025
4.38898
3.76632
3.01934
2.17008
1.24512
0.274661
-0.708324
-1.66732
-2.56764
-3.37436
-4.05484
-4.58006
-4.92628
-5.07644
-5.02116
-4.75984
-4.30091
-3.66254
-2.87165
-1.96408
-0.979282
0.0698641
1.06329
1.98643
2.79176
3.43524
3.88059
4.10184
4.08547
3.83158
3.35511
2.68527
1.86427
0.9456
-0.0154224
-0.944689
-1.78419
-2.47391
-2.9639
-3.21864
-3.21997
-2.9695
-2.48934
-1.8211
-1.02351
-0.163476
0.681422
1.43121
2.02047
2.39309
2.51397
2.37213
1.98379
1.39115
0.658468
-0.139755
-0.912762
-1.57876
-2.06626
-2.32244
-2.32259
-2.07336
-1.61284
-1.00603
-0.330434
0.321507
0.869609
1.24599
1.40936
1.35117
1.09724
0.703968
0.242135
-0.203618
-0.5656
-0.789322
-0.852141
-0.764377
-0.565124
-0.30974
-0.0588661
0.130716
0.227168
0.222275
0.133724
-0.00153489
-0.138728
-0.239205
-0.269857
-0.225535
-0.120492
0.0133983
0.136072
0.209683
24.8184
24.7971
24.7556
24.6954
24.6274
24.5457
24.511
24.3949
-3.1113
-2.86328
-2.68407
-2.38437
-2.02483
-1.61104
-1.15815
-0.667748
-0.152704
0.389148
0.926548
1.48877
2.05277
2.61582
3.17338
3.72064
4.2526
4.76424
5.25051
5.70634
6.1267
6.50664
6.84133
7.12616
7.35676
7.52911
7.63957
7.68498
7.6627
7.57064
7.40753
7.17278
6.86656
6.48984
6.04455
5.53347
4.96043
4.33017
3.64837
2.92171
2.15784
1.36545
0.554106
-0.266103
-1.08426
-1.88855
-2.66724
-3.40839
-4.09964
-4.7291
-5.28532
-5.7573
-6.13496
-6.40946
-6.57324
-6.62027
-6.54647
-6.34986
-6.03078
-5.59205
-5.03934
-4.38086
-3.62758
-2.79335
-1.89453
-0.949979
0.0204278
0.992395
1.94295
2.84765
3.68175
4.42162
5.04478
5.53096
5.86304
6.02765
6.0159
5.82374
5.4529
4.91088
4.21104
3.37264
2.42054
1.38466
0.298775
-0.800034
-1.87109
-2.87554
-3.7744
-4.53125
-5.11379
-5.49569
-5.65812
-5.59067
-5.29306
-4.77509
-4.05745
-3.17064
-2.15584
-1.06069
0.124325
1.22619
2.25207
3.14619
3.85854
4.34863
4.58783
4.56115
4.26941
3.72965
2.97497
2.05303
1.02358
-0.0503001
-1.08727
-2.02175
-2.78703
-3.32762
-3.60433
-3.59728
-3.30887
-2.76442
-2.01116
-1.11493
-0.15173
0.792088
1.62833
2.2834
2.69507
2.82469
2.66051
2.22142
1.55548
0.734726
-0.156062
-1.01685
-1.75615
-2.29437
-2.57327
-2.56609
-2.28118
-1.76194
-1.08185
-0.328596
0.395305
1.00059
1.41195
1.58436
1.50943
1.21704
0.771202
0.252807
-0.244428
-0.64433
-0.886825
-0.947983
-0.840927
-0.610716
-0.32058
-0.0392941
0.171264
0.275175
0.264386
0.159909
0.00415195
-0.152157
-0.266503
-0.300853
-0.250517
-0.131911
0.0188554
0.156822
0.239545
29.6212
29.6099
29.5889
29.5568
29.523
29.483
29.466
29.4136
-2.46432
-2.2826
-2.11997
-1.86265
-1.53763
-1.15169
-0.71868
-0.238379
0.27047
0.828676
1.38505
1.96234
2.55006
3.14179
3.73137
4.31277
4.87997
5.42706
5.94809
6.4372
6.88858
7.29654
7.65555
7.96035
8.206
8.38794
8.5021
8.5449
8.51338
8.4052
8.21895
7.95397
7.61047
7.1895
6.6932
6.12464
5.48805
4.78864
4.03269
3.22757
2.38171
1.50473
0.607182
-0.299758
-1.20403
-2.09257
-2.95245
-3.77048
-4.53304
-5.22706
-5.83995
-6.35957
-6.77484
-7.07611
-7.25503
-7.30496
-7.22122
-7.0018
-6.64714
-6.16039
-5.54779
-4.81851
-3.98465
-3.06153
-2.06739
-1.02304
0.049721
1.12365
2.17353
3.1723
4.09263
4.90832
5.59459
6.12909
6.49291
6.67138
6.65481
6.43881
6.02545
5.42322
4.64703
3.71831
2.66471
1.51959
0.319656
-0.89296
-2.0742
-3.18089
-4.17011
-5.0017
-5.64017
-6.05664
-6.23064
-6.15049
-5.81652
-5.23991
-4.44345
-3.4617
-2.34073
-1.13984
0.182743
1.38801
2.5151
3.49642
4.27612
4.80963
5.06578
5.0283
4.69861
4.09594
3.25724
2.23548
1.09732
-0.0881478
-1.23061
-2.25815
-3.09727
-3.68698
-3.98456
-3.96854
-3.64208
-3.03379
-2.19628
-1.20282
-0.137855
0.903092
1.82408
2.54342
2.99291
3.13054
2.94364
2.4541
1.71556
0.807817
-0.173895
-1.1208
-1.93173
-2.51924
-2.81979
-2.80469
-2.48406
-1.90655
-1.15398
-0.324626
0.469855
1.13082
1.57581
1.75631
1.66413
1.33327
0.835124
0.260971
-0.286806
-0.723513
-0.983745
-1.04244
-0.915636
-0.654364
-0.329716
-0.018444
0.212506
0.323296
0.306165
0.185533
0.00927887
-0.165874
-0.294069
-0.331855
-0.275414
-0.143275
0.024218
0.177321
0.269049
33.9011
33.8944
33.8827
33.8642
33.8461
33.8235
33.8155
33.7857
-2.05519
-1.90235
-1.74735
-1.50532
-1.19362
-0.815512
-0.385402
0.103598
0.624578
1.19177
1.77286
2.376
2.99332
3.61796
4.24275
4.86075
5.46512
6.04913
6.60611
7.12948
7.61269
8.04934
8.43324
8.75854
9.01975
9.21184
9.33031
9.3712
9.33122
9.20774
8.99932
8.70526
8.3258
7.86208
7.31644
6.69224
5.9941
5.22768
4.39985
3.51865
2.59326
1.63421
0.653013
-0.338067
-1.32585
-2.29608
-3.23464
-4.12712
-4.95873
-5.71522
-6.38287
-6.94847
-7.39997
-7.72693
-7.92034
-7.97287
-7.87912
-7.63725
-7.24774
-6.71405
-6.04295
-5.24449
-4.33203
-3.32222
-2.23512
-1.09355
0.0789327
1.25212
2.39874
3.48912
4.4933
5.3827
6.13026
6.71155
7.10603
7.29772
7.27608
7.03654
6.58146
5.9203
5.06952
4.05267
2.90013
1.64844
0.337671
-0.985649
-2.27393
-3.47986
-4.55663
-5.46055
-6.15298
-6.60261
-6.78745
-6.69422
-6.32444
-5.69031
-4.81658
-3.74182
-2.51612
-1.20592
0.233711
1.54557
2.7721
3.8382
4.68302
5.25818
5.5303
5.48166
5.11451
4.45012
3.52925
2.41011
1.1666
-0.128143
-1.37257
-2.49025
-3.4007
-4.03762
-4.35487
-4.3295
-3.9654
-3.2945
-2.37461
-1.28631
-0.122526
1.0128
2.01593
2.79733
3.28303
3.428
3.21835
2.6793
1.86976
0.877295
-0.192881
-1.22318
-2.10335
-2.73824
-3.05923
-3.03583
-2.67996
-2.04541
-1.22207
-0.318799
0.543988
1.25857
1.7356
1.92327
1.81366
1.44486
0.895333
0.266936
-0.329906
-0.801956
-1.0788
-1.13438
-0.987724
-0.695744
-0.33727
0.00317525
0.253745
0.370821
0.347056
0.210299
0.0138404
-0.179597
-0.321526
-0.362413
-0.29988
-0.15442
0.0294351
0.197327
0.297842
37.7066
37.7025
37.6959
37.6846
37.6752
37.6611
37.6591
37.6403
-1.79713
-1.65946
-1.50478
-1.26753
-0.957969
-0.578205
-0.143985
0.373251
0.910008
1.4924
2.1008
2.73451
3.38539
4.04594
4.70821
5.36444
6.00707
6.62876
7.2222
7.78018
8.29548
8.761
9.16996
9.5159
9.79286
9.99536
10.1186
10.1581
10.1105
9.97256
9.74306
9.42128
9.00746
8.50284
7.90994
7.2324
6.47524
5.64455
4.74775
3.79352
2.79177
1.75391
0.692372
-0.379505
-1.44746
-2.49611
-3.51015
-4.47402
-5.37177
-6.18808
-6.90815
-7.5177
-8.00376
-8.35514
-8.56234
-8.61727
-8.51349
-8.2498
-7.82654
-7.2475
-6.51989
-5.65466
-4.66632
-3.57286
-2.39613
-1.16083
0.107617
1.37647
2.61629
3.79491
4.87978
5.84005
6.64652
7.27268
7.69647
7.90063
7.87381
7.61129
7.11574
6.39756
5.47473
4.37283
3.12487
1.77029
0.353014
-1.07682
-2.468
-3.76926
-4.93003
-5.9032
-6.64721
-7.1283
-7.32331
-7.21681
-6.81222
-6.12228
-5.17379
-4.00881
-2.68092
-1.25932
0.276735
1.6973
3.02046
4.16808
5.07525
5.68993
5.97706
5.91701
5.51337
4.78916
3.78886
2.5758
1.23028
-0.168546
-1.51126
-2.71542
-3.6941
-4.37596
-4.71161
-4.67671
-4.27585
-3.54425
-2.54486
-1.36482
-0.106203
1.11981
2.20176