/*--------------------------------*- C++ -*----------------------------------*\
  =========                 |
  \\      /  F ield         | OpenFOAM: The Open Source CFD Toolbox
   \\    /   O peration     | Website:  https://openfoam.org
    \\  /    A nd           | Version:  12
     \\/     M anipulation  |
\*---------------------------------------------------------------------------*/
FoamFile
{
    format      ascii;
    class       volScalarField;
    location    "16.74";
    object      p;
}
// * * * * * * * * * * * * * * * * * * * * * * * * * * * * * * * * * * * * * //

dimensions      [1 -1 -2 0 0 0 0];

internalField   nonuniform List<scalar> 
3829
(
-611.749
-611.749
-611.751
-611.754
-611.757
-611.761
-611.767
-611.773
-611.781
-611.79
-611.799
-611.81
-611.823
-611.837
-611.852
-611.869
-611.887
-611.907
-611.929
-611.953
-611.978
-612.005
-612.035
-612.066
-612.099
-612.135
-612.173
-612.213
-612.255
-612.299
-612.346
-612.396
-612.447
-612.501
-612.557
-612.615
-612.676
-612.738
-612.803
-612.869
-612.937
-613.006
-613.076
-613.148
-613.221
-613.294
-613.368
-613.442
-613.515
-613.588
-613.661
-613.732
-613.801
-613.868
-613.933
-613.996
-614.055
-614.111
-614.162
-614.21
-614.253
-614.291
-614.324
-614.351
-614.373
-614.388
-614.398
-614.403
-614.401
-614.394
-614.38
-614.362
-614.339
-614.312
-614.281
-614.246
-614.209
-614.171
-614.131
-614.091
-614.052
-614.015
-613.98
-613.948
-613.921
-613.899
-613.883
-613.873
-613.871
-613.876
-613.89
-613.912
-613.942
-613.979
-614.023
-614.073
-614.129
-614.189
-614.252
-614.316
-614.381
-614.444
-614.503
-614.558
-614.605
-614.645
-614.675
-614.694
-614.702
-614.694
-614.674
-614.642
-614.599
-614.546
-614.485
-614.417
-614.345
-614.271
-614.199
-614.132
-614.072
-614.022
-613.984
-613.961
-613.954
-613.963
-613.989
-614.032
-614.088
-614.157
-614.234
-614.316
-614.399
-614.478
-614.548
-614.607
-614.65
-614.674
-614.679
-614.661
-614.625
-614.571
-614.504
-614.427
-614.346
-614.268
-614.198
-614.141
-614.103
-614.085
-614.091
-614.119
-614.166
-614.227
-614.297
-614.369
-614.435
-614.488
-614.522
-614.534
-614.518
-614.479
-614.42
-614.345
-614.261
-614.183
-614.116
-614.068
-614.045
-614.052
-614.085
-614.14
-614.211
-614.291
-614.363
-614.42
-614.456
-614.465
-614.448
-614.408
-614.352
-614.289
-614.232
-614.189
-614.167
-614.17
-614.196
-614.24
-614.293
-614.345
-614.39
-614.418
-614.429
-614.419
-614.397
-614.364
-614.328
-614.296
-614.271
-614.258
-1770.04
-1770.04
-1770.04
-1770.04
-1770.05
-1770.05
-1770.06
-1770.06
-1770.07
-1770.08
-1770.09
-1770.1
-1770.11
-1770.12
-1770.13
-1770.15
-1770.17
-1770.19
-1770.21
-1770.23
-1770.26
-1770.28
-1770.31
-1770.34
-1770.38
-1770.41
-1770.45
-1770.5
-1770.54
-1770.59
-1770.64
-1770.69
-1770.74
-1770.8
-1770.86
-1770.92
-1770.99
-1771.06
-1771.13
-1771.2
-1771.28
-1771.35
-1771.43
-1771.51
-1771.59
-1771.67
-1771.76
-1771.84
-1771.92
-1772
-1772.08
-1772.16
-1772.24
-1772.32
-1772.39
-1772.46
-1772.52
-1772.59
-1772.64
-1772.69
-1772.74
-1772.78
-1772.81
-1772.84
-1772.86
-1772.88
-1772.88
-1772.88
-1772.87
-1772.86
-1772.84
-1772.81
-1772.78
-1772.74
-1772.7
-1772.65
-1772.6
-1772.55
-1772.5
-1772.45
-1772.4
-1772.35
-1772.3
-1772.26
-1772.22
-1772.19
-1772.17
-1772.16
-1772.15
-1772.16
-1772.18
-1772.2
-1772.24
-1772.28
-1772.33
-1772.39
-1772.46
-1772.54
-1772.61
-1772.69
-1772.77
-1772.85
-1772.92
-1772.99
-1773.04
-1773.09
-1773.13
-1773.15
-1773.16
-1773.15
-1773.12
-1773.09
-1773.03
-1772.97
-1772.89
-1772.81
-1772.72
-1772.63
-1772.54
-1772.46
-1772.38
-1772.32
-1772.28
-1772.25
-1772.24
-1772.25
-1772.28
-1772.34
-1772.41
-1772.49
-1772.58
-1772.68
-1772.79
-1772.88
-1772.97
-1773.04
-1773.09
-1773.12
-1773.12
-1773.1
-1773.05
-1772.99
-1772.9
-1772.81
-1772.71
-1772.61
-1772.53
-1772.46
-1772.41
-1772.39
-1772.4
-1772.44
-1772.5
-1772.57
-1772.66
-1772.75
-1772.84
-1772.9
-1772.94
-1772.96
-1772.94
-1772.89
-1772.82
-1772.73
-1772.63
-1772.53
-1772.45
-1772.39
-1772.37
-1772.38
-1772.42
-1772.48
-1772.57
-1772.67
-1772.75
-1772.82
-1772.86
-1772.87
-1772.85
-1772.8
-1772.73
-1772.65
-1772.58
-1772.53
-1772.51
-1772.51
-1772.54
-1772.6
-1772.66
-1772.72
-1772.78
-1772.81
-1772.82
-1772.81
-1772.78
-1772.74
-1772.7
-1772.66
-1772.63
-1772.61
-2796.08
-2796.08
-2796.09
-2796.09
-2796.09
-2796.09
-2796.09
-2796.1
-2796.1
-2796.11
-2796.11
-2796.12
-2796.13
-2796.14
-2796.15
-2796.17
-2796.18
-2796.2
-2796.22
-2796.24
-2796.26
-2796.29
-2796.32
-2796.35
-2796.39
-2796.42
-2796.47
-2796.51
-2796.56
-2796.61
-2796.66
-2796.72
-2796.78
-2796.85
-2796.92
-2796.99
-2797.06
-2797.14
-2797.22
-2797.31
-2797.39
-2797.48
-2797.57
-2797.67
-2797.76
-2797.86
-2797.96
-2798.05
-2798.15
-2798.25
-2798.35
-2798.44
-2798.53
-2798.62
-2798.71
-2798.79
-2798.87
-2798.94
-2799.01
-2799.07
-2799.12
-2799.16
-2799.2
-2799.23
-2799.24
-2799.26
-2799.26
-2799.25
-2799.23
-2799.2
-2799.16
-2799.12
-2799.07
-2799.01
-2798.94
-2798.88
-2798.8
-2798.73
-2798.65
-2798.58
-2798.5
-2798.43
-2798.37
-2798.31
-2798.26
-2798.21
-2798.18
-2798.16
-2798.15
-2798.16
-2798.18
-2798.21
-2798.25
-2798.31
-2798.38
-2798.46
-2798.56
-2798.65
-2798.76
-2798.86
-2798.97
-2799.07
-2799.17
-2799.25
-2799.33
-2799.39
-2799.44
-2799.47
-2799.48
-2799.47
-2799.43
-2799.38
-2799.31
-2799.22
-2799.12
-2799.01
-2798.89
-2798.77
-2798.65
-2798.54
-2798.44
-2798.35
-2798.29
-2798.25
-2798.24
-2798.26
-2798.31
-2798.38
-2798.47
-2798.58
-2798.71
-2798.85
-2798.98
-2799.11
-2799.22
-2799.32
-2799.38
-2799.42
-2799.42
-2799.39
-2799.32
-2799.23
-2799.12
-2798.99
-2798.85
-2798.72
-2798.61
-2798.52
-2798.46
-2798.44
-2798.45
-2798.5
-2798.59
-2798.7
-2798.82
-2798.94
-2799.05
-2799.15
-2799.2
-2799.22
-2799.2
-2799.13
-2799.03
-2798.91
-2798.78
-2798.65
-2798.54
-2798.47
-2798.44
-2798.45
-2798.51
-2798.6
-2798.72
-2798.84
-2798.96
-2799.05
-2799.1
-2799.11
-2799.07
-2799
-2798.91
-2798.8
-2798.71
-2798.64
-2798.61
-2798.62
-2798.67
-2798.74
-2798.82
-2798.9
-2798.97
-2799.01
-2799.01
-2798.99
-2798.96
-2798.9
-2798.85
-2798.8
-2798.77
-2798.75
-3704.98
-3704.98
-3704.98
-3704.98
-3704.98
-3704.98
-3704.98
-3704.98
-3704.98
-3704.98
-3704.99
-3704.99
-3704.99
-3705
-3705
-3705.01
-3705.02
-3705.04
-3705.05
-3705.07
-3705.09
-3705.11
-3705.14
-3705.17
-3705.2
-3705.24
-3705.28
-3705.33
-3705.38
-3705.43
-3705.49
-3705.56
-3705.62
-3705.7
-3705.78
-3705.86
-3705.95
-3706.04
-3706.14
-3706.24
-3706.34
-3706.45
-3706.56
-3706.68
-3706.8
-3706.92
-3707.04
-3707.16
-3707.28
-3707.4
-3707.52
-3707.64
-3707.75
-3707.86
-3707.97
-3708.07
-3708.16
-3708.25
-3708.33
-3708.4
-3708.46
-3708.51
-3708.55
-3708.58
-3708.59
-3708.59
-3708.58
-3708.56
-3708.53
-3708.48
-3708.43
-3708.36
-3708.28
-3708.19
-3708.1
-3708
-3707.89
-3707.78
-3707.67
-3707.56
-3707.46
-3707.36
-3707.26
-3707.18
-3707.1
-3707.04
-3706.99
-3706.96
-3706.95
-3706.96
-3706.98
-3707.02
-3707.09
-3707.17
-3707.26
-3707.37
-3707.5
-3707.63
-3707.77
-3707.92
-3708.06
-3708.2
-3708.33
-3708.45
-3708.56
-3708.64
-3708.7
-3708.74
-3708.75
-3708.73
-3708.69
-3708.62
-3708.52
-3708.4
-3708.26
-3708.1
-3707.94
-3707.77
-3707.61
-3707.46
-3707.32
-3707.21
-3707.12
-3707.07
-3707.05
-3707.08
-3707.14
-3707.24
-3707.37
-3707.53
-3707.7
-3707.89
-3708.07
-3708.25
-3708.4
-3708.53
-3708.61
-3708.66
-3708.66
-3708.61
-3708.52
-3708.39
-3708.23
-3708.05
-3707.86
-3707.69
-3707.53
-3707.41
-3707.33
-3707.3
-3707.33
-3707.41
-3707.53
-3707.68
-3707.85
-3708.02
-3708.18
-3708.31
-3708.39
-3708.41
-3708.38
-3708.29
-3708.15
-3707.98
-3707.8
-3707.62
-3707.48
-3707.38
-3707.34
-3707.36
-3707.44
-3707.57
-3707.73
-3707.9
-3708.06
-3708.18
-3708.24
-3708.25
-3708.2
-3708.1
-3707.97
-3707.82
-3707.7
-3707.61
-3707.57
-3707.59
-3707.65
-3707.75
-3707.87
-3707.97
-3708.05
-3708.1
-3708.1
-3708.07
-3708.02
-3707.95
-3707.88
-3707.82
-3707.78
-3707.76
-4510.14
-4510.14
-4510.14
-4510.14
-4510.13
-4510.13
-4510.12
-4510.12
-4510.11
-4510.1
-4510.09
-4510.09
-4510.08
-4510.08
-4510.08
-4510.07
-4510.08
-4510.08
-4510.09
-4510.1
-4510.11
-4510.13
-4510.15
-4510.18
-4510.21
-4510.25
-4510.29
-4510.34
-4510.39
-4510.45
-4510.52
-4510.59
-4510.67
-4510.76
-4510.85
-4510.95
-4511.05
-4511.16
-4511.27
-4511.39
-4511.52
-4511.65
-4511.79
-4511.93
-4512.08
-4512.22
-4512.37
-4512.53
-4512.68
-4512.83
-4512.98
-4513.13
-4513.27
-4513.41
-4513.54
-4513.67
-4513.78
-4513.89
-4513.99
-4514.07
-4514.14
-4514.2
-4514.24
-4514.27
-4514.28
-4514.28
-4514.25
-4514.22
-4514.16
-4514.09
-4514.01
-4513.91
-4513.79
-4513.67
-4513.53
-4513.39
-4513.24
-4513.09
-4512.93
-4512.78
-4512.63
-4512.49
-4512.36
-4512.24
-4512.14
-4512.05
-4511.99
-4511.94
-4511.92
-4511.93
-4511.96
-4512.02
-4512.1
-4512.21
-4512.34
-4512.49
-4512.66
-4512.84
-4513.03
-4513.22
-4513.42
-4513.61
-4513.79
-4513.95
-4514.09
-4514.2
-4514.29
-4514.34
-4514.35
-4514.33
-4514.26
-4514.17
-4514.03
-4513.87
-4513.68
-4513.46
-4513.24
-4513.01
-4512.79
-4512.59
-4512.4
-4512.25
-4512.14
-4512.07
-4512.04
-4512.08
-4512.17
-4512.31
-4512.48
-4512.7
-4512.93
-4513.18
-4513.43
-4513.66
-4513.87
-4514.04
-4514.15
-4514.21
-4514.21
-4514.14
-4514.01
-4513.83
-4513.61
-4513.37
-4513.11
-4512.87
-4512.66
-4512.5
-4512.4
-4512.37
-4512.41
-4512.51
-4512.68
-4512.89
-4513.13
-4513.37
-4513.59
-4513.76
-4513.86
-4513.9
-4513.85
-4513.73
-4513.54
-4513.31
-4513.06
-4512.83
-4512.64
-4512.51
-4512.46
-4512.49
-4512.6
-4512.78
-4513
-4513.23
-4513.43
-4513.58
-4513.67
-4513.67
-4513.59
-4513.45
-4513.27
-4513.08
-4512.92
-4512.8
-4512.76
-4512.78
-4512.87
-4513
-4513.16
-4513.3
-4513.4
-4513.45
-4513.45
-4513.41
-4513.33
-4513.24
-4513.16
-4513.08
-4513.03
-4513.01
-5223.44
-5223.43
-5223.43
-5223.42
-5223.41
-5223.4
-5223.38
-5223.37
-5223.35
-5223.33
-5223.31
-5223.29
-5223.27
-5223.25
-5223.23
-5223.22
-5223.21
-5223.2
-5223.19
-5223.19
-5223.19
-5223.2
-5223.22
-5223.23
-5223.26
-5223.29
-5223.33
-5223.38
-5223.43
-5223.5
-5223.57
-5223.65
-5223.74
-5223.83
-5223.94
-5224.05
-5224.17
-5224.3
-5224.44
-5224.59
-5224.74
-5224.9
-5225.07
-5225.25
-5225.43
-5225.61
-5225.8
-5225.99
-5226.17
-5226.36
-5226.55
-5226.74
-5226.92
-5227.09
-5227.25
-5227.41
-5227.55
-5227.69
-5227.8
-5227.91
-5227.99
-5228.06
-5228.11
-5228.14
-5228.14
-5228.13
-5228.09
-5228.03
-5227.95
-5227.85
-5227.73
-5227.59
-5227.44
-5227.27
-5227.08
-5226.89
-5226.68
-5226.48
-5226.27
-5226.06
-5225.86
-5225.67
-5225.49
-5225.33
-5225.2
-5225.08
-5224.99
-5224.93
-5224.91
-5224.92
-5224.96
-5225.03
-5225.14
-5225.29
-5225.46
-5225.66
-5225.88
-5226.12
-5226.37
-5226.63
-5226.89
-5227.14
-5227.38
-5227.59
-5227.77
-5227.92
-5228.03
-5228.1
-5228.11
-5228.08
-5228
-5227.86
-5227.68
-5227.46
-5227.21
-5226.93
-5226.64
-5226.34
-5226.04
-5225.77
-5225.53
-5225.33
-5225.18
-5225.1
-5225.07
-5225.12
-5225.24
-5225.41
-5225.65
-5225.93
-5226.24
-5226.57
-5226.9
-5227.21
-5227.48
-5227.69
-5227.85
-5227.92
-5227.91
-5227.81
-5227.64
-5227.39
-5227.1
-5226.77
-5226.44
-5226.12
-5225.85
-5225.63
-5225.5
-5225.47
-5225.52
-5225.67
-5225.9
-5226.19
-5226.51
-5226.82
-5227.11
-5227.34
-5227.48
-5227.52
-5227.45
-5227.29
-5227.04
-5226.74
-5226.41
-5226.1
-5225.85
-5225.68
-5225.62
-5225.67
-5225.82
-5226.06
-5226.35
-5226.65
-5226.91
-5227.11
-5227.22
-5227.21
-5227.1
-5226.92
-5226.67
-5226.42
-5226.21
-5226.07
-5226.01
-5226.05
-5226.17
-5226.35
-5226.54
-5226.72
-5226.85
-5226.91
-5226.91
-5226.84
-5226.74
-5226.63
-5226.52
-5226.43
-5226.37
-5226.34
-5855.37
-5855.37
-5855.36
-5855.35
-5855.34
-5855.32
-5855.3
-5855.27
-5855.24
-5855.2
-5855.16
-5855.12
-5855.07
-5855.02
-5854.98
-5854.93
-5854.9
-5854.86
-5854.84
-5854.82
-5854.8
-5854.8
-5854.8
-5854.81
-5854.83
-5854.85
-5854.89
-5854.94
-5854.99
-5855.06
-5855.14
-5855.22
-5855.32
-5855.43
-5855.55
-5855.68
-5855.83
-5855.98
-5856.15
-5856.32
-5856.51
-5856.71
-5856.91
-5857.13
-5857.35
-5857.57
-5857.8
-5858.03
-5858.27
-5858.5
-5858.73
-5858.96
-5859.18
-5859.4
-5859.6
-5859.79
-5859.97
-5860.13
-5860.28
-5860.4
-5860.5
-5860.58
-5860.64
-5860.66
-5860.66
-5860.64
-5860.58
-5860.5
-5860.39
-5860.26
-5860.1
-5859.91
-5859.7
-5859.48
-5859.23
-5858.98
-5858.71
-5858.44
-5858.17
-5857.9
-5857.64
-5857.39
-5857.16
-5856.95
-5856.77
-5856.62
-5856.51
-5856.44
-5856.4
-5856.41
-5856.47
-5856.56
-5856.71
-5856.89
-5857.11
-5857.37
-5857.65
-5857.96
-5858.29
-5858.63
-5858.96
-5859.28
-5859.58
-5859.86
-5860.09
-5860.29
-5860.43
-5860.51
-5860.52
-5860.48
-5860.37
-5860.2
-5859.96
-5859.68
-5859.35
-5858.99
-5858.61
-5858.23
-5857.85
-5857.5
-5857.19
-5856.94
-5856.75
-5856.65
-5856.63
-5856.68
-5856.83
-5857.06
-5857.36
-5857.72
-5858.12
-5858.54
-5858.97
-5859.36
-5859.71
-5859.98
-5860.17
-5860.26
-5860.24
-5860.11
-5859.89
-5859.57
-5859.19
-5858.77
-5858.33
-5857.93
-5857.57
-5857.3
-5857.14
-5857.1
-5857.18
-5857.38
-5857.68
-5858.05
-5858.47
-5858.88
-5859.25
-5859.54
-5859.72
-5859.77
-5859.68
-5859.46
-5859.14
-5858.75
-5858.33
-5857.94
-5857.62
-5857.41
-5857.33
-5857.4
-5857.6
-5857.9
-5858.28
-5858.66
-5859
-5859.25
-5859.38
-5859.36
-5859.22
-5858.97
-5858.66
-5858.34
-5858.07
-5857.89
-5857.82
-5857.88
-5858.04
-5858.27
-5858.52
-5858.74
-5858.9
-5858.97
-5858.95
-5858.87
-5858.73
-5858.59
-5858.46
-5858.36
-5858.29
-5858.26
-6415.25
-6415.24
-6415.22
-6415.18
-6415.14
-6415.08
-6415.01
-6414.92
-6414.83
-6414.74
-6414.66
-6414.58
-6414.52
-6414.46
-6414.42
-6414.38
-6414.34
-6414.31
-6414.28
-6414.25
-6414.23
-6414.21
-6414.2
-6414.2
-6414.21
-6414.23
-6414.26
-6414.31
-6414.37
-6414.44
-6414.52
-6414.62
-6414.72
-6414.84
-6414.98
-6415.13
-6415.29
-6415.48
-6415.67
-6415.88
-6416.11
-6416.34
-6416.59
-6416.85
-6417.12
-6417.39
-6417.67
-6417.95
-6418.24
-6418.52
-6418.81
-6419.08
-6419.35
-6419.62
-6419.86
-6420.1
-6420.31
-6420.51
-6420.68
-6420.83
-6420.95
-6421.04
-6421.1
-6421.13
-6421.13
-6421.09
-6421.01
-6420.9
-6420.76
-6420.58
-6420.38
-6420.14
-6419.87
-6419.59
-6419.28
-6418.95
-6418.61
-6418.27
-6417.93
-6417.59
-6417.26
-6416.94
-6416.65
-6416.39
-6416.17
-6415.98
-6415.84
-6415.74
-6415.7
-6415.71
-6415.78
-6415.91
-6416.09
-6416.32
-6416.6
-6416.92
-6417.28
-6417.67
-6418.07
-6418.5
-6418.92
-6419.32
-6419.7
-6420.04
-6420.34
-6420.58
-6420.75
-6420.85
-6420.87
-6420.81
-6420.67
-6420.45
-6420.16
-6419.8
-6419.39
-6418.94
-6418.46
-6417.98
-6417.51
-6417.07
-6416.68
-6416.37
-6416.14
-6416
-6415.98
-6416.06
-6416.24
-6416.53
-6416.91
-6417.36
-6417.87
-6418.4
-6418.92
-6419.42
-6419.85
-6420.19
-6420.42
-6420.53
-6420.5
-6420.34
-6420.04
-6419.64
-6419.16
-6418.63
-6418.09
-6417.58
-6417.14
-6416.8
-6416.6
-6416.55
-6416.66
-6416.92
-6417.3
-6417.77
-6418.3
-6418.82
-6419.28
-6419.64
-6419.87
-6419.93
-6419.81
-6419.54
-6419.14
-6418.65
-6418.11
-6417.62
-6417.23
-6416.97
-6416.88
-6416.97
-6417.23
-6417.61
-6418.08
-6418.56
-6418.98
-6419.29
-6419.44
-6419.41
-6419.22
-6418.9
-6418.51
-6418.12
-6417.78
-6417.56
-6417.49
-6417.57
-6417.77
-6418.06
-6418.37
-6418.64
-6418.83
-6418.91
-6418.88
-6418.76
-6418.6
-6418.42
-6418.26
-6418.15
-6418.07
-6418.04
-6911.41
-6911.41
-6911.39
-6911.37
-6911.35
-6911.33
-6911.32
-6911.34
-6911.28
-6911.16
-6911.03
-6910.89
-6910.76
-6910.64
-6910.53
-6910.43
-6910.33
-6910.24
-6910.16
-6910.09
-6910.02
-6909.96
-6909.91
-6909.87
-6909.84
-6909.81
-6909.79
-6909.8
-6909.81
-6909.86
-6909.94
-6910.04
-6910.16
-6910.3
-6910.45
-6910.63
-6910.82
-6911.03
-6911.26
-6911.51
-6911.77
-6912.05
-6912.35
-6912.66
-6912.97
-6913.3
-6913.64
-6913.98
-6914.32
-6914.66
-6915
-6915.33
-6915.66
-6915.97
-6916.27
-6916.54
-6916.8
-6917.03
-6917.24
-6917.41
-6917.56
-6917.66
-6917.73
-6917.76
-6917.75
-6917.69
-6917.6
-6917.46
-6917.28
-6917.06
-6916.8
-6916.5
-6916.17
-6915.82
-6915.43
-6915.03
-6914.62
-6914.19
-6913.77
-6913.35
-6912.95
-6912.56
-6912.21
-6911.89
-6911.61
-6911.38
-6911.21
-6911.1
-6911.05
-6911.06
-6911.15
-6911.3
-6911.52
-6911.81
-6912.15
-6912.55
-6912.99
-6913.46
-6913.96
-6914.48
-6914.99
-6915.48
-6915.95
-6916.36
-6916.73
-6917.02
-6917.23
-6917.35
-6917.37
-6917.3
-6917.13
-6916.85
-6916.49
-6916.05
-6915.55
-6914.99
-6914.41
-6913.82
-6913.24
-6912.71
-6912.24
-6911.86
-6911.58
-6911.41
-6911.38
-6911.48
-6911.72
-6912.07
-6912.54
-6913.09
-6913.71
-6914.36
-6915
-6915.6
-6916.12
-6916.54
-6916.82
-6916.95
-6916.91
-6916.7
-6916.34
-6915.84
-6915.25
-6914.6
-6913.93
-6913.31
-6912.77
-6912.36
-6912.12
-6912.07
-6912.21
-6912.53
-6913.01
-6913.59
-6914.24
-6914.88
-6915.44
-6915.89
-6916.16
-6916.22
-6916.08
-6915.74
-6915.24
-6914.64
-6913.99
-6913.4
-6912.91
-6912.6
-6912.5
-6912.62
-6912.94
-6913.41
-6913.99
-6914.57
-6915.08
-6915.45
-6915.62
-6915.58
-6915.34
-6914.95
-6914.47
-6913.99
-6913.58
-6913.32
-6913.24
-6913.35
-6913.6
-6913.96
-6914.33
-6914.65
-6914.87
-6914.96
-6914.91
-6914.77
-6914.56
-6914.35
-6914.17
-6914.04
-6913.96
-6913.92
-7351.21
-7351.19
-7351.14
-7351.05
-7350.92
-7350.75
-7350.53
-7350.17
-7349.68
-7349.44
-7349.21
-7349.04
-7348.91
-7348.8
-7348.72
-7348.65
-7348.6
-7348.55
-7348.5
-7348.46
-7348.41
-7348.36
-7348.32
-7348.28
-7348.26
-7348.27
-7348.26
-7348.51
-7348.61
-7348.71
-7348.79
-7348.88
-7348.99
-7349.12
-7349.29
-7349.48
-7349.7
-7349.94
-7350.21
-7350.5
-7350.81
-7351.14
-7351.48
-7351.84
-7352.22
-7352.6
-7353
-7353.4
-7353.8
-7354.2
-7354.6
-7355
-7355.38
-7355.75
-7356.1
-7356.42
-7356.73
-7357
-7357.24
-7357.44
-7357.61
-7357.73
-7357.81
-7357.83
-7357.81
-7357.74
-7357.62
-7357.45
-7357.23
-7356.97
-7356.65
-7356.29
-7355.9
-7355.46
-7355
-7354.52
-7354.02
-7353.51
-7353
-7352.5
-7352.02
-7351.56
-7351.13
-7350.75
-7350.42
-7350.14
-7349.94
-7349.8
-7349.74
-7349.77
-7349.87
-7350.05
-7350.32
-7350.66
-7351.08
-7351.55
-7352.08
-7352.65
-7353.25
-7353.87
-7354.48
-7355.07
-7355.62
-7356.12
-7356.55
-7356.9
-7357.15
-7357.29
-7357.32
-7357.23
-7357.02
-7356.69
-7356.26
-7355.73
-7355.12
-7354.46
-7353.76
-7353.05
-7352.37
-7351.73
-7351.17
-7350.71
-7350.38
-7350.19
-7350.15
-7350.27
-7350.56
-7350.99
-7351.55
-7352.21
-7352.95
-7353.72
-7354.49
-7355.21
-7355.83
-7356.33
-7356.66
-7356.8
-7356.75
-7356.49
-7356.06
-7355.46
-7354.75
-7353.96
-7353.16
-7352.42
-7351.78
-7351.3
-7351.02
-7350.96
-7351.14
-7351.53
-7352.1
-7352.81
-7353.59
-7354.35
-7355.03
-7355.56
-7355.87
-7355.95
-7355.77
-7355.36
-7354.76
-7354.04
-7353.26
-7352.55
-7351.98
-7351.62
-7351.5
-7351.65
-7352.04
-7352.61
-7353.29
-7353.99
-7354.59
-7355.03
-7355.23
-7355.17
-7354.87
-7354.4
-7353.82
-7353.25
-7352.77
-7352.47
-7352.38
-7352.52
-7352.83
-7353.25
-7353.69
-7354.07
-7354.32
-7354.41
-7354.35
-7354.17
-7353.93
-7353.68
-7353.48
-7353.33
-7353.25
-7353.21
-7741.24
-7741.22
-7741.17
-7741.1
-7741.04
-7741.03
-7741.17
-7741.43
-7740.85
-7740.54
-7740.19
-7739.9
-7739.63
-7739.4
-7739.19
-7739.01
-7738.84
-7738.7
-7738.57
-7738.46
-7738.35
-7738.26
-7738.17
-7738.08
-7737.98
-7737.87
-7737.65
-7737.61
-7737.3
-7737.22
-7737.26
-7737.37
-7737.52
-7737.71
-7737.91
-7738.15
-7738.4
-7738.68
-7738.99
-7739.32
-7739.67
-7740.05
-7740.45
-7740.87
-7741.3
-7741.75
-7742.2
-7742.67
-7743.14
-7743.6
-7744.07
-7744.52
-7744.97
-7745.39
-7745.8
-7746.18
-7746.53
-7746.84
-7747.12
-7747.36
-7747.54
-7747.68
-7747.77
-7747.79
-7747.77
-7747.68
-7747.53
-7747.33
-7747.07
-7746.75
-7746.37
-7745.95
-7745.48
-7744.97
-7744.43
-7743.86
-7743.27
-7742.68
-7742.08
-7741.49
-7740.92
-7740.38
-7739.88
-7739.43
-7739.04
-7738.72
-7738.48
-7738.32
-7738.26
-7738.29
-7738.41
-7738.63
-7738.94
-7739.35
-7739.83
-7740.39
-7741.01
-7741.69
-7742.39
-7743.11
-7743.82
-7744.52
-7745.16
-7745.75
-7746.25
-7746.66
-7746.95
-7747.12
-7747.15
-7747.04
-7746.79
-7746.4
-7745.89
-7745.27
-7744.56
-7743.78
-7742.96
-7742.13
-7741.33
-7740.58
-7739.93
-7739.39
-7739
-7738.78
-7738.74
-7738.89
-7739.23
-7739.73
-7740.39
-7741.17
-7742.04
-7742.95
-7743.84
-7744.68
-7745.41
-7745.99
-7746.37
-7746.53
-7746.46
-7746.16
-7745.64
-7744.94
-7744.1
-7743.18
-7742.24
-7741.37
-7740.62
-7740.06
-7739.74
-7739.68
-7739.89
-7740.36
-7741.04
-7741.87
-7742.79
-7743.68
-7744.48
-7745.09
-7745.46
-7745.55
-7745.33
-7744.84
-7744.14
-7743.29
-7742.38
-7741.55
-7740.89
-7740.46
-7740.33
-7740.52
-7740.98
-7741.66
-7742.46
-7743.27
-7743.97
-7744.47
-7744.7
-7744.62
-7744.26
-7743.7
-7743.02
-7742.35
-7741.8
-7741.46
-7741.37
-7741.53
-7741.91
-7742.4
-7742.91
-7743.35
-7743.63
-7743.73
-7743.65
-7743.43
-7743.14
-7742.86
-7742.63
-7742.47
-7742.38
-7742.35
-8087.74
-8087.81
-8087.95
-8088.2
-8088.57
-8089.07
-8089.73
-8090.63
-8082.4
-8082.19
-8081.97
-8081.87
-8081.84
-8081.89
-8082.01
-8082.18
-8082.41
-8082.67
-8082.98
-8083.32
-8083.69
-8084.09
-8084.52
-8084.98
-8085.45
-8085.95
-8086.46
-8086.98
-8087.51
-8088.05
-8088.58
-8089.12
-8089.64
-8090.14
-8090.63
-8091.09
-8091.53
-8091.93
-8092.29
-8092.6
-8092.86
-8093.08
-8093.23
-8093.32
-8093.35
-8093.32
-8093.21
-8093.04
-8092.8
-8092.5
-8092.12
-8091.69
-8091.2
-8090.66
-8090.07
-8089.44
-8088.78
-8088.1
-8087.41
-8086.72
-8086.04
-8085.39
-8084.76
-8084.19
-8083.67
-8083.23
-8082.86
-8082.58
-8082.41
-8082.33
-8082.36
-8082.51
-8082.76
-8083.13
-8083.6
-8084.16
-8084.8
-8085.52
-8086.3
-8087.11
-8087.94
-8088.76
-8089.56
-8090.3
-8090.98
-8091.56
-8092.02
-8092.35
-8092.54
-8092.57
-8092.44
-8092.15
-8091.71
-8091.12
-8090.4
-8089.58
-8088.68
-8087.74
-8086.78
-8085.86
-8085
-8084.25
-8083.64
-8083.19
-8082.94
-8082.9
-8083.07
-8083.46
-8084.05
-8084.81
-8085.71
-8086.71
-8087.75
-8088.78
-8089.75
-8090.58
-8091.24
-8091.68
-8091.86
-8091.78
-8091.42
-8090.82
-8090.01
-8089.03
-8087.97
-8086.89
-8085.89
-8085.03
-8084.39
-8084.02
-8083.96
-8084.21
-8084.76
-8085.55
-8086.51
-8087.57
-8088.6
-8089.52
-8090.23
-8090.65
-8090.74
-8090.48
-8089.92
-8089.1
-8088.12
-8087.07
-8086.13
-8085.36
-8084.88
-8084.74
-8084.96
-8085.49
-8086.28
-8087.2
-8088.13
-8088.94
-8089.5
-8089.75
-8089.66
-8089.24
-8088.59
-8087.8
-8087.04
-8086.41
-8086.02
-8085.93
-8086.13
-8086.56
-8087.13
-8087.72
-8088.22
-8088.53
-8088.63
-8088.52
-8088.26
-8087.93
-8087.61
-8087.36
-8087.19
-8087.1
-8087.07
-8394.08
-8394.11
-8394.15
-8394.22
-8394.29
-8394.36
-8394.44
-8394.45
-8386.06
-8386.19
-8386.19
-8386.31
-8386.43
-8386.58
-8386.77
-8386.99
-8387.25
-8387.56
-8387.9
-8388.29
-8388.71
-8389.16
-8389.64
-8390.15
-8390.69
-8391.25
-8391.82
-8392.41
-8393.01
-8393.62
-8394.22
-8394.82
-8395.41
-8395.98
-8396.53
-8397.05
-8397.54
-8397.98
-8398.39
-8398.74
-8399.04
-8399.27
-8399.45
-8399.55
-8399.58
-8399.53
-8399.41
-8399.21
-8398.94
-8398.59
-8398.16
-8397.67
-8397.11
-8396.49
-8395.82
-8395.11
-8394.36
-8393.59
-8392.8
-8392.02
-8391.25
-8390.5
-8389.8
-8389.15
-8388.56
-8388.06
-8387.65
-8387.33
-8387.13
-8387.05
-8387.09
-8387.26
-8387.55
-8387.96
-8388.5
-8389.14
-8389.87
-8390.69
-8391.56
-8392.48
-8393.42
-8394.36
-8395.26
-8396.1
-8396.87
-8397.52
-8398.05
-8398.42
-8398.63
-8398.66
-8398.52
-8398.18
-8397.68
-8397.01
-8396.19
-8395.26
-8394.24
-8393.17
-8392.09
-8391.04
-8390.07
-8389.22
-8388.53
-8388.03
-8387.75
-8387.7
-8387.91
-8388.35
-8389.02
-8389.88
-8390.9
-8392.03
-8393.22
-8394.38
-8395.47
-8396.42
-8397.16
-8397.65
-8397.86
-8397.76
-8397.35
-8396.66
-8395.73
-8394.63
-8393.42
-8392.19
-8391.05
-8390.08
-8389.36
-8388.95
-8388.89
-8389.18
-8389.81
-8390.71
-8391.81
-8393.02
-8394.19
-8395.23
-8396.02
-8396.5
-8396.59
-8396.3
-8395.65
-8394.72
-8393.6
-8392.42
-8391.35
-8390.49
-8389.95
-8389.8
-8390.05
-8390.67
-8391.56
-8392.61
-8393.66
-8394.57
-8395.2
-8395.47
-8395.35
-8394.87
-8394.12
-8393.24
-8392.37
-8391.67
-8391.23
-8391.14
-8391.38
-8391.88
-8392.53
-8393.19
-8393.74
-8394.08
-8394.18
-8394.05
-8393.75
-8393.38
-8393.02
-8392.75
-8392.57
-8392.48
-8392.45
-8665.29
-8665.3
-8665.32
-8665.36
-8665.4
-8665.45
-8665.51
-8665.55
-8656.02
-8656.09
-8656.08
-8656.15
-8656.28
-8656.45
-8656.66
-8656.92
-8657.22
-8657.57
-8657.95
-8658.38
-8658.85
-8659.35
-8659.89
-8660.46
-8661.06
-8661.68
-8662.32
-8662.98
-8663.65
-8664.32
-8664.99
-8665.66
-8666.31
-8666.95
-8667.56
-8668.14
-8668.68
-8669.18
-8669.63
-8670.02
-8670.35
-8670.61
-8670.8
-8670.91
-8670.94
-8670.88
-8670.74
-8670.52
-8670.21
-8669.81
-8669.33
-8668.78
-8668.15
-8667.46
-8666.71
-8665.91
-8665.07
-8664.21
-8663.33
-8662.45
-8661.59
-8660.76
-8659.97
-8659.25
-8658.59
-8658.03
-8657.57
-8657.22
-8657
-8656.91
-8656.96
-8657.15
-8657.48
-8657.94
-8658.54
-8659.26
-8660.08
-8660.99
-8661.97
-8663
-8664.05
-8665.09
-8666.1
-8667.04
-8667.9
-8668.63
-8669.21
-8669.63
-8669.86
-8669.9
-8669.73
-8669.35
-8668.78
-8668.03
-8667.12
-8666.08
-8664.94
-8663.74
-8662.53
-8661.37
-8660.28
-8659.34
-8658.57
-8658.01
-8657.7
-8657.65
-8657.88
-8658.38
-8659.13
-8660.1
-8661.24
-8662.5
-8663.83
-8665.13
-8666.34
-8667.39
-8668.22
-8668.77
-8668.99
-8668.87
-8668.41
-8667.64
-8666.59
-8665.35
-8664
-8662.63
-8661.36
-8660.28
-8659.48
-8659.02
-8658.96
-8659.3
-8660.01
-8661.02
-8662.26
-8663.6
-8664.91
-8666.07
-8666.96
-8667.48
-8667.58
-8667.25
-8666.52
-8665.47
-8664.23
-8662.91
-8661.71
-8660.76
-8660.16
-8660
-8660.29
-8660.98
-8661.99
-8663.16
-8664.33
-8665.33
-8666.03
-8666.33
-8666.19
-8665.64
-8664.8
-8663.81
-8662.85
-8662.06
-8661.59
-8661.49
-8661.77
-8662.33
-8663.06
-8663.8
-8664.4
-8664.78
-8664.88
-8664.72
-8664.38
-8663.96
-8663.57
-8663.27
-8663.09
-8663
-8662.97
-8905.51
-8905.51
-8905.53
-8905.55
-8905.57
-8905.61
-8905.63
-8905.65
-8894.86
-8894.96
-8894.99
-8895.09
-8895.25
-8895.44
-8895.68
-8895.97
-8896.31
-8896.69
-8897.12
-8897.59
-8898.11
-8898.66
-8899.26
-8899.89
-8900.55
-8901.23
-8901.94
-8902.66
-8903.4
-8904.14
-8904.88
-8905.61
-8906.33
-8907.03
-8907.7
-8908.34
-8908.93
-8909.48
-8909.97
-8910.4
-8910.76
-8911.05
-8911.25
-8911.37
-8911.4
-8911.34
-8911.18
-8910.93
-8910.58
-8910.14
-8909.61
-8909
-8908.3
-8907.53
-8906.7
-8905.82
-8904.89
-8903.94
-8902.97
-8902.01
-8901.05
-8900.14
-8899.27
-8898.47
-8897.75
-8897.13
-8896.62
-8896.24
-8896
-8895.9
-8895.96
-8896.17
-8896.53
-8897.05
-8897.71
-8898.5
-8899.41
-8900.42
-8901.5
-8902.64
-8903.8
-8904.95
-8906.06
-8907.1
-8908.04
-8908.84
-8909.48
-8909.94
-8910.2
-8910.23
-8910.04
-8909.63
-8909
-8908.17
-8907.16
-8906.01
-8904.75
-8903.43
-8902.1
-8900.81
-8899.62
-8898.58
-8897.73
-8897.12
-8896.78
-8896.73
-8896.98
-8897.54
-8898.37
-8899.44
-8900.7
-8902.09
-8903.55
-8904.99
-8906.32
-8907.48
-8908.39
-8908.99
-8909.23
-8909.1
-8908.58
-8907.72
-8906.57
-8905.2
-8903.7
-8902.19
-8900.79
-8899.6
-8898.72
-8898.22
-8898.16
-8898.54
-8899.33
-8900.46
-8901.82
-8903.31
-8904.76
-8906.03
-8907.01
-8907.58
-8907.69
-8907.31
-8906.5
-8905.34
-8903.97
-8902.51
-8901.2
-8900.15
-8899.49
-8899.32
-8899.65
-8900.42
-8901.53
-8902.82
-8904.12
-8905.22
-8905.98
-8906.31
-8906.13
-8905.52
-8904.59
-8903.5
-8902.44
-8901.58
-8901.07
-8900.97
-8901.28
-8901.91
-8902.72
-8903.52
-8904.19
-8904.59
-8904.69
-8904.5
-8904.12
-8903.66
-8903.24
-8902.92
-8902.72
-8902.64
-8902.62
-9118.29
-9118.29
-9118.3
-9118.31
-9118.33
-9118.35
-9118.36
-9118.36
-9106.42
-9106.51
-9106.57
-9106.69
-9106.87
-9107.09
-9107.36
-9107.68
-9108.05
-9108.47
-9108.94
-9109.46
-9110.02
-9110.63
-9111.27
-9111.96
-9112.68
-9113.42
-9114.2
-9114.99
-9115.79
-9116.59
-9117.4
-9118.2
-9118.98
-9119.74
-9120.47
-9121.17
-9121.81
-9122.41
-9122.94
-9123.41
-9123.8
-9124.11
-9124.33
-9124.46
-9124.49
-9124.42
-9124.24
-9123.96
-9123.58
-9123.1
-9122.52
-9121.84
-9121.08
-9120.24
-9119.33
-9118.37
-9117.36
-9116.32
-9115.26
-9114.2
-9113.17
-9112.17
-9111.22
-9110.34
-9109.56
-9108.89
-9108.34
-9107.92
-9107.66
-9107.56
-9107.62
-9107.85
-9108.25
-9108.82
-9109.54
-9110.41
-9111.4
-9112.5
-9113.69
-9114.93
-9116.19
-9117.44
-9118.66
-9119.79
-9120.81
-9121.69
-9122.39
-9122.89
-9123.16
-9123.2
-9122.99
-9122.53
-9121.84
-9120.93
-9119.83
-9118.57
-9117.2
-9115.76
-9114.31
-9112.91
-9111.61
-9110.47
-9109.55
-9108.88
-9108.52
-9108.47
-9108.75
-9109.36
-9110.26
-9111.43
-9112.81
-9114.33
-9115.92
-9117.49
-9118.95
-9120.21
-9121.2
-9121.84
-9122.1
-9121.95
-9121.39
-9120.44
-9119.18
-9117.68
-9116.04
-9114.4
-9112.87
-9111.57
-9110.61
-9110.08
-9110.01
-9110.43
-9111.3
-9112.54
-9114.04
-9115.66
-9117.24
-9118.64
-9119.7
-9120.32
-9120.43
-9120.01
-9119.12
-9117.85
-9116.34
-9114.76
-9113.33
-9112.19
-9111.48
-9111.3
-9111.66
-9112.51
-9113.73
-9115.14
-9116.55
-9117.75
-9118.57
-9118.92
-9118.72
-9118.05
-9117.02
-9115.83
-9114.67
-9113.75
-9113.19
-9113.1
-9113.45
-9114.14
-9115.02
-9115.9
-9116.61
-9117.04
-9117.13
-9116.92
-9116.5
-9116
-9115.54
-9115.21
-9115.01
-9114.93
-9114.91
-9306.77
-9306.77
-9306.78
-9306.79
-9306.8
-9306.81
-9306.82
-9306.82
-9293.78
-9293.88
-9293.95
-9294.09
-9294.28
-9294.52
-9294.82
-9295.17
-9295.57
-9296.03
-9296.54
-9297.1
-9297.71
-9298.36
-9299.06
-9299.8
-9300.58
-9301.39
-9302.22
-9303.07
-9303.94
-9304.81
-9305.68
-9306.54
-9307.38
-9308.2
-9308.99
-9309.74
-9310.44
-9311.08
-9311.65
-9312.15
-9312.57
-9312.9
-9313.14
-9313.28
-9313.31
-9313.23
-9313.03
-9312.73
-9312.31
-9311.79
-9311.16
-9310.43
-9309.61
-9308.7
-9307.72
-9306.67
-9305.58
-9304.45
-9303.31
-9302.17
-9301.05
-9299.97
-9298.95
-9298
-9297.16
-9296.43
-9295.84
-9295.39
-9295.11
-9295
-9295.07
-9295.32
-9295.76
-9296.37
-9297.15
-9298.09
-9299.17
-9300.36
-9301.64
-9302.98
-9304.35
-9305.7
-9307.01
-9308.23
-9309.33
-9310.28
-9311.03
-9311.57
-9311.86
-9311.9
-9311.67
-9311.18
-9310.43
-9309.45
-9308.26
-9306.9
-9305.41
-9303.86
-9302.29
-9300.78
-9299.37
-9298.15
-9297.15
-9296.44
-9296.04
-9296
-9296.3
-9296.96
-9297.94
-9299.21
-9300.7
-9302.34
-9304.06
-9305.75
-9307.32
-9308.68
-9309.75
-9310.44
-9310.72
-9310.55
-9309.94
-9308.91
-9307.54
-9305.92
-9304.15
-9302.37
-9300.72
-9299.32
-9298.29
-9297.72
-9297.65
-9298.11
-9299.06
-9300.4
-9302.02
-9303.78
-9305.49
-9306.99
-9308.14
-9308.8
-9308.91
-9308.46
-9307.49
-9306.11
-9304.48
-9302.78
-9301.23
-9300
-9299.25
-9299.06
-9299.46
-9300.38
-9301.7
-9303.22
-9304.74
-9306.03
-9306.92
-9307.28
-9307.06
-9306.32
-9305.21
-9303.92
-9302.68
-9301.68
-9301.09
-9301
-9301.38
-9302.14
-9303.09
-9304.04
-9304.8
-9305.26
-9305.34
-9305.11
-9304.65
-9304.1
-9303.62
-9303.26
-9303.06
-9302.98
-9302.97
-9473.73
-9473.73
-9473.74
-9473.75
-9473.75
-9473.77
-9473.77
-9473.78
-9459.71
-9459.81
-9459.9
-9460.05
-9460.26
-9460.52
-9460.84
-9461.22
-9461.65