/*--------------------------------*- C++ -*----------------------------------*\
  =========                 |
  \\      /  F ield         | OpenFOAM: The Open Source CFD Toolbox
   \\    /   O peration     | Website:  https://openfoam.org
    \\  /    A nd           | Version:  12
     \\/     M anipulation  |
\*---------------------------------------------------------------------------*/
FoamFile
{
    format      ascii;
    class       volScalarField;
    location    "20";
    object      p;
}
// * * * * * * * * * * * * * * * * * * * * * * * * * * * * * * * * * * * * * //

dimensions      [1 -1 -2 0 0 0 0];

internalField   nonuniform List<scalar> 
3829
(
-618.11
-618.109
-618.106
-618.102
-618.097
-618.09
-618.081
-618.071
-618.058
-618.044
-618.028
-618.01
-617.99
-617.967
-617.941
-617.913
-617.882
-617.848
-617.811
-617.771
-617.728
-617.682
-617.632
-617.579
-617.522
-617.462
-617.399
-617.333
-617.264
-617.191
-617.117
-617.04
-616.96
-616.879
-616.796
-616.712
-616.626
-616.541
-616.454
-616.368
-616.283
-616.198
-616.115
-616.033
-615.954
-615.878
-615.805
-615.734
-615.668
-615.605
-615.547
-615.493
-615.443
-615.398
-615.357
-615.321
-615.29
-615.263
-615.241
-615.222
-615.208
-615.197
-615.19
-615.186
-615.184
-615.184
-615.186
-615.189
-615.192
-615.195
-615.197
-615.197
-615.195
-615.19
-615.182
-615.17
-615.153
-615.132
-615.106
-615.074
-615.037
-614.994
-614.946
-614.893
-614.835
-614.772
-614.707
-614.638
-614.568
-614.497
-614.426
-614.356
-614.289
-614.226
-614.167
-614.115
-614.071
-614.035
-614.008
-613.991
-613.985
-613.991
-614.008
-614.034
-614.07
-614.114
-614.165
-614.221
-614.281
-614.343
-614.404
-614.462
-614.515
-614.56
-614.597
-614.622
-614.636
-614.636
-614.621
-614.592
-614.55
-614.497
-614.434
-614.364
-614.29
-614.216
-614.144
-614.079
-614.024
-613.981
-613.955
-613.945
-613.954
-613.982
-614.027
-614.087
-614.16
-614.24
-614.325
-614.407
-614.481
-614.543
-614.589
-614.615
-614.62
-614.601
-614.562
-614.505
-614.435
-614.358
-614.28
-614.209
-614.152
-614.114
-614.099
-614.111
-614.149
-614.209
-614.286
-614.372
-614.461
-614.538
-614.597
-614.629
-614.63
-614.598
-614.537
-614.452
-614.353
-614.252
-614.162
-614.095
-614.059
-614.06
-614.1
-614.17
-614.258
-614.352
-614.437
-614.494
-614.517
-614.502
-614.45
-614.374
-614.287
-614.195
-614.143
-614.129
-614.157
-614.228
-614.322
-614.421
-614.539
-614.576
-614.56
-614.491
-614.382
-614.259
-614.152
-614.089
-1776.6
-1776.6
-1776.59
-1776.59
-1776.59
-1776.58
-1776.58
-1776.57
-1776.56
-1776.55
-1776.53
-1776.52
-1776.5
-1776.48
-1776.45
-1776.43
-1776.4
-1776.36
-1776.33
-1776.28
-1776.24
-1776.19
-1776.13
-1776.08
-1776.01
-1775.95
-1775.87
-1775.8
-1775.72
-1775.64
-1775.55
-1775.46
-1775.37
-1775.27
-1775.18
-1775.08
-1774.98
-1774.88
-1774.78
-1774.68
-1774.59
-1774.49
-1774.39
-1774.3
-1774.21
-1774.13
-1774.05
-1773.98
-1773.91
-1773.84
-1773.78
-1773.73
-1773.68
-1773.63
-1773.6
-1773.57
-1773.54
-1773.52
-1773.5
-1773.49
-1773.49
-1773.49
-1773.49
-1773.5
-1773.51
-1773.52
-1773.54
-1773.55
-1773.56
-1773.58
-1773.59
-1773.6
-1773.61
-1773.61
-1773.61
-1773.6
-1773.59
-1773.57
-1773.55
-1773.52
-1773.48
-1773.43
-1773.38
-1773.32
-1773.25
-1773.18
-1773.1
-1773.02
-1772.94
-1772.86
-1772.77
-1772.69
-1772.61
-1772.54
-1772.47
-1772.41
-1772.36
-1772.31
-1772.28
-1772.27
-1772.26
-1772.27
-1772.29
-1772.33
-1772.38
-1772.43
-1772.5
-1772.57
-1772.64
-1772.72
-1772.8
-1772.87
-1772.93
-1772.99
-1773.04
-1773.07
-1773.08
-1773.08
-1773.07
-1773.03
-1772.98
-1772.91
-1772.84
-1772.75
-1772.66
-1772.57
-1772.48
-1772.4
-1772.33
-1772.28
-1772.25
-1772.24
-1772.25
-1772.28
-1772.34
-1772.41
-1772.5
-1772.6
-1772.7
-1772.8
-1772.89
-1772.97
-1773.02
-1773.06
-1773.06
-1773.03
-1772.98
-1772.91
-1772.83
-1772.73
-1772.63
-1772.54
-1772.47
-1772.42
-1772.41
-1772.42
-1772.47
-1772.54
-1772.63
-1772.74
-1772.85
-1772.95
-1773.02
-1773.06
-1773.06
-1773.03
-1772.95
-1772.85
-1772.73
-1772.6
-1772.49
-1772.41
-1772.37
-1772.37
-1772.42
-1772.51
-1772.62
-1772.74
-1772.84
-1772.91
-1772.94
-1772.92
-1772.85
-1772.76
-1772.65
-1772.53
-1772.47
-1772.45
-1772.49
-1772.57
-1772.69
-1772.81
-1772.95
-1773
-1772.98
-1772.9
-1772.76
-1772.61
-1772.48
-1772.4
-2802.94
-2802.94
-2802.95
-2802.95
-2802.95
-2802.95
-2802.95
-2802.95
-2802.94
-2802.94
-2802.94
-2802.93
-2802.92
-2802.91
-2802.89
-2802.87
-2802.85
-2802.82
-2802.78
-2802.74
-2802.69
-2802.64
-2802.58
-2802.51
-2802.43
-2802.35
-2802.26
-2802.17
-2802.06
-2801.96
-2801.85
-2801.73
-2801.62
-2801.49
-2801.37
-2801.25
-2801.12
-2801
-2800.87
-2800.75
-2800.63
-2800.51
-2800.4
-2800.29
-2800.18
-2800.08
-2799.99
-2799.91
-2799.83
-2799.76
-2799.69
-2799.64
-2799.59
-2799.55
-2799.52
-2799.5
-2799.48
-2799.47
-2799.47
-2799.48
-2799.49
-2799.51
-2799.54
-2799.56
-2799.6
-2799.63
-2799.67
-2799.7
-2799.74
-2799.77
-2799.8
-2799.83
-2799.86
-2799.87
-2799.89
-2799.89
-2799.88
-2799.87
-2799.85
-2799.81
-2799.77
-2799.72
-2799.65
-2799.58
-2799.5
-2799.41
-2799.31
-2799.21
-2799.11
-2799
-2798.89
-2798.79
-2798.69
-2798.59
-2798.5
-2798.43
-2798.36
-2798.31
-2798.27
-2798.25
-2798.25
-2798.27
-2798.3
-2798.35
-2798.42
-2798.5
-2798.59
-2798.69
-2798.79
-2798.9
-2799
-2799.1
-2799.19
-2799.27
-2799.33
-2799.37
-2799.39
-2799.39
-2799.37
-2799.32
-2799.25
-2799.17
-2799.06
-2798.95
-2798.82
-2798.7
-2798.58
-2798.47
-2798.38
-2798.31
-2798.26
-2798.25
-2798.27
-2798.31
-2798.39
-2798.49
-2798.61
-2798.74
-2798.88
-2799.02
-2799.14
-2799.24
-2799.31
-2799.35
-2799.35
-2799.31
-2799.24
-2799.14
-2799.02
-2798.89
-2798.75
-2798.63
-2798.53
-2798.47
-2798.44
-2798.46
-2798.53
-2798.63
-2798.76
-2798.9
-2799.05
-2799.18
-2799.28
-2799.34
-2799.34
-2799.29
-2799.19
-2799.05
-2798.89
-2798.72
-2798.58
-2798.47
-2798.42
-2798.43
-2798.5
-2798.62
-2798.77
-2798.93
-2799.07
-2799.16
-2799.2
-2799.16
-2799.07
-2798.94
-2798.79
-2798.63
-2798.54
-2798.52
-2798.57
-2798.68
-2798.84
-2799
-2799.2
-2799.26
-2799.24
-2799.12
-2798.95
-2798.74
-2798.57
-2798.46
-3712.14
-3712.14
-3712.15
-3712.16
-3712.17
-3712.18
-3712.2
-3712.22
-3712.24
-3712.26
-3712.27
-3712.29
-3712.3
-3712.31
-3712.31
-3712.31
-3712.3
-3712.28
-3712.25
-3712.21
-3712.17
-3712.11
-3712.03
-3711.95
-3711.86
-3711.75
-3711.63
-3711.51
-3711.37
-3711.23
-3711.08
-3710.92
-3710.76
-3710.6
-3710.43
-3710.26
-3710.1
-3709.93
-3709.77
-3709.61
-3709.45
-3709.3
-3709.16
-3709.02
-3708.89
-3708.77
-3708.67
-3708.57
-3708.49
-3708.41
-3708.35
-3708.3
-3708.26
-3708.23
-3708.21
-3708.2
-3708.2
-3708.22
-3708.24
-3708.27
-3708.31
-3708.36
-3708.42
-3708.48
-3708.54
-3708.61
-3708.67
-3708.74
-3708.81
-3708.87
-3708.93
-3708.99
-3709.04
-3709.07
-3709.1
-3709.12
-3709.12
-3709.11
-3709.09
-3709.06
-3709.01
-3708.94
-3708.86
-3708.77
-3708.67
-3708.55
-3708.43
-3708.29
-3708.16
-3708.01
-3707.87
-3707.73
-3707.6
-3707.48
-3707.36
-3707.26
-3707.18
-3707.11
-3707.06
-3707.04
-3707.05
-3707.07
-3707.12
-3707.2
-3707.29
-3707.4
-3707.53
-3707.67
-3707.81
-3707.96
-3708.11
-3708.24
-3708.37
-3708.48
-3708.56
-3708.62
-3708.65
-3708.65
-3708.62
-3708.55
-3708.46
-3708.34
-3708.19
-3708.03
-3707.86
-3707.69
-3707.53
-3707.38
-3707.25
-3707.16
-3707.1
-3707.07
-3707.1
-3707.16
-3707.27
-3707.41
-3707.57
-3707.76
-3707.95
-3708.13
-3708.3
-3708.43
-3708.53
-3708.58
-3708.58
-3708.52
-3708.42
-3708.28
-3708.11
-3707.92
-3707.74
-3707.57
-3707.43
-3707.34
-3707.31
-3707.33
-3707.42
-3707.56
-3707.74
-3707.94
-3708.15
-3708.33
-3708.47
-3708.55
-3708.55
-3708.49
-3708.35
-3708.16
-3707.93
-3707.71
-3707.51
-3707.37
-3707.3
-3707.32
-3707.42
-3707.59
-3707.79
-3708.01
-3708.2
-3708.33
-3708.38
-3708.33
-3708.2
-3708.01
-3707.79
-3707.59
-3707.46
-3707.43
-3707.49
-3707.65
-3707.87
-3708.1
-3708.35
-3708.44
-3708.41
-3708.26
-3708.02
-3707.74
-3707.5
-3707.36
-4517.48
-4517.48
-4517.5
-4517.53
-4517.57
-4517.61
-4517.66
-4517.72
-4517.79
-4517.86
-4517.93
-4517.99
-4518.06
-4518.12
-4518.17
-4518.21
-4518.24
-4518.25
-4518.24
-4518.21
-4518.15
-4518.08
-4517.99
-4517.87
-4517.74
-4517.59
-4517.42
-4517.24
-4517.05
-4516.85
-4516.64
-4516.42
-4516.19
-4515.97
-4515.74
-4515.51
-4515.29
-4515.07
-4514.85
-4514.64
-4514.44
-4514.26
-4514.08
-4513.92
-4513.76
-4513.62
-4513.5
-4513.39
-4513.29
-4513.21
-4513.15
-4513.1
-4513.07
-4513.05
-4513.05
-4513.06
-4513.09
-4513.13
-4513.19
-4513.26
-4513.33
-4513.42
-4513.52
-4513.62
-4513.72
-4513.83
-4513.94
-4514.05
-4514.16
-4514.26
-4514.36
-4514.45
-4514.52
-4514.59
-4514.64
-4514.67
-4514.69
-4514.69
-4514.67
-4514.63
-4514.57
-4514.49
-4514.39
-4514.27
-4514.13
-4513.98
-4513.82
-4513.64
-4513.46
-4513.28
-4513.09
-4512.91
-4512.73
-4512.57
-4512.42
-4512.28
-4512.17
-4512.09
-4512.04
-4512.01
-4512.02
-4512.06
-4512.13
-4512.23
-4512.36
-4512.52
-4512.69
-4512.88
-4513.08
-4513.29
-4513.48
-4513.67
-4513.85
-4513.99
-4514.11
-4514.19
-4514.23
-4514.23
-4514.18
-4514.09
-4513.96
-4513.8
-4513.6
-4513.38
-4513.15
-4512.92
-4512.7
-4512.5
-4512.32
-4512.19
-4512.11
-4512.08
-4512.12
-4512.21
-4512.35
-4512.54
-4512.77
-4513.02
-4513.28
-4513.52
-4513.74
-4513.93
-4514.05
-4514.12
-4514.11
-4514.04
-4513.9
-4513.7
-4513.47
-4513.21
-4512.95
-4512.72
-4512.53
-4512.41
-4512.36
-4512.4
-4512.52
-4512.71
-4512.96
-4513.23
-4513.52
-4513.76
-4513.95
-4514.06
-4514.07
-4513.98
-4513.79
-4513.53
-4513.23
-4512.92
-4512.65
-4512.46
-4512.38
-4512.41
-4512.55
-4512.78
-4513.06
-4513.36
-4513.62
-4513.8
-4513.85
-4513.78
-4513.6
-4513.34
-4513.04
-4512.76
-4512.58
-4512.54
-4512.63
-4512.85
-4513.15
-4513.46
-4513.79
-4513.92
-4513.88
-4513.68
-4513.35
-4512.98
-4512.65
-4512.46
-5230.56
-5230.58
-5230.62
-5230.68
-5230.76
-5230.86
-5230.97
-5231.09
-5231.21
-5231.34
-5231.48
-5231.6
-5231.72
-5231.83
-5231.92
-5231.99
-5232.05
-5232.09
-5232.12
-5232.12
-5232.11
-5232.08
-5232.03
-5231.94
-5231.82
-5231.65
-5231.44
-5231.2
-5230.93
-5230.64
-5230.34
-5230.02
-5229.71
-5229.39
-5229.08
-5228.77
-5228.46
-5228.17
-5227.89
-5227.63
-5227.38
-5227.14
-5226.93
-5226.72
-5226.53
-5226.38
-5226.24
-5226.13
-5226.03
-5225.96
-5225.9
-5225.87
-5225.85
-5225.86
-5225.88
-5225.93
-5225.99
-5226.07
-5226.17
-5226.28
-5226.4
-5226.54
-5226.68
-5226.83
-5226.99
-5227.15
-5227.32
-5227.48
-5227.64
-5227.79
-5227.93
-5228.05
-5228.17
-5228.26
-5228.34
-5228.39
-5228.42
-5228.43
-5228.41
-5228.36
-5228.29
-5228.19
-5228.06
-5227.91
-5227.74
-5227.54
-5227.33
-5227.1
-5226.87
-5226.62
-5226.38
-5226.14
-5225.91
-5225.7
-5225.51
-5225.34
-5225.2
-5225.09
-5225.02
-5225
-5225.01
-5225.07
-5225.16
-5225.3
-5225.48
-5225.68
-5225.92
-5226.17
-5226.44
-5226.71
-5226.98
-5227.23
-5227.46
-5227.65
-5227.81
-5227.91
-5227.96
-5227.96
-5227.9
-5227.78
-5227.6
-5227.38
-5227.12
-5226.83
-5226.53
-5226.22
-5225.93
-5225.66
-5225.44
-5225.27
-5225.16
-5225.12
-5225.17
-5225.29
-5225.48
-5225.73
-5226.03
-5226.36
-5226.7
-5227.03
-5227.32
-5227.56
-5227.72
-5227.81
-5227.79
-5227.69
-5227.5
-5227.24
-5226.92
-5226.58
-5226.24
-5225.93
-5225.68
-5225.52
-5225.46
-5225.51
-5225.67
-5225.92
-5226.25
-5226.61
-5226.99
-5227.32
-5227.57
-5227.71
-5227.73
-5227.6
-5227.35
-5227.01
-5226.62
-5226.2
-5225.85
-5225.61
-5225.5
-5225.54
-5225.73
-5226.04
-5226.42
-5226.82
-5227.16
-5227.39
-5227.46
-5227.37
-5227.12
-5226.76
-5226.37
-5225.99
-5225.76
-5225.69
-5225.82
-5226.11
-5226.51
-5226.93
-5227.35
-5227.52
-5227.48
-5227.21
-5226.78
-5226.29
-5225.86
-5225.6
-5861.89
-5861.94
-5862.03
-5862.17
-5862.35
-5862.58
-5862.85
-5863.14
-5863.46
-5863.8
-5864.14
-5864.47
-5864.8
-5865.11
-5865.39
-5865.64
-5865.85
-5866.02
-5866.13
-5866.2
-5866.2
-5866.17
-5865.99
-5865.71
-5865.36
-5864.96
-5864.53
-5864.08
-5863.61
-5863.15
-5862.68
-5862.22
-5861.77
-5861.33
-5860.9
-5860.49
-5860.1
-5859.73
-5859.39
-5859.06
-5858.76
-5858.49
-5858.24
-5858.02
-5857.83
-5857.64
-5857.49
-5857.36
-5857.26
-5857.19
-5857.14
-5857.12
-5857.13
-5857.16
-5857.22
-5857.3
-5857.4
-5857.53
-5857.67
-5857.84
-5858.02
-5858.21
-5858.41
-5858.63
-5858.85
-5859.07
-5859.3
-5859.52
-5859.73
-5859.94
-5860.13
-5860.3
-5860.46
-5860.59
-5860.69
-5860.77
-5860.82
-5860.83
-5860.81
-5860.75
-5860.66
-5860.54
-5860.38
-5860.19
-5859.97
-5859.72
-5859.45
-5859.16
-5858.86
-5858.55
-5858.24
-5857.94
-5857.65
-5857.38
-5857.13
-5856.92
-5856.74
-5856.61
-5856.53
-5856.5
-5856.52
-5856.59
-5856.72
-5856.9
-5857.13
-5857.4
-5857.7
-5858.04
-5858.38
-5858.73
-5859.08
-5859.4
-5859.69
-5859.95
-5860.14
-5860.28
-5860.35
-5860.34
-5860.26
-5860.1
-5859.88
-5859.59
-5859.25
-5858.88
-5858.49
-5858.09
-5857.71
-5857.37
-5857.08
-5856.87
-5856.73
-5856.69
-5856.75
-5856.91
-5857.15
-5857.48
-5857.86
-5858.28
-5858.73
-5859.14
-5859.52
-5859.82
-5860.03
-5860.13
-5860.11
-5859.98
-5859.73
-5859.38
-5858.97
-5858.53
-5858.09
-5857.69
-5857.37
-5857.16
-5857.08
-5857.15
-5857.35
-5857.68
-5858.11
-5858.58
-5859.06
-5859.48
-5859.81
-5859.99
-5860.01
-5859.85
-5859.53
-5859.1
-5858.59
-5858.04
-5857.6
-5857.28
-5857.15
-5857.21
-5857.46
-5857.86
-5858.36
-5858.88
-5859.32
-5859.61
-5859.7
-5859.57
-5859.24
-5858.78
-5858.26
-5857.78
-5857.48
-5857.39
-5857.56
-5857.94
-5858.45
-5859
-5859.52
-5859.75
-5859.7
-5859.36
-5858.81
-5858.17
-5857.62
-5857.29
-6420.03
-6420.12
-6420.32
-6420.58
-6420.92
-6421.34
-6421.85
-6422.39
-6422.99
-6423.61
-6424.24
-6424.83
-6425.39
-6425.91
-6426.37
-6426.76
-6427.07
-6427.29
-6427.41
-6427.43
-6427.31
-6427.04
-6426.76
-6426.49
-6426.15
-6425.73
-6425.22
-6424.63
-6424.01
-6423.37
-6422.74
-6422.13
-6421.53
-6420.96
-6420.41
-6419.9
-6419.42
-6418.97
-6418.56
-6418.18
-6417.83
-6417.52
-6417.24
-6416.99
-6416.77
-6416.57
-6416.43
-6416.31
-6416.23
-6416.17
-6416.15
-6416.15
-6416.19
-6416.26
-6416.36
-6416.48
-6416.63
-6416.81
-6417.01
-6417.24
-6417.48
-6417.74
-6418.01
-6418.29
-6418.58
-6418.88
-6419.17
-6419.46
-6419.74
-6420
-6420.25
-6420.48
-6420.68
-6420.85
-6420.99
-6421.09
-6421.15
-6421.18
-6421.15
-6421.09
-6420.98
-6420.82
-6420.63
-6420.39
-6420.11
-6419.8
-6419.47
-6419.11
-6418.73
-6418.35
-6417.96
-6417.58
-6417.22
-6416.88
-6416.58
-6416.31
-6416.1
-6415.94
-6415.84
-6415.81
-6415.84
-6415.93
-6416.1
-6416.33
-6416.62
-6416.96
-6417.34
-6417.76
-6418.2
-6418.64
-6419.07
-6419.48
-6419.85
-6420.16
-6420.41
-6420.58
-6420.66
-6420.65
-6420.54
-6420.35
-6420.06
-6419.7
-6419.28
-6418.81
-6418.31
-6417.82
-6417.34
-6416.92
-6416.56
-6416.29
-6416.13
-6416.09
-6416.15
-6416.35
-6416.66
-6417.07
-6417.55
-6418.08
-6418.63
-6419.15
-6419.62
-6420
-6420.26
-6420.38
-6420.35
-6420.18
-6419.86
-6419.43
-6418.91
-6418.35
-6417.79
-6417.29
-6416.88
-6416.62
-6416.53
-6416.61
-6416.87
-6417.29
-6417.82
-6418.42
-6419.02
-6419.55
-6419.95
-6420.18
-6420.18
-6420
-6419.61
-6419.07
-6418.44
-6417.73
-6417.18
-6416.8
-6416.63
-6416.71
-6417.03
-6417.54
-6418.16
-6418.82
-6419.38
-6419.74
-6419.85
-6419.68
-6419.26
-6418.68
-6418.02
-6417.42
-6417.03
-6416.93
-6417.13
-6417.61
-6418.26
-6418.96
-6419.6
-6419.89
-6419.82
-6419.4
-6418.71
-6417.92
-6417.22
-6416.81
-6913.64
-6913.77
-6914.01
-6914.43
-6915.02
-6915.76
-6916.67
-6917.69
-6918.75
-6919.81
-6920.88
-6921.92
-6922.89
-6923.77
-6924.55
-6925.2
-6925.71
-6926.1
-6926.36
-6926.48
-6926.48
-6926.36
-6926.09
-6925.57
-6924.85
-6923.97
-6922.97
-6921.86
-6920.8
-6919.78
-6918.84
-6917.97
-6917.17
-6916.43
-6915.77
-6915.16
-6914.6
-6914.1
-6913.64
-6913.23
-6912.85
-6912.52
-6912.22
-6911.97
-6911.76
-6911.58
-6911.43
-6911.31
-6911.23
-6911.19
-6911.19
-6911.23
-6911.3
-6911.4
-6911.55
-6911.72
-6911.93
-6912.17
-6912.43
-6912.72
-6913.03
-6913.36
-6913.71
-6914.07
-6914.44
-6914.8
-6915.17
-6915.53
-6915.88
-6916.22
-6916.53
-6916.81
-6917.06
-6917.28
-6917.45
-6917.58
-6917.66
-6917.69
-6917.66
-6917.58
-6917.45
-6917.26
-6917.02
-6916.73
-6916.4
-6916.02
-6915.61
-6915.17
-6914.71
-6914.24
-6913.77
-6913.31
-6912.87
-6912.46
-6912.09
-6911.77
-6911.51
-6911.32
-6911.2
-6911.16
-6911.2
-6911.32
-6911.53
-6911.81
-6912.17
-6912.59
-6913.07
-6913.58
-6914.11
-6914.66
-6915.19
-6915.69
-6916.14
-6916.52
-6916.82
-6917.03
-6917.12
-6917.11
-6916.98
-6916.74
-6916.39
-6915.94
-6915.42
-6914.85
-6914.24
-6913.63
-6913.05
-6912.53
-6912.09
-6911.77
-6911.57
-6911.53
-6911.61
-6911.85
-6912.23
-6912.73
-6913.32
-6913.97
-6914.65
-6915.28
-6915.85
-6916.31
-6916.63
-6916.78
-6916.74
-6916.52
-6916.12
-6915.59
-6914.95
-6914.26
-6913.58
-6912.96
-6912.47
-6912.15
-6912.04
-6912.14
-6912.47
-6912.98
-6913.63
-6914.36
-6915.1
-6915.75
-6916.24
-6916.51
-6916.53
-6916.29
-6915.81
-6915.16
-6914.41
-6913.49
-6912.84
-6912.38
-6912.18
-6912.28
-6912.67
-6913.3
-6914.07
-6914.89
-6915.56
-6916.01
-6916.14
-6915.92
-6915.41
-6914.68
-6913.88
-6913.13
-6912.66
-6912.53
-6912.78
-6913.37
-6914.18
-6915.03
-6915.8
-6916.16
-6916.08
-6915.57
-6914.73
-6913.76
-6912.91
-6912.41
-7348.7
-7348.9
-7349.31
-7349.94
-7350.84
-7352.03
-7353.58
-7355.59
-7358.48
-7360.5
-7362.3
-7363.84
-7365.16
-7366.29
-7367.23
-7368.02
-7368.63
-7369.09
-7369.38
-7369.52
-7369.56
-7369.48
-7369.18
-7368.51
-7367.44
-7366.04
-7364.42
-7361.82
-7360.29
-7358.85
-7357.67
-7356.64
-7355.74
-7354.93
-7354.2
-7353.55
-7352.96
-7352.43
-7351.96
-7351.53
-7351.14
-7350.8
-7350.51
-7350.25
-7350.03
-7349.86
-7349.72
-7349.62
-7349.57
-7349.56
-7349.58
-7349.65
-7349.76
-7349.91
-7350.11
-7350.33
-7350.6
-7350.9
-7351.23
-7351.59
-7351.98
-7352.39
-7352.81
-7353.25
-7353.7
-7354.15
-7354.6
-7355.04
-7355.46
-7355.87
-7356.24
-7356.59
-7356.89
-7357.15
-7357.36
-7357.52
-7357.62
-7357.65
-7357.62
-7357.53
-7357.37
-7357.15
-7356.86
-7356.51
-7356.11
-7355.66
-7355.17
-7354.65
-7354.1
-7353.54
-7352.98
-7352.43
-7351.9
-7351.41
-7350.97
-7350.59
-7350.28
-7350.05
-7349.91
-7349.87
-7349.92
-7350.07
-7350.32
-7350.67
-7351.1
-7351.61
-7352.18
-7352.79
-7353.44
-7354.09
-7354.72
-7355.32
-7355.86
-7356.31
-7356.67
-7356.92
-7357.03
-7357.01
-7356.85
-7356.56
-7356.14
-7355.61
-7354.98
-7354.29
-7353.57
-7352.84
-7352.15
-7351.52
-7351
-7350.61
-7350.38
-7350.32
-7350.43
-7350.73
-7351.18
-7351.78
-7352.49
-7353.27
-7354.07
-7354.84
-7355.51
-7356.06
-7356.44
-7356.61
-7356.56
-7356.29
-7355.81
-7355.17
-7354.4
-7353.57
-7352.76
-7352.02
-7351.43
-7351.05
-7350.91
-7351.04
-7351.43
-7352.05
-7352.83
-7353.71
-7354.59
-7355.37
-7355.96
-7356.28
-7356.3
-7356.01
-7355.44
-7354.65
-7353.76
-7352.66
-7351.89
-7351.33
-7351.1
-7351.22
-7351.7
-7352.46
-7353.38
-7354.36
-7355.17
-7355.7
-7355.85
-7355.59
-7354.97
-7354.09
-7353.12
-7352.23
-7351.66
-7351.5
-7351.81
-7352.52
-7353.49
-7354.51
-7355.42
-7355.86
-7355.77
-7355.15
-7354.15
-7352.99
-7351.98
-7351.38
-7732.02
-7732.26
-7732.75
-7733.54
-7734.66
-7736.18
-7738.23
-7740.92
-7745.12
-7748.5
-7751.33
-7753.78
-7755.89
-7757.67
-7759.14
-7760.31
-7761.19
-7761.78
-7762.07
-7762.06
-7761.65
-7760.85
-7759.78
-7758.54
-7757.16
-7755.48
-7753.54
-7750.6
-7748.68
-7747.01
-7745.64
-7744.68
-7743.71
-7742.9
-7742.19
-7741.56
-7740.99
-7740.47
-7740.01
-7739.59
-7739.22
-7738.88
-7738.59
-7738.34
-7738.13
-7737.97
-7737.85
-7737.77
-7737.73
-7737.75
-7737.8
-7737.91
-7738.06
-7738.26
-7738.5
-7738.79
-7739.11
-7739.48
-7739.88
-7740.31
-7740.78
-7741.27
-7741.78
-7742.3
-7742.83
-7743.37
-7743.9
-7744.42
-7744.92
-7745.4
-7745.84
-7746.25
-7746.61
-7746.92
-7747.16
-7747.35
-7747.46
-7747.51
-7747.47
-7747.36
-7747.18
-7746.91
-7746.58
-7746.17
-7745.7
-7745.17
-7744.59
-7743.98
-7743.34
-7742.68
-7742.02
-7741.38
-7740.76
-7740.19
-7739.68
-7739.23
-7738.87
-7738.61
-7738.45
-7738.4
-7738.47
-7738.65
-7738.95
-7739.35
-7739.86
-7740.46
-7741.13
-7741.86
-7742.61
-7743.38
-7744.12
-7744.82
-7745.45
-7745.99
-7746.41
-7746.69
-7746.82
-7746.8
-7746.61
-7746.26
-7745.76
-7745.14
-7744.4
-7743.59
-7742.74
-7741.89
-7741.08
-7740.35
-7739.74
-7739.28
-7739.01
-7738.94
-7739.08
-7739.43
-7739.97
-7740.67
-7741.5
-7742.41
-7743.36
-7744.25
-7745.05
-7745.68
-7746.12
-7746.32
-7746.26
-7745.93
-7745.37
-7744.61
-7743.71
-7742.74
-7741.77
-7740.91
-7740.22
-7739.77
-7739.62
-7739.77
-7740.23
-7740.96
-7741.88
-7742.91
-7743.95
-7744.85
-7745.54
-7745.93
-7745.95
-7745.61
-7744.93
-7744
-7742.94
-7741.69
-7740.77
-7740.12
-7739.85
-7740
-7740.56
-7741.45
-7742.54
-7743.7
-7744.65
-7745.27
-7745.44
-7745.13
-7744.39
-7743.36
-7742.21
-7741.17
-7740.5
-7740.31
-7740.67
-7741.51
-7742.65
-7743.85
-7744.91
-7745.42
-7745.32
-7744.61
-7743.43
-7742.08
-7740.88
-7740.18
-8069.9
-8070.02
-8070.25
-8070.58
-8070.94
-8071.32
-8071.57
-8071.91
-8089.27
-8088.77
-8088.4
-8087.87
-8087.31
-8086.72
-8086.14
-8085.56
-8085.02
-8084.51
-8084.04
-8083.61
-8083.21
-8082.85
-8082.52
-8082.24
-8082
-8081.8
-8081.65
-8081.54
-8081.48
-8081.47
-8081.51
-8081.6
-8081.74
-8081.94
-8082.18
-8082.47
-8082.82
-8083.2
-8083.64
-8084.11
-8084.62
-8085.16
-8085.74
-8086.33
-8086.94
-8087.56
-8088.18
-8088.79
-8089.4
-8089.98
-8090.53
-8091.05
-8091.52
-8091.93
-8092.29
-8092.57
-8092.79
-8092.92
-8092.97
-8092.93
-8092.8
-8092.59
-8092.28
-8091.89
-8091.42
-8090.88
-8090.27
-8089.61
-8088.9
-8088.16
-8087.4
-8086.65
-8085.91
-8085.2
-8084.54
-8083.95
-8083.44
-8083.03
-8082.72
-8082.54
-8082.49
-8082.57
-8082.79
-8083.13
-8083.61
-8084.2
-8084.89
-8085.66
-8086.5
-8087.37
-8088.25
-8089.11
-8089.91
-8090.64
-8091.26
-8091.74
-8092.06
-8092.21
-8092.18
-8091.96
-8091.56
-8090.98
-8090.26
-8089.41
-8088.48
-8087.5
-8086.51
-8085.58
-8084.74
-8084.04
-8083.51
-8083.2
-8083.13
-8083.29
-8083.69
-8084.32
-8085.13
-8086.09
-8087.14
-8088.23
-8089.26
-8090.17
-8090.9
-8091.4
-8091.62
-8091.55
-8091.17
-8090.52
-8089.64
-8088.6
-8087.48
-8086.37
-8085.37
-8084.58
-8084.07
-8083.89
-8084.07
-8084.6
-8085.44
-8086.5
-8087.69
-8088.88
-8089.93
-8090.72
-8091.16
-8091.19
-8090.79
-8090
-8088.93
-8087.69
-8086.3
-8085.23
-8084.48
-8084.16
-8084.34
-8084.99
-8086.03
-8087.28
-8088.63
-8089.72
-8090.42
-8090.62
-8090.26
-8089.4
-8088.2
-8086.88
-8085.68
-8084.9
-8084.68
-8085.1
-8086.07
-8087.39
-8088.77
-8089.99
-8090.58
-8090.47
-8089.65
-8088.3
-8086.73
-8085.36
-8084.55
-8367.96
-8367.99
-8368.04
-8368.12
-8368.26
-8368.6
-8368.81
-8369.07
-8392.56
-8392.2
-8391.89
-8391.5
-8391.06
-8390.6
-8390.13
-8389.64
-8389.18
-8388.72
-8388.29
-8387.88
-8387.51
-8387.16
-8386.85
-8386.57
-8386.34
-8386.15
-8386.01
-8385.92
-8385.87
-8385.88
-8385.95
-8386.07
-8386.24
-8386.48
-8386.77
-8387.11
-8387.51
-8387.96
-8388.46
-8389.01
-8389.6
-8390.22
-8390.87
-8391.55
-8392.25
-8392.95
-8393.66
-8394.36
-8395.05
-8395.71
-8396.34
-8396.92
-8397.46
-8397.93
-8398.33
-8398.65
-8398.89
-8399.04
-8399.1
-8399.05
-8398.91
-8398.66
-8398.32
-8397.87
-8397.34
-8396.72
-8396.03
-8395.28
-8394.48
-8393.64
-8392.78
-8391.92
-8391.09
-8390.28
-8389.54
-8388.87
-8388.3
-8387.83
-8387.49
-8387.29
-8387.23
-8387.33
-8387.57
-8387.97
-8388.51
-8389.18
-8389.97
-8390.85
-8391.8
-8392.79
-8393.79
-8394.76
-8395.67
-8396.49
-8397.19
-8397.73
-8398.1
-8398.27
-8398.23
-8397.98
-8397.52
-8396.86
-8396.04
-8395.08
-8394.02
-8392.9
-8391.79
-8390.73
-8389.78
-8388.99
-8388.4
-8388.05
-8387.96
-8388.15
-8388.61
-8389.32
-8390.25
-8391.34
-8392.53
-8393.76
-8394.92
-8395.95
-8396.78
-8397.35
-8397.59
-8397.5
-8397.07
-8396.33
-8395.33
-8394.15
-8392.87
-8391.61
-8390.49
-8389.59
-8389.01
-8388.81
-8389.02
-8389.62
-8390.57
-8391.78
-8393.12
-8394.48
-8395.67
-8396.57
-8397.07
-8397.09
-8396.64
-8395.74
-8394.51
-8393.11
-8391.56
-8390.35
-8389.49
-8389.13
-8389.34
-8390.08
-8391.26
-8392.67
-8394.22
-8395.45
-8396.25
-8396.47
-8396.05
-8395.07
-8393.7
-8392.2
-8390.84
-8389.95
-8389.71
-8390.18
-8391.28
-8392.78
-8394.36
-8395.73
-8396.41
-8396.28
-8395.35
-8393.82
-8392.05
-8390.49
-8389.58
-8632.24
-8632.29
-8632.38
-8632.54
-8632.71
-8632.73
-8632.75
-8632.85
-8661.26
-8661.04
-8660.84
-8660.55
-8660.21
-8659.83
-8659.43
-8659
-8658.58
-8658.16
-8657.75
-8657.37
-8657
-8656.66
-8656.36
-8656.09
-8655.86
-8655.68
-8655.54
-8655.46
-8655.43
-8655.46
-8655.55
-8655.7
-8655.91
-8656.18
-8656.52
-8656.91
-8657.37
-8657.88
-8658.45
-8659.06
-8659.72
-8660.43
-8661.16
-8661.92
-8662.71
-8663.5
-8664.29
-8665.08
-8665.85
-8666.59
-8667.29
-8667.95
-8668.54
-8669.07
-8669.52
-8669.88
-8670.15
-8670.31
-8670.37
-8670.32
-8670.16
-8669.88
-8669.49
-8669
-8668.4
-8667.71
-8666.94
-8666.09
-8665.19
-8664.26
-8663.3
-8662.34
-8661.41
-8660.51
-8659.68
-8658.94
-8658.29
-8657.78
-8657.4
-8657.18
-8657.11
-8657.22
-8657.5
-8657.95
-8658.56
-8659.31
-8660.19
-8661.18
-8662.24
-8663.35
-8664.46
-8665.55
-8666.57
-8667.49
-8668.27
-8668.87
-8669.28
-8669.46
-8669.41
-8669.13
-8668.61
-8667.88
-8666.96
-8665.88
-8664.7
-8663.45
-8662.21
-8661.03
-8659.96
-8659.08
-8658.42
-8658.03
-8657.94
-8658.15
-8658.67
-8659.47
-8660.51
-8661.73
-8663.06
-8664.43
-8665.73
-8666.88
-8667.81
-8668.43
-8668.7
-8668.6
-8668.11
-8667.28
-8666.16
-8664.83
-8663.41
-8662
-8660.74
-8659.73
-8659.09
-8658.87
-8659.1
-8659.78
-8660.85
-8662.2
-8663.7
-8665.22
-8666.54
-8667.55
-8668.11
-8668.14
-8667.62
-8666.61
-8665.24
-8663.66
-8661.96
-8660.6
-8659.64
-8659.24
-8659.47
-8660.31
-8661.63
-8663.2
-8664.96
-8666.32
-8667.21
-8667.45
-8666.98
-8665.88
-8664.34
-8662.66
-8661.14
-8660.15
-8659.87
-8660.4
-8661.64
-8663.32
-8665.08
-8666.61
-8667.37
-8667.24
-8666.2
-8664.48
-8662.5
-8660.77
-8659.74
-8866.2
-8866.22
-8866.25
-8866.27
-8866.27
-8866.29
-8866.38
-8866.44
-8899.52
-8899.38
-8899.21
-8898.99
-8898.7
-8898.36
-8898
-8897.62
-8897.22
-8896.82
-8896.43
-8896.05
-8895.68
-8895.35
-8895.04
-8894.77
-8894.55
-8894.37
-8894.24
-8894.17
-8894.15
-8894.2
-8894.3
-8894.48
-8894.72
-8895.03
-8895.41
-8895.86
-8896.37
-8896.94
-8897.57
-8898.26
-8898.99
-8899.77
-8900.58
-8901.43
-8902.29
-8903.17
-8904.05
-8904.92
-8905.77
-8906.59
-8907.36
-8908.09
-8908.74
-8909.33
-8909.82
-8910.22
-8910.51
-8910.69
-8910.76
-8910.7
-8910.52
-8910.21
-8909.78
-8909.23
-8908.57
-8907.8
-8906.95
-8906.02
-8905.03
-8903.99
-8902.93
-8901.88
-8900.85
-8899.86
-8898.95
-8898.13
-8897.42
-8896.85
-8896.44
-8896.19
-8896.13
-8896.25
-8896.56
-8897.06
-8897.73
-8898.57
-8899.54
-8900.63
-8901.81
-8903.03
-8904.26
-8905.46
-8906.59
-8907.6
-8908.45
-8909.12
-8909.56
-8909.77
-8909.71
-8909.39
-8908.82
-8908.01
-8906.99
-8905.8
-8904.49
-8903.12
-8901.74
-8900.44
-8899.27
-8898.29
-8897.57
-8897.14
-8897.04
-8897.28
-8897.86
-8898.74
-8899.89
-8901.24
-8902.71
-8904.22
-8905.65
-8906.92
-8907.94
-8908.62
-8908.92
-8908.8
-8908.27
-8907.34
-8906.1
-8904.63
-8903.06
-8901.5
-8900.11
-8899.01
-8898.29
-8898.05
-8898.32
-8899.07
-8900.25
-8901.74
-8903.4
-8905.07
-8906.54
-8907.64
-8908.26
-8908.29
-8907.72
-8906.6
-8905.08
-8903.33
-8901.47
-8899.97
-8898.92
-8898.47
-8898.73
-8899.66
-8901.12
-8902.84
-8904.82
-8906.3
-8907.28
-8907.55
-8907.03
-8905.8
-8904.1
-8902.24
-8900.56
-8899.46
-8899.16
-8899.75
-8901.12
-8902.98
-8904.93
-8906.6
-8907.44
-8907.3
-8906.15
-8904.27
-8902.08
-8900.16
-8899.03
-9073.41
-9073.43
-9073.45
-9073.48
-9073.53
-9073.62
-9073.58
-9073.6
-9110.76
-9110.64
-9110.49
-9110.3
-9110.03
-9109.72
-9109.38
-9109.01
-9108.62
-9108.23
-9107.84
-9107.46
-9107.09
-9106.75
-9106.44
-9106.17
-9105.94
-9105.76
-9105.63
-9105.57
-9105.56
-9105.62
-9105.75
-9105.95
-9106.22
-9106.57
-9106.99
-9107.48
-9108.04
-9108.67
-9109.36
-9110.12
-9110.92
-9111.78
-9112.67
-9113.59
-9114.54
-9115.5
-9116.46
-9117.41
-9118.33
-9119.23
-9120.08
-9120.86
-9121.58
-9122.21
-9122.75
-9123.19
-9123.5
-9123.7
-9123.77
-9123.7
-9123.5
-9123.16
-9122.69
-9122.09
-9121.37
-9120.53
-9119.6
-9118.58
-9117.5
-9116.37
-9115.22
-9114.06
-9112.94
-9111.86
-9110.87
-9109.97
-9109.21
-9108.59
-9108.14
-9107.87
-9107.8
-9107.94
-9108.29
-9108.83
-9109.57
-9110.48
-9111.55
-9112.74
-9114.02
-9115.36
-9116.7
-9118.01
-9119.24
-9120.34
-9121.27
-9121.99
-9122.48
-9122.7
-9122.63
-9122.28
-9121.66
-9120.77
-9119.65
-9118.35
-9116.92
-9115.42
-9113.93
-9112.51
-9111.23
-9110.17
-9109.38
-9108.92
-9108.81
-9109.07
-9109.7
-9110.67
-9111.93
-9113.4
-9115
-9116.65
-9118.21
-9119.6
-9120.7
-9121.45
-9121.77
-9121.64
-9121.05
-9120.04
-9118.68
-9117.07
-9115.35
-9113.66
-9112.14
-9110.93
-9110.16
-9109.9
-9110.19
-9111.01
-9112.3
-9113.94
-9115.75
-9117.57
-9119.16
-9120.37
-9121.04
-9121.08
-9120.45
-9119.23
-9117.56
-9115.65
-9113.64
-9112
-9110.85
-9110.37
-9110.65
-9111.67
-9113.27
-9115.14
-9117.31
-9118.92
-9119.99
-9120.28
-9119.71
-9118.36
-9116.5
-9114.47
-9112.64
-9111.44
-9111.1
-9111.74
-9113.24
-9115.28
-9117.41
-9119.23
-9120.15
-9120
-9118.75
-9116.69
-9114.3
-9112.21
-9110.98
-9256.95
-9256.96
-9256.98
-9257
-9257.02
-9257.05
-9257.04
-9257.07
-9297.97
-9297.88
-9297.73
-9297.54
-9297.29
-9296.98
-9296.65
-9296.28
-9295.9
-9295.5
-9295.1
-9294.71
-9294.34
-9293.99
-9293.67
-9293.39
-9293.16
-9292.98
-9292.85
-9292.78
-9292.79
-9292.86
-9293.01
-9293.23
-9293.53
-9293.91
-9294.37
-9294.9
-9295.52
-9296.2
-9296.95
-9297.77
-9298.64
-9299.57
-9300.53
-9301.53
-9302.55
-9303.59
-9304.63
-9305.66
-9306.66
-9307.63
-9308.54
-9309.39
-9310.17
-9310.85
-9311.43
-9311.9
-9312.24
-9312.45
-9312.52
-9312.45
-9312.23
-9311.86
-9311.35
-9310.7
-9309.92
-9309.01
-9308
-9306.9
-9305.73
-9304.51
-9303.26
-9302.02
-9300.8
-9299.64
-9298.57
-9297.6
-9296.78
-9296.11
-9295.63
-9295.34
-9295.27
-9295.42
-9295.8
-9296.39
-9297.19
-9298.18
-9299.33
-9300.62
-9302.01
-9303.45
-9304.9
-9306.31
-9307.64
-9308.83
-9309.84
-9310.62
-9311.14
-9311.37
-9311.3
-9310.92
-9310.24
-9309.28
-9308.07
-9306.66
-9305.12
-9303.5
-9301.88
-9300.35
-9298.97
-9297.82
-9296.97
-9296.47
-9296.36
-9296.65
-9297.33
-9298.38
-9299.74
-9301.34
-9303.07
-9304.85
-9306.53
-9308.03
-9309.22
-9310.02
-9310.37
-9310.22
-9309.58
-9308.48
-9307.01
-9305.27
-9303.41
-9301.58
-9299.94
-9298.64
-9297.8
-9297.52
-9297.84
-9298.74
-9300.13
-9301.9
-9303.85
-9305.82
-9307.54
-9308.85
-9309.57
-9309.61
-9308.93
-9307.6
-9305.79
-9303.73
-9301.58
-9299.81
-9298.56
-9298.04
-9298.35
-9299.46
-9301.19
-9303.22
-9305.55
-9307.29
-9308.45
-9308.76
-9308.14
-9306.68
-9304.66
-9302.46
-9300.48
-9299.18
-9298.82
-9299.52
-9301.14
-9303.35
-9305.66
-9307.61
-9308.61
-9308.44
-9307.1
-9304.87
-9302.3
-9300.03
-9298.7
-9419.53
-9419.54
-9419.55
-9419.56
-9419.58
-9419.61
-9419.63
-9419.64
-9463.89
-9463.8
-9463.65
-9463.46
-9463.21
-9462.91
-9462.57