/*--------------------------------*- C++ -*----------------------------------*\
  =========                 |
  \\      /  F ield         | OpenFOAM: The Open Source CFD Toolbox
   \\    /   O peration     | Website:  https://openfoam.org
    \\  /    A nd           | Version:  12
     \\/     M anipulation  |
\*---------------------------------------------------------------------------*/
FoamFile
{
    format      ascii;
    class       volScalarField;
    location    "20";
    object      p_rgh;
}
// * * * * * * * * * * * * * * * * * * * * * * * * * * * * * * * * * * * * * //

dimensions      [1 -1 -2 0 0 0 0];

internalField   nonuniform List<scalar> 
3829
(
-3.87171
-3.8704
-3.86777
-3.86373
-3.85823
-3.85119
-3.84254
-3.83218
-3.82001
-3.80594
-3.78983
-3.77159
-3.75107
-3.72814
-3.70268
-3.67455
-3.64362
-3.60977
-3.57289
-3.53287
-3.48964
-3.44312
-3.39328
-3.34008
-3.28355
-3.2237
-3.16062
-3.0944
-3.02516
-2.95306
-2.8783
-2.80109
-2.72169
-2.64037
-2.55742
-2.47317
-2.38796
-2.30213
-2.21603
-2.13005
-2.04455
-1.95995
-1.87663
-1.79502
-1.71592
-1.6395
-1.56609
-1.49601
-1.42957
-1.36701
-1.30858
-1.25444
-1.20473
-1.15956
-1.11897
-1.08298
-1.05157
-1.02465
-1.00213
-0.983834
-0.969528
-0.958934
-0.951705
-0.947447
-0.945714
-0.946014
-0.947815
-0.950538
-0.953624
-0.956395
-0.958201
-0.958428
-0.95646
-0.951693
-0.943547
-0.931489
-0.915047
-0.893828
-0.867547
-0.836059
-0.798724
-0.755763
-0.707443
-0.654086
-0.596086
-0.533922
-0.468215
-0.39974
-0.329375
-0.258114
-0.187077
-0.117411
-0.0503456
0.0128895
0.071062
0.122973
0.167521
0.203696
0.230648
0.247712
0.253
0.247167
0.230732
0.204301
0.168619
0.124664
0.073718
0.0173364
-0.0426625
-0.10441
-0.165322
-0.223372
-0.276318
-0.321999
-0.358455
-0.384012
-0.397368
-0.397749
-0.382338
-0.353145
-0.311254
-0.258067
-0.195431
-0.125763
-0.0519946
0.0226503
0.0942843
0.159486
0.214795
0.257098
0.283847
0.293293
0.28446
0.256576
0.21134
0.151006
0.0786522
-0.00187804
-0.0866754
-0.168325
-0.242754
-0.305027
-0.350826
-0.376908
-0.381516
-0.362992
-0.323687
-0.266826
-0.196928
-0.119511
-0.0412669
0.0295407
0.0868322
0.124723
0.138963
0.127433
0.0896029
0.029502
-0.0473807
-0.13401
-0.222994
-0.299954
-0.358202
-0.390228
-0.39116
-0.359831
-0.298181
-0.213217
-0.114558
-0.0135304
0.0765891
0.14365
0.17933
0.178416
0.138373
0.0685141
-0.019796
-0.113391
-0.198072
-0.255441
-0.278752
-0.263977
-0.211815
-0.135458
-0.0488593
0.0435889
0.0954585
0.109566
0.0814308
0.0105354
-0.0836099
-0.182268
-0.300432
-0.337963
-0.32196
-0.25264
-0.143781
-0.0207381
0.0864945
0.149474
-3.98849
-3.98759
-3.98574
-3.98288
-3.97891
-3.97373
-3.96721
-3.9592
-3.94953
-3.93801
-3.92445
-3.90864
-3.89036
-3.86942
-3.8456
-3.81869
-3.78846
-3.75469
-3.71716
-3.67567
-3.63008
-3.58026
-3.5261
-3.46759
-3.40471
-3.33754
-3.26617
-3.19077
-3.11152
-3.02866
-2.94242
-2.85309
-2.76101
-2.66657
-2.57019
-2.47231
-2.37342
-2.27399
-2.17454
-2.07554
-1.97745
-1.88071
-1.78557
-1.69426
-1.60632
-1.52232
-1.44259
-1.36744
-1.29715
-1.23197
-1.17212
-1.11777
-1.06906
-1.02606
-0.988814
-0.957311
-0.931489
-0.911226
-0.896337
-0.886574
-0.881632
-0.881125
-0.884598
-0.891529
-0.901334
-0.913377
-0.92697
-0.941388
-0.956324
-0.970099
-0.982401
-0.99244
-0.999438
-1.00265
-1.00136
-0.994926
-0.982757
-0.964343
-0.939228
-0.90699
-0.867417
-0.82075
-0.767243
-0.707229
-0.64117
-0.569681
-0.493572
-0.413828
-0.331541
-0.24789
-0.164407
-0.0824432
-0.0035203
0.0708451
0.139122
0.199851
0.251676
0.293347
0.323833
0.342293
0.345555
0.335723
0.313195
0.278535
0.232577
0.176549
0.112053
0.0410065
-0.0343566
-0.111869
-0.188024
-0.260449
-0.326397
-0.383209
-0.428456
-0.460067
-0.476331
-0.476129
-0.457928
-0.422806
-0.371864
-0.306758
-0.229868
-0.144213
-0.0533933
0.0391465
0.127319
0.207515
0.275534
0.327552
0.36035
0.371641
0.360375
0.326067
0.270464
0.196257
0.107365
0.00853546
-0.095632
-0.195409
-0.286088
-0.361589
-0.416569
-0.447063
-0.450643
-0.426355
-0.376439
-0.304668
-0.216881
-0.119892
-0.0221544
0.0662671
0.13779
0.185113
0.202957
0.188658
0.142385
0.0682686
-0.0268205
-0.134047
-0.244414
-0.339955
-0.412601
-0.452999
-0.455097
-0.41693
-0.341908
-0.238027
-0.117395
0.00605238
0.115371
0.196336
0.239087
0.239974
0.184814
0.0966064
-0.0133223
-0.129331
-0.232693
-0.302774
-0.329962
-0.309079
-0.243415
-0.147262
-0.0383499
0.0746782
0.139822
0.157475
0.121806
0.0357341
-0.0797437
-0.200974
-0.3452
-0.391716
-0.372934
-0.288758
-0.155848
-0.00522824
0.126173
0.203386
-4.17617
-4.17642
-4.17689
-4.1775
-4.17813
-4.1786
-4.17868
-4.17808
-4.17651
-4.17365
-4.16913
-4.16253
-4.15333
-4.141
-4.125
-4.10478
-4.07981
-4.0496
-4.0137
-3.97174
-3.92339
-3.86841
-3.80666
-3.73806
-3.66265
-3.58052
-3.49191
-3.3971
-3.29648
-3.19054
-3.07986
-2.96505
-2.84678
-2.72573
-2.60259
-2.47803
-2.35278
-2.22759
-2.10319
-1.98037
-1.85992
-1.74271
-1.62976
-1.51992
-1.41514
-1.31615
-1.22346
-1.13754
-1.05879
-0.98753
-0.924021
-0.868456
-0.820972
-0.781638
-0.750454
-0.727357
-0.712214
-0.704778
-0.704695
-0.711494
-0.724651
-0.743556
-0.767521
-0.795781
-0.827493
-0.861757
-0.897626
-0.934094
-0.970121
-1.00461
-1.03648
-1.06468
-1.08816
-1.10594
-1.1171
-1.12083
-1.1165
-1.10366
-1.08218
-1.04638
-1.00136
-0.946874
-0.882954
-0.809916
-0.728339
-0.63906
-0.543203
-0.442121
-0.337324
-0.230237
-0.123332
-0.0182529
0.082921
0.178108
0.265254
0.342373
0.407611
0.45934
0.496218
0.517173
0.516823
0.499533
0.465531
0.415384
0.350158
0.271551
0.18174
0.0834008
-0.0203923
-0.12827
-0.232635
-0.331816
-0.422022
-0.499596
-0.561235
-0.60409
-0.625934
-0.625201
-0.601
-0.554007
-0.485448
-0.397579
-0.293779
-0.178359
-0.0563895
0.0717791
0.190028
0.297982
0.389663
0.459802
0.503908
0.518762
0.502522
0.455672
0.380204
0.279659
0.159573
0.0265552
-0.113672
-0.247332
-0.368314
-0.468408
-0.540396
-0.578913
-0.58052
-0.544927
-0.47462
-0.374698
-0.253206
-0.119389
0.0148115
0.136175
0.234285
0.299098
0.323507
0.304011
0.241408
0.140683
0.0113005
-0.134607
-0.284898
-0.415149
-0.514533
-0.57049
-0.574548
-0.523609
-0.423192
-0.28375
-0.121861
0.0437353
0.18879
0.294668
0.346693
0.336708
0.266849
0.147515
-0.00228174
-0.160268
-0.298931
-0.392653
-0.426938
-0.394811
-0.30292
-0.169115
-0.0179731
0.133741
0.223922
0.248494
0.199076
0.0835092
-0.0726304
-0.235985
-0.428568
-0.491629
-0.467939
-0.35627
-0.178591
0.0236113
0.200194
0.303901
-4.32978
-4.3329
-4.33917
-4.3485
-4.36071
-4.37548
-4.39238
-4.41083
-4.43009
-4.44924
-4.46728
-4.48318
-4.49592
-4.50441
-4.50753
-4.50422
-4.49348
-4.47437
-4.44604
-4.40771
-4.35871
-4.29855
-4.22687
-4.14356
-4.0487
-3.94263
-3.82595
-3.69945
-3.56412
-3.42099
-3.27097
-3.11506
-2.95441
-2.79025
-2.62381
-2.45634
-2.28907
-2.12313
-1.95963
-1.79958
-1.64388
-1.49326
-1.34814
-1.20891
-1.08257
-0.966644
-0.860954
-0.765604
-0.680768
-0.606666
-0.543484
-0.491385
-0.450481
-0.420772
-0.40219
-0.394567
-0.397612
-0.410914
-0.433955
-0.466096
-0.506571
-0.554487
-0.608859
-0.668578
-0.732455
-0.799214
-0.867566
-0.935981
-1.00306
-1.06728
-1.12717
-1.18124
-1.22801
-1.2661
-1.29419
-1.31105
-1.31552
-1.30665
-1.28344
-1.24829
-1.19844
-1.13406
-1.05556
-0.963641
-0.859315
-0.743877
-0.618956
-0.486485
-0.348604
-0.207596
-0.0663622
0.072483
0.206066
0.33149
0.44592
0.546579
0.630954
0.696824
0.742371
0.766215
0.761448
0.733823
0.683391
0.610846
0.5177
0.40633
0.279752
0.141622
-0.00384492
-0.153753
-0.299352
-0.437426
-0.562754
-0.670389
-0.755754
-0.814914
-0.844714
-0.843079
-0.809744
-0.744912
-0.650153
-0.528687
-0.385255
-0.225746
-0.0568379
0.116433
0.279968
0.428753
0.554879
0.651303
0.712089
0.732479
0.708514
0.6427
0.537826
0.39896
0.233573
0.0508443
-0.141576
-0.32419
-0.48889
-0.62434
-0.720725
-0.770587
-0.769136
-0.716726
-0.616307
-0.47521
-0.30454
-0.117412
0.0697673
0.238942
0.375551
0.46576
0.499631
0.472249
0.385373
0.245692
0.0663432
-0.135804
-0.343734
-0.524247
-0.662358
-0.740727
-0.747657
-0.678174
-0.540406
-0.349335
-0.127434
0.0998338
0.297027
0.439108
0.505618
0.484939
0.38783
0.221343
0.0129394
-0.206447
-0.396741
-0.524697
-0.56901
-0.520449
-0.389617
-0.200446
0.0125567
0.220653
0.347302
0.38202
0.312767
0.15349
-0.0628163
-0.288311
-0.547168
-0.634899
-0.604907
-0.454008
-0.211819
0.0649828
0.306863
0.449222
-4.37992
-4.38906
-4.40747
-4.43501
-4.47136
-4.51592
-4.56811
-4.62717
-4.69174
-4.75992
-4.82973
-4.89879
-4.96468
-5.02471
-5.07618
-5.11621
-5.14203
-5.15106
-5.14114
-5.1106
-5.05847
-4.98458
-4.88987
-4.77557
-4.64298
-4.49319
-4.32771
-4.14807
-3.95607
-3.75319
-3.54111
-3.32188
-3.09759
-2.87032
-2.64206
-2.41469
-2.18999
-1.96962
-1.75511
-1.54789
-1.34941
-1.16111
-0.984711
-0.821835
-0.665899
-0.52669
-0.40166
-0.291385
-0.196308
-0.11673
-0.0528653
-0.00482206
0.0274109
0.0439478
0.0450393
0.0311208
0.00278353
-0.0392379
-0.0940781
-0.160746
-0.23812
-0.324941
-0.419816
-0.521212
-0.627495
-0.736998
-0.847725
-0.957821
-1.06528
-1.16807
-1.2642
-1.35164
-1.42838
-1.49259
-1.54249
-1.57644
-1.59311
-1.59128
-1.57002
-1.52997
-1.46999
-1.39003
-1.29057
-1.17254
-1.03733
-0.886744
-0.723029
-0.548828
-0.367106
-0.181066
0.00543538
0.188774
0.36494
0.53005
0.680151
0.811441
0.920513
1.00431
1.06032
1.08669
1.07723
1.03669
0.965057
0.863334
0.733724
0.579478
0.404735
0.214495
0.0144626
-0.189958
-0.389501
-0.578433
-0.749726
-0.89651
-1.01256
-1.09271
-1.13282
-1.12975
-1.08402
-0.995202
-0.865643
-0.69984
-0.50421
-0.286813
-0.0569287
0.176364
0.398514
0.60029
0.771096
0.901487
0.984128
1.01344
0.977128
0.885599
0.74185
0.552661
0.328052
0.0803113
-0.180345
-0.426778
-0.648407
-0.829821
-0.957727
-1.02184
-1.01626
-0.941276
-0.800891
-0.60543
-0.370222
-0.112967
0.143605
0.375249
0.56193
0.68518
0.731181
0.6932
0.574013
0.382909
0.138009
-0.137851
-0.420867
-0.666881
-0.855439
-0.963347
-0.97564
-0.879787
-0.692852
-0.434428
-0.133905
0.175448
0.441105
0.630557
0.716704
0.685711
0.548066
0.317807
0.0316022
-0.268885
-0.527076
-0.699699
-0.756952
-0.686592
-0.503491
-0.240994
0.0537732
0.335984
0.510885
0.55889
0.463895
0.246011
-0.0511048
-0.363413
-0.694994
-0.820251
-0.783638
-0.581972
-0.25554
0.118611
0.44583
0.638439
-4.0909
-4.11073
-4.15062
-4.21004
-4.28807
-4.38285
-4.49216
-4.61224
-4.73987
-4.87103
-5.00192
-5.12826
-5.24625
-5.35244
-5.44424
-5.51989
-5.57851
-5.61982
-5.64368
-5.6499
-5.63823
-5.6092
-5.55614
-5.47054
-5.34509
-5.17751
-4.97022
-4.72863
-4.45908
-4.16871
-3.86431
-3.55126
-3.234
-2.9163
-2.6014
-2.29214
-1.99099
-1.70003
-1.42112
-1.15582
-0.905385
-0.670571
-0.451794
-0.248738
-0.0599294
0.0945835
0.228804
0.343626
0.438912
0.514342
0.569642
0.604674
0.619479
0.614284
0.589494
0.545682
0.483595
0.404177
0.308566
0.198086
0.074226
-0.0613095
-0.206675
-0.359822
-0.518575
-0.680618
-0.843521
-1.00474
-1.16163
-1.31151
-1.4517
-1.57958
-1.69259
-1.78822
-1.86431
-1.91867
-1.94941
-1.95501
-1.93438
-1.88805
-1.8148
-1.71465
-1.5883
-1.43708
-1.26289
-1.06813
-0.855825
-0.629529
-0.393195
-0.151136
0.0915941
0.330058
0.558981
0.773108
0.967128
1.13605
1.27527
1.38071
1.44908
1.47814
1.46305
1.40674
1.30898
1.17126
0.996598
0.789374
0.555175
0.300687
0.0334694
-0.238323
-0.504193
-0.755529
-0.982977
-1.17765
-1.33141
-1.43711
-1.48933
-1.48472
-1.42282
-1.30373
-1.13067
-0.909822
-0.649698
-0.360989
-0.0559684
0.252
0.545816
0.812231
1.03726
1.20839
1.31639
1.35647
1.30423
1.18141
0.990148
0.739081
0.44151
0.113761
-0.23035
-0.555276
-0.846763
-1.08449
-1.2507
-1.33183
-1.3207
-1.21726
-1.02714
-0.764342
-0.449262
-0.105235
0.236651
0.545081
0.793311
0.956562
1.01725
0.965897
0.806372
0.55151
0.225584
-0.141041
-0.516098
-0.842563
-1.09243
-1.23588
-1.25648
-1.12603
-0.879134
-0.538696
-0.141665
0.271826
0.62134
0.86821
0.978225
0.933739
0.745488
0.435742
0.0529615
-0.348249
-0.690336
-0.917693
-0.990227
-0.89249
-0.643884
-0.290153
0.105919
0.479785
0.71443
0.779096
0.652337
0.361084
-0.0364933
-0.456874
-0.875349
-1.04758
-1.00333
-0.739775
-0.309723
0.184048
0.616253
0.870499
-3.45825
-3.50455
-3.59776
-3.73665
-3.9203
-4.14663
-4.41255
-4.71015
-5.03101
-5.36441
-5.7021
-6.03866
-6.36592
-6.67531
-6.95929
-7.21017
-7.42099
-7.5857
-7.69996
-7.76144
-7.77041
-7.73798
-7.55834
-7.27518
-6.92576
-6.52902
-6.09936
-5.64496
-5.18023
-4.71314
-4.24777
-3.787
-3.33476
-2.89444
-2.46885
-2.06021
-1.6704
-1.30094
-0.95325
-0.628386
-0.32749
-0.0518691
0.19718
0.417868
0.607168
0.791306
0.947643
1.07562
1.17566
1.24822
1.29374
1.31266
1.30549
1.27285
1.2155
1.1344
1.03067
0.905602
0.760695
0.597655
0.418398
0.225097
0.0201164
-0.19392
-0.414255
-0.637907
-0.861755
-1.08258
-1.29695
-1.50147
-1.69276
-1.86743
-2.02213
-2.1539
-2.25968
-2.3369
-2.38321
-2.39683
-2.37612
-2.32104
-2.23083
-2.10568
-1.94658
-1.75529
-1.53425
-1.2866
-1.01629
-0.727905
-0.426618
-0.117991
0.191405
0.495175
0.786524
1.05858
1.30451
1.5178
1.69242
1.82292
1.90488
1.93529
1.91498
1.8405
1.71191
1.53153
1.30346
1.03351
0.729022
0.398684
0.0523743
-0.299194
-0.642896
-0.967476
-1.2609
-1.51173
-1.70929
-1.84488
-1.91121
-1.9036
-1.82224
-1.66699
-1.44229
-1.15616
-0.819692
-0.446765
-0.0533182
0.342882
0.720976
1.06304
1.35092
1.56834
1.70241
1.74591
1.68305
1.52621
1.27985
0.955999
0.572244
0.150048
-0.291419
-0.708889
-1.08255
-1.38625
-1.59704
-1.69776
-1.67954
-1.54187
-1.2925
-0.949794
-0.540077
-0.0940888
0.348482
0.747271
1.06775
1.27761
1.35461
1.28746
1.08011
0.749774
0.328063
-0.145671
-0.629075
-1.05001
-1.37119
-1.55327
-1.57606
-1.41161
-1.09681
-0.661669
-0.152788
0.390393
0.836766
1.14959
1.28683
1.22606
0.977428
0.573503
0.0763841
-0.444505
-0.885548
-1.17705
-1.26703
-1.13643
-0.809446
-0.34735
0.169163
0.651177
0.956399
1.04088
0.877175
0.498065
-0.018692
-0.566017
-1.08809
-1.31526
-1.26211
-0.926117
-0.373857
0.260503
0.816141
1.1432
-1.75934
-1.85319
-2.05036
-2.31558
-2.65697
-3.07185
-3.58058
-4.12817
-4.72562
-5.34524
-5.97003
-6.56537
-7.12827
-7.64593
-8.10496
-8.49416
-8.80368
-9.02438
-9.14656
-9.15899
-9.0463
-8.77585
-8.49375
-8.22022
-7.88798
-7.46122
-6.95139
-6.36164
-5.74502
-5.10854
-4.47746
-3.85928
-3.26203
-2.68951
-2.14493
-1.63113
-1.14997
-0.70252
-0.289226
0.09013
0.435881
0.748661
1.02926
1.27899
1.49935
1.69452
1.83833
1.95334
2.03905
2.09432
2.11872
2.11216
2.07487
2.00739
1.91045
1.78509
1.63262
1.45461
1.25289
1.02955
0.78696
0.527833
0.255105
-0.0279837
-0.318009
-0.61125
-0.903858
-1.19175
-1.47076
-1.7366
-1.98508
-2.212
-2.41324
-2.58496
-2.72359
-2.82575
-2.88879
-2.91021
-2.88794
-2.82218
-2.7119
-2.55745
-2.36023
-2.12249
-1.84735
-1.53881
-1.20182
-0.842218
-0.466506
-0.0817226
0.303883
0.682275
1.04488
1.38302
1.68817
1.95211
2.16716
2.32629
2.42326
2.45211
2.42835
2.33304
2.16871
1.93919
1.64988
1.30821
0.923483
0.50672
0.0703492
-0.371985
-0.80414
-1.21191
-1.58014
-1.89427
-2.14125
-2.31003
-2.39188
-2.38096
-2.27667
-2.07962
-1.79571
-1.43498
-1.0115
-0.542722
-0.0483256
0.448435
0.922073
1.34993
1.70886
1.97812
2.13996
2.17994
2.11123
1.91663
1.60739
1.20035
0.718247
0.1887
-0.363471
-0.886009
-1.35285
-1.73109
-1.99208
-2.11473
-2.08767
-1.91026
-1.59298
-1.15895
-0.641475
-0.0791549
0.477933
0.979409
1.38157
1.6442
1.73917
1.65349
1.39123
0.974709
0.443724
-0.15209
-0.758381
-1.28654
-1.6884
-1.91202
-1.91795
-1.73296
-1.34283
-0.80195
-0.172802
0.5355
1.08442
1.47012
1.63775
1.55787
1.24023
0.728792
0.101332
-0.5571
-1.11059
-1.47462
-1.58378
-1.41482
-0.997712
-0.411339
0.242497
0.847928
1.23391
1.34098
1.13475
0.654953
0.00216897
-0.689455
-1.33032
-1.61987
-1.55647
-1.13803
-0.447121
0.346824
1.04272
1.45243
0.562916
0.43578
0.189827
-0.232283
-0.819259
-1.5594
-2.46532
-3.48592
-4.55035
-5.61231
-6.677
-7.71733
-8.69162
-9.57254
-10.3445
-10.9942
-11.5137
-11.9006
-12.1557
-12.2809
-12.2814
-12.1612
-11.8849
-11.3704
-10.6534
-9.76912
-8.76744
-7.66411
-6.59987
-5.58372
-4.64009
-3.7669
-2.96519
-2.23261
-1.56493
-0.956735
-0.402722
0.101689
0.560279
0.975374
1.34889
1.68213
1.97591
2.22989
2.44405
2.61587
2.77388
2.89169
2.96961
3.00898
3.01063
2.97521
2.90344
2.79611
2.65424
2.47909
2.2722
2.0354
1.77086
1.48108
1.16889
0.837549
0.490576
0.131913
-0.234411
-0.603684
-0.971337
-1.33244
-1.68186
-2.01442
-2.32505
-2.60864
-2.86015
-3.07491
-3.24862
-3.37726
-3.45746
-3.4863
-3.46184
-3.38316
-3.2497
-3.06203
-2.82191
-2.53212
-2.19655
-1.82011
-1.40891
-0.970146
-0.511804
-0.0425385
0.427515
0.888529
1.32994
1.74121
2.11192
2.43202
2.69226
2.88429
3.00107
3.03717
2.99981
2.87759
2.672
2.38716
2.02962
1.60835
1.13475
0.622407
0.0865062
-0.455826
-0.985628
-1.48497
-1.93529
-2.31896
-2.62011
-2.82503
-2.92333
-2.90835
-2.77817
-2.5345
-2.18472
-1.74129
-1.22145
-0.646523
-0.0408472
0.566973
1.14603
1.66849
2.10586
2.43292
2.62808
2.67454
2.58793
2.34787
1.96764
1.46804
0.877021
0.228583
-0.445546
-1.08387
-1.65319
-2.11319
-2.42921
-2.57557
-2.53808
-2.31618
-1.9234
-1.38809
-0.751369
-0.0603184
0.623054
1.23766
1.72966
2.05022
2.16465
2.0578
1.73432
1.22222
0.570459
-0.160423
-0.902067
-1.54861
-2.03989
-2.31289
-2.32532
-2.09104
-1.61314
-0.95519
-0.208221
0.711484
1.35831
1.82358
2.02474
1.92321
1.52918
0.89885
0.127166
-0.684444
-1.36199
-1.80528
-1.93515
-1.72294
-1.2054
-0.480903
0.324813
1.0668
1.54209
1.67409
1.42062
0.829218
0.0255471
-0.825171
-1.59789
-1.9562
-1.88149
-1.37131
-0.528344
0.441486
1.2922
1.79308
4.83802
4.63803
4.22848
3.60084
2.6965
1.50612
-0.0477676
-2.05754
-4.93983
-6.96123
-8.75856
-10.2993
-11.6229
-12.7494
-13.6978
-14.4783
-15.0954
-15.552
-15.8478
-15.9826
-16.0198
-15.9396
-15.6396
-14.9704
-13.9077
-12.5054
-10.8809
-8.28022
-6.75196
-5.31788
-4.12836
-3.10658
-2.1999
-1.39011
-0.664212
-0.0123019
0.575054
1.10441
1.58128
2.00978
2.393
2.73279
3.03048
3.28692
3.50297
3.67922
3.81724
3.91238
3.96719
3.98093
3.95313
3.88377
3.77319
3.62205
3.43135
3.2024
2.93691
2.63698
2.30511
1.94419
1.55755
1.14903
0.72279
0.283485
-0.164214
-0.614551
-1.06215
-1.50117
-1.92552
-2.329
-2.70557
-3.04917
-3.3538
-3.61394
-3.82443
-3.98057
-4.0783
-4.11447
-4.08631
-3.99289
-3.8337
-3.60954
-3.32254
-2.97607
-2.57482
-2.12475
-1.6332
-1.10884
-0.561272
-0.000731075
0.560401
1.11046
1.63675
2.12674
2.568
2.94857
3.25749
3.48498
3.62302
3.6655
3.61418
3.46245
3.21177
2.86685
2.43534
1.9281
1.3587
0.743354
0.100462
-0.549504
-1.18409
-1.78159
-2.31998
-2.77814
-3.13702
-3.38046
-3.496
-3.47584
-3.31732
-3.0231
-2.60208
-2.06928
-1.44539
-0.75608
-0.0308745
0.696342
1.38879
2.01289
2.5347
2.92431
3.15674
3.21482
3.10325
2.81173
2.3539
1.75404
1.04552
0.26907
-0.536447
-1.29897
-1.9781
-2.52567
-2.90039
-3.0716
-3.02239
-2.75212
-2.27758
-1.63289
-0.867634
-0.0377827
0.781244
1.51724
2.10567
2.48809
2.62333
2.49294
2.10307
1.48758
0.705574
-0.170365
-1.05753
-1.83151
-2.41926
-2.74603
-2.7646
-2.47676
-1.90166
-1.11332
-0.222348
0.879584
1.6485
2.20261
2.44054
2.31534
1.83888
1.0806
0.154827
-0.825609
-1.63512
-2.16307
-2.31466
-2.05513
-1.42876
-0.554682
0.414747
1.30389
1.87544
2.03433
1.72956
1.01756
0.0507821
-0.970713
-1.88576
-2.31825
-2.23136
-1.6163
-0.615976
0.542697
1.55996
2.15896
10.7046
10.4658
9.97428
9.18633
8.06214
6.54531
4.4907
1.80094
-2.39264
-5.77388
-8.60473
-11.0605
-13.1669
-14.9441
-16.4114
-17.5813
-18.4625
-19.0529
-19.3468
-19.3336
-18.9259
-18.1304
-17.0517
-15.8201
-14.4399
-12.7606
-10.8179
-7.87179
-5.95711
-4.2876
-2.91331
-1.95195
-0.989449
-0.178418
0.536433
1.16848
1.73677
2.24973
2.71401
3.13291
3.50859
3.8421
4.13359
4.38317
4.59002
4.7537
4.87324
4.95457
4.98936
4.97753
4.91908
4.81404
4.6627
4.46565
4.22387
3.93874
3.61214
3.24641
2.84437
2.40934
1.94514
1.4562
0.94734
0.423948
-0.10831
-0.643128
-1.17402
-1.69418
-2.19648
-2.6737
-3.11879
-3.52463
-3.88425
-4.19123
-4.43954
-4.62368
-4.73901
-4.7818
-4.74901
-4.63932
-4.45235
-4.18912
-3.85215
-3.44545
-2.97458
-2.44656
-1.87006
-1.25526
-0.613461
0.0431634
0.700296
1.34411
1.95975
2.53252
3.0479
3.49192
3.85182
4.11628
4.27605
4.32409
4.25856
4.07581
3.77745
3.36907
2.85949
2.26149
1.59115
0.867516
0.111911
-0.651165
-1.39573
-2.09625
-2.72695
-3.26308
-3.68224
-3.9657
-4.09894
-4.07272
-3.88399
-3.53619
-3.03985
-2.41273
-1.67917
-0.869585
-0.0184638
0.834232
1.64579
2.37662
2.98712
3.44236
3.71377
3.78235
3.64517
3.29885
2.7587
2.05285
1.2205
0.309487
-0.634551
-1.52732
-2.32152
-2.96085
-3.3968
-3.59351
-3.53147
-3.20991
-2.64889
-1.88876
-0.988005
-0.0121787
0.949432
1.81291
2.50251
2.94961
3.10625
2.95063
2.49053
1.76587
0.846405
-0.181672
-1.22194
-2.1299
-2.81914
-3.20229
-3.22502
-2.88183
-2.20282
-1.27333
-0.213978
1.03549
1.94952
2.60028
2.8775
2.72704
2.16352
1.27054
0.183485
-0.977712
-1.92469
-2.54114
-2.71521
-2.40524
-1.66356
-0.631095
0.510488
1.55465
2.22769
2.41497
2.05574
1.21644
0.0775437
-1.12392
-2.18845
-2.69928
-2.60038
-1.88336
-0.70929
0.648529
1.84108
2.54333
17.5911
17.471
17.2377
16.9073
16.547
16.1744
15.9233
15.5807
-1.78262
-1.27831
-0.912771
-0.378486
0.179003
0.769493
1.34787
1.93553
2.4707
2.97795
3.4495
3.88535
4.28404
4.64504
4.96729
5.24945
5.49015
5.68797
5.84174
5.95073
6.0088
6.01926
5.98009
5.89012
5.7488
5.55608
5.31238
5.01864
4.67629
4.28738
3.8545
3.38083
2.87011
2.32666
1.75554
1.16223
0.552901
-0.0659109
-0.687085
-1.30313
-1.90623
-2.48819
-3.04071
-3.5557
-4.02498
-4.44054
-4.79504
-5.08158
-5.29385
-5.42659
-5.4755
-5.43712
-5.30999
-5.09376
-4.78965
-4.40059
-3.93126
-3.38811
-2.77929
-2.11484
-1.40646
-0.667217
0.0886563
0.844911
1.58543
2.29316
2.95122
3.54289
4.05216
4.46437
4.76655
4.948
5.00081
4.92108
4.70633
4.35868
3.88456
3.29434
2.60265
1.82809
0.992649
0.120885
-0.758767
-1.6166
-2.42316
-3.14873
-3.76488
-4.24586
-4.57011
-4.72104
-4.68811
-4.46788
-4.06447
-3.49015
-2.76546
-1.91874
-0.985276
-0.00375814
0.978133
1.91229
2.75295
3.45464
3.97719
4.28821
4.36594
4.20303
3.79996
3.17455
2.35894
1.39883
0.348894
-0.737802
-1.76452
-2.67716
-3.41075
-3.90943
-4.13198
-4.05614
-3.68127
-3.03064
-2.15102
-1.11021
0.0156219
1.12436
2.11921
2.91283
3.42632
3.60449
3.42253
2.88965
2.05207
0.990657
-0.194423
-1.3923
-2.43826
-3.23206
-3.67309
-3.6987
-3.29879
-2.51174
-1.4348
-0.202609
1.19531
2.25835
3.00995
3.32796
3.15107
2.49723
1.46506
0.213089
-1.13828
-2.22517
-2.93232
-3.12946
-2.76704
-1.90561
-0.708794
0.610337
1.81436
2.59227
2.80894
2.39325
1.42227
0.104847
-1.28202
-2.50027
-3.09231
-2.98152
-2.1588
-0.806114
0.757131
2.13046
2.93922
24.9598
24.9301
24.878
24.7984
24.661
24.3197
24.109
23.8489
0.352537
0.719949
1.02418
1.41854
1.85462
2.3202
2.78595
3.27222
3.74003
4.1931
4.62482
5.03222
5.41106
5.75793
6.06957
6.34312
6.57568
6.76446
6.9068
7.00028
7.04353
7.03361
6.96909
6.84882
6.67206
6.43858
6.14867
5.80325
5.40383
4.95264
4.45256
3.90709
3.32043
2.69743
2.04376
1.36561
0.669915
-0.0359427
-0.743957
-1.44564
-2.13213
-2.79418
-3.42238
-4.00756
-4.54048
-5.01208
-5.41407
-5.73866
-5.97876
-6.12845
-6.1832
-6.13826
-5.99288
-5.74647
-5.4004
-4.95808
-4.42484
-3.80808
-3.117
-2.36313
-1.55971
-0.721656
0.135348
0.991952
1.83042
2.6314
3.37578
4.04461
4.61979
5.08476
5.4248
5.6278
5.68488
5.59076
5.34346
4.94573
4.40477
3.73266
2.94587
2.06559
1.11685
0.127459
-0.870261
-1.84274
-2.75658
-3.578
-4.27491
-4.8182
-5.18341
-5.35186
-5.3117
-5.05915
-4.59907
-3.94542
-3.12166
-2.16018
-1.10086
0.0125894
1.12534
2.18356
3.13531
3.9291
4.51947
4.87004
4.95592
4.76724
4.30653
3.59434
2.66718
1.57742
0.386668
-0.844065
-2.00638
-3.03887
-3.86768
-4.4296
-4.67796
-4.58766
-4.15835
-3.41649
-2.41538
-1.23229
0.0449688
1.30292
2.43078
3.32957
3.91003
4.10967
3.90063
3.29369
2.34139
1.13579
-0.208334
-1.56557
-2.75122
-3.65092
-4.15032
-4.17813
-3.72075
-2.82368
-1.59656
-0.191701
1.35962
2.57104
3.42508
3.78451
3.58047
2.83439
1.66074
0.246152
-1.30725
-2.53093
-3.32976
-3.55034
-3.1344
-2.15095
-0.786614
0.712785
2.07844
2.96285
3.20946
2.73634
1.63151
0.132166
-1.44256
-2.81572
-3.49063
-3.36816
-2.43799
-0.904847
0.866815
2.42331
3.34012
31.2392
31.1956
31.0995
30.9442
30.7681
30.7486
30.7319
30.6298
2.22491
2.43747
2.64039
2.9265
3.26701
3.65408
4.04804
4.47628
4.89961
5.31893
5.72583
6.11527
6.4816
6.81993
7.12552
7.3941
7.6216
7.80423
7.93843
8.021
8.04914
8.02014
7.93195
7.783
7.57225
7.29931
6.96436
6.56834
6.11286
5.60035
5.03396
4.41759
3.75586
3.05416
2.31877
1.55659
0.775349
-0.0167824
-0.810876
-1.59745
-2.36662
-3.10806
-3.81125
-4.46593
-5.0618
-5.58877
-6.03757
-6.39956
-6.66682
-6.83267
-6.89133
-6.84071
-6.67683
-6.39987
-6.01152
-5.51566
-4.9183
-4.22772
-3.45426
-2.61086
-1.71244
-0.7756
0.182373
1.13917
2.07533
2.96929
3.79968
4.54536
5.18611
5.7035
6.08101
6.30525
6.36615
6.25752
5.97763
5.52977
4.92198
4.16789
3.28611
2.30026
1.23846
0.131808
-0.983657
-2.07041
-3.09111
-4.00796
-4.78515
-5.39031
-5.79608
-5.98171
-5.93399
-5.64881
-5.13183
-4.39877
-3.476
-2.39981
-1.21462
0.0300807
1.27337
2.45525
3.51766
4.40305
5.06075
5.45028
5.5437
5.32924
4.81084
4.01175
2.97303
1.75359
0.422398
-0.951433
-2.24899
-3.40092
-4.3245
-4.94922
-5.22302
-5.11793
-4.63392
-3.80067
-2.67799
-1.35257
0.0753584
1.48223
2.74267
3.74618
4.39322
4.61401
4.37758
3.69645
2.62946
1.27958
-0.223144
-1.73892
-3.06387
-4.06923
-4.62668
-4.65626
-4.14147
-3.13417
-1.75671
-0.181037
1.5253
2.8832
3.83951
4.24028
4.00879
3.16992
1.85417
0.282147
-1.48175
-2.83649
-3.72712
-3.97125
-3.5016
-2.39589
-0.863276
0.816139
2.34253
3.33354
3.61021
3.07964
1.84095
0.159338
-1.60362
-3.12975
-3.88805
-3.75434
-2.71668
-1.00379
0.975878
2.7152
3.73988
36.9623
36.9458
36.9175
36.8898
36.8946
36.8692
36.7878
36.7243
3.64125
3.78376
3.94923
4.1771
4.46429
4.80434
5.1604
5.54835
5.94393
6.34328
6.73686
7.11802
7.47983
7.81609
8.12096
8.38907
8.6154
8.79526
8.92426
8.99843
9.0142
8.96844
8.85866
8.68298
8.44012
8.1295
7.75125
7.30631
6.79644
6.2243
5.59333
4.90782
4.17283
3.39425
2.57901
1.73471
0.869759
-0.00678161
-0.885109
-1.75479
-2.6049
-3.42404
-4.20062
-4.92327
-5.58067
-6.16165
-6.65606
-7.05438
-7.34797
-7.5296
-7.59322
-7.53497
-7.35215
-7.04464
-6.61433
-6.06546
-5.40468
-4.64117
-3.78635
-2.8546
-1.86249
-0.828301
0.229167
1.28457
2.31684
3.30223
4.21718
5.03837
5.74351
6.31225
6.72644
6.97134
7.03579
6.91268
6.60053
6.10311
5.42942
4.59444
3.61906
2.52921
1.35609
0.134202
-1.09712
-2.29625
-3.42199
-4.43257
-5.28852
-5.95431
-6.39972
-6.60196
-6.54654
-6.22897
-5.65572
-4.84424
-3.82378
-2.63444
-1.32527
0.0482847
1.42002
2.72351
3.89468
4.86999
5.59365
6.02116
6.12161
5.88157
5.30619
4.42132
3.27257
1.92512
0.455861
-1.05826
-2.48889
-3.75827
-4.7749
-5.46118
-5.75977
-5.63984
-5.10168
-4.17817
-2.93549
-1.46986
0.106538
1.6597
3.05049
4.15691
4.86923
5.1106
4.84693
4.09254
2.91237
1.42023
-0.238669
-1.9098
-3.37191
-4.48128
-5.09575
-5.12684
-4.55541
-3.43928
-1.91337
-0.170003
1.68913
3.19069
4.24777
4.6892
4.43036
3.49937
2.04224
0.320603
-1.65898
-3.13686
-4.11883
-4.38638
-3.86363
-2.63714
-0.93786
0.919018
2.60279
3.69917
4.00561
3.41838
2.04775
0.18598
-1.76328
-3.43792
-4.27916
-4.13478
-2.99129
-1.10142
1.08292
3.00225
4.13313
42.0764
42.066
42.0452
42.0122
41.9653
41.873
41.912
41.8951
4.73538
4.84725
4.99775
5.19355
5.45817
5.77524
6.11473
6.48591
6.87027
7.26291
7.65387
8.03559
8.40018
8.74044
9.04964
9.32156
9.5504
9.73073
9.85743
9.92583
9.93172
9.87142
9.74219
9.54188
9.26897
8.92274
8.50325
8.0115
7.4494
6.81987
6.12669
5.37448
4.56877
3.71595
2.82355
1.89982
0.95394
-0.00425129
-0.964096
-1.91421
-2.8427
-3.73708
-4.58467
-5.37309
-6.08994
-6.72307
-7.26141
-7.69465
-8.01347
-8.21012
-8.2783
-8.21216
-8.01045
-7.67293
-7.20154
-6.60085
-5.87817
-5.04348
-4.10934
-3.09145
-2.00806
-0.8792
0.275221
1.42642
2.55211
3.62634
4.62343
5.51795
6.28554
6.90405
7.35378
7.61856
7.68635
7.5489
7.20519
6.65937
5.92149
5.00776
3.94116
2.75013
1.4687
0.134889
-1.20902
-2.51737
-3.74514
-4.84671
-5.77903
-6.50353
-6.98727
-7.20542
-7.14228
-6.793
-6.16477
-5.2768
-4.16116
-2.86153
-1.43176
0.0668523
1.56339
2.98507
4.26188
5.32443
6.11198
6.57614
6.68319
6.41801
5.78704
4.81853
3.5626
2.09028
0.486894
-1.16309
-2.72311
-4.10662
-5.21355
-5.95951
-6.28199
-6.14737
-5.55628
-4.54476
-3.18517
-1.58287
0.137962
1.83304
3.35054
4.55687
5.3325
5.59367
5.30326
4.47748
3.18693
1.55613
-0.254704
-2.076
-3.6717
-4.88229
-5.55211
-5.58457
-4.95789
-3.73571
-2.0649
-0.15815
1.8484
3.48996
4.64518
5.12612
4.84039
3.81909
2.2223
0.34718
-1.82278
-3.42776
-4.50026
-4.79084
-4.21624
-2.87194
-1.00971
1.02033
2.85591
4.05537
4.39095
3.74855
2.24946
0.211727
-1.9198
-3.73649
-4.65945
-4.50502
-3.25864
-1.19674
1.18683
3.28121
4.51546
46.6293
46.6221
46.6074
46.5845
46.5596
46.5326
46.54
46.5101
5.61264
5.70607
5.85286
6.04186
6.29348
6.59989
6.93455
7.30227
7.68687
8.08279
8.47963
8.8691
9.24249
9.59175
9.90945
10.1887
10.4232
10.6068
10.7338
10.7988
10.7972
10.7243
10.5777
10.3548
10.054
9.67441
9.21598
8.6798
8.06796
7.38371
6.63113
5.81524
4.94193
4.01809
3.05185
2.0521
1.02873
-0.00765938
-1.0456
-2.07282
-3.07645
-4.04295
-4.95862
-5.81004
-6.58379
-7.26676
-7.84702
-8.3135
-8.6562
-8.86696
-8.93982
-8.86516
-8.64499
-8.27838
-7.76726
-7.11649
-6.33406
-5.43071
-4.42004
-3.3191
-2.14772
-0.927813
0.32012
1.56331
2.77883
3.93848
5.01454
5.97952
6.80701
7.47327
7.95709
8.24081
8.3118
8.16024
7.78599
7.19347
6.39372
5.40418
4.24962
2.96119
1.57563
0.133974
-1.31808
-2.73142
-4.05724
-5.24624
-6.25185
-7.03263
-7.55303
-7.78629
-7.71553
-7.33549
-6.65423
-5.69244
-4.48501
-3.07918
-1.53329
0.0855019
1.70195
3.2373
4.61563
5.76196
6.61073
7.10993
7.2232
6.93354
6.24892
5.19973
3.84057
2.24769
0.515314
-1.26464
-2.94925
-4.44254
-5.63617
-6.4394
-6.7847
-6.63568
-5.99343
-4.89707
-3.42478
-1.69065
0.169166
2.00038
3.63981
4.94213
5.7785
6.05853
5.74223
4.84758
3.45065
1.68602
-0.2711
-2.23574
-3.96034
-5.2684
-5.9914
-6.02513
-5.34515
-4.02083
-2.21014
-0.145013
2.001
3.77812
5.02795
5.54684
5.23499
4.1262
2.39287
0.358355
-1.96799
-3.70631
-4.86771
-5.18065
-4.55597
-3.09804
-1.07856
1.11939
3.09923
4.39862
4.76239
4.06682
2.44403
0.236438
-2.07181
-4.0225
-5.02528
-4.86151
-3.51612
-1.2888
1.28656
3.5495
4.88328
50.6752
50.6702
50.6592
50.6416
50.623
50.5973
50.5778
50.5652
6.31521
6.4085
6.55249
6.74357
6.99358
7.30014
7.63862
8.01196
8.40475
8.81121
9.22027
9.62303
10.0098
10.3718
10.7011
10.9904
11.233
11.4221
11.5515
11.6153
11.6083
11.5244
11.3622