/*--------------------------------*- C++ -*----------------------------------*\
  =========                 |
  \\      /  F ield         | OpenFOAM: The Open Source CFD Toolbox
   \\    /   O peration     | Website:  https://openfoam.org
    \\  /    A nd           | Version:  12
     \\/     M anipulation  |
\*---------------------------------------------------------------------------*/
FoamFile
{
    format      ascii;
    class       surfaceScalarField;
    location    "20";
    object      phi;
}
// * * * * * * * * * * * * * * * * * * * * * * * * * * * * * * * * * * * * * //

dimensions      [1 0 -1 0 0 0 0];

internalField   nonuniform List<scalar> 
7429
(
0.000186145
-0.000186146
0.000381181
-0.000195037
0.000578416
-0.000197235
0.00077727
-0.000198854
0.000977591
-0.000200322
0.00117909
-0.000201496
0.00138147
-0.000202381
0.00158446
-0.000202995
0.00178778
-0.000203317
0.0019912
-0.000203419
0.00219444
-0.000203248
0.00239736
-0.00020292
0.0025998
-0.000202442
0.00280164
-0.000201841
0.00300282
-0.000201173
0.00320329
-0.000200479
0.00340304
-0.000199749
0.00360208
-0.000199038
0.00380042
-0.000198342
0.00399808
-0.000197663
0.00419505
-0.000196968
0.00439126
-0.000196208
0.00458663
-0.00019537
0.00478094
-0.000194316
0.00497395
-0.000193003
0.00516527
-0.000191319
0.00535438
-0.000189111
0.00554066
-0.000186288
0.00572339
-0.000182729
0.00590177
-0.000178383
0.00607481
-0.000173039
0.00624158
-0.000166771
0.00640095
-0.000159366
0.00655183
-0.000150882
0.00669297
-0.000141143
0.00682313
-0.000130161
0.00694121
-0.000118078
0.00704692
-0.000105707
0.00713909
-9.21751e-05
0.00721651
-7.74103e-05
0.00727798
-6.14774e-05
0.00732158
-4.36018e-05
0.00734601
-2.44298e-05
0.00734903
-3.01157e-06
0.0073276
2.14301e-05
0.00728113
4.64612e-05
0.00720855
7.25888e-05
0.00710884
9.97095e-05
0.00698122
0.000127615
0.00682514
0.000156083
0.00664026
0.000184879
0.00642657
0.000213695
0.00618432
0.000242243
0.0059141
0.000270223
0.00561668
0.00029742
0.00529284
0.00032384
0.00494436
0.000348484
0.00457231
0.000372051
0.00417899
0.000393314
0.00376605
0.000412946
0.00333659
0.000429457
0.00289319
0.000443398
0.00243955
0.000453646
0.0019793
0.000460244
0.00151637
0.000462934
0.00105519
0.000461175
0.000600102
0.000455092
0.000156143
0.000443959
-0.000271806
0.000427949
-0.000678635
0.000406829
-0.00105965
0.000381011
-0.00140957
0.000349921
-0.00172368
0.000314111
-0.00199757
0.000273894
-0.00222705
0.000229478
-0.00240838
0.000181329
-0.00253862
0.000130239
-0.00261539
7.67745e-05
-0.00263754
2.21507e-05
-0.00259663
-4.09113e-05
-0.00249578
-0.000100856
-0.00233785
-0.000157922
-0.00212574
-0.000212115
-0.00186292
-0.000262821
-0.00155323
-0.000309691
-0.00120195
-0.000351273
-0.000815196
-0.000386757
-0.000400144
-0.000415052
3.49037e-05
-0.000435048
0.000481018
-0.000446114
0.000928358
-0.00044734
0.0013668
-0.000438438
0.00178555
-0.000418751
0.00217439
-0.000388844
0.00252265
-0.000348257
0.00282067
-0.000298026
0.00305941
-0.000238734
0.0032309
-0.00017149
0.00332896
-9.80581e-05
0.00334925
-2.02949e-05
0.00327852
7.07274e-05
0.00312242
0.000156104
0.00288496
0.000237461
0.00257085
0.000314104
0.0021867
0.000384156
0.00174094
0.000445755
0.001245
0.000495942
0.000712204
0.000532799
0.000158069
0.000554134
-0.000400484
0.000558553
-0.000945305
0.000544821
-0.00145787
0.00051257
-0.00192032
0.000462442
-0.0023155
0.00039518
-0.00262801
0.000312516
-0.00284539
0.000217374
-0.00295818
0.000112798
-0.0029569
-1.28314e-06
-0.00283348
-0.000123423
-0.00259867
-0.000234805
-0.0022618
-0.000336874
-0.00183565
-0.000426146
-0.00133668
-0.00049897
-0.000786175
-0.000550509
-0.000208887
-0.000577287
0.00036775
-0.000576638
0.000915554
-0.000547804
0.00140636
-0.00049081
0.00181375
-0.000407381
0.00211513
-0.000301384
0.00229267
-0.000177544
0.00233428
-4.16082e-05
0.00222208
0.000112207
0.00196952
0.000252557
0.00159122
0.000378293
0.001107
0.00048422
0.000543744
0.000563261
-6.39968e-05
0.000607741
-0.000677755
0.000613759
-0.00125584
0.000578083
-0.0017583
0.000502461
-0.0021481
0.000389805
-0.00239504
0.000246939
-0.00247918
8.41411e-05
-0.00237546
-0.000103722
-0.0020955
-0.000279966
-0.00166044
-0.000435055
-0.0010997
-0.00056074
-0.000452808
-0.000646894
0.00022952
-0.000682327
0.000890325
-0.000660806
0.00147341
-0.000583086
0.00192633
-0.000452914
0.00220709
-0.000280763
0.0022873
-8.02103e-05
0.00214051
0.000146786
0.00178613
0.000354382
0.00125729
0.000528839
0.000599435
0.000657855
-0.000126178
0.000725613
-0.000845537
0.000719359
-0.00148538
0.000639844
-0.00197873
0.000493352
-0.0022728
0.000294071
-0.00233844
6.56394e-05
-0.00214959
-0.000188857
-0.00174491
-0.000404677
-0.00117243
-0.000572477
-0.000499937
-0.000672496
0.000190069
-0.000690006
0.00080811
-0.000618041
0.001278
-0.000469888
0.00154356
-0.000265558
0.00157813
-3.4577e-05
0.00137051
0.000207626
0.000976272
0.000394235
0.000459775
0.000516498
-9.5171e-05
0.000554946
-0.00059366
0.000498489
-0.000957916
0.000364256
-0.00113368
0.000175767
-0.00108867
-4.50171e-05
-0.000842522
-0.000246143
-0.00045133
-0.000391193
1.33612e-05
-0.000464691
0.000458499
-0.000445138
0.000803622
-0.000345123
0.000989532
-0.00018591
0.000981743
7.78902e-06
0.00078295
0.000198793
0.000444748
0.000338202
2.71852e-05
0.000417562
-0.00039404
0.000421225
-0.000743933
0.000349894
-0.000970993
0.00022706
-0.00104477
7.37809e-05
-0.000953343
-9.14312e-05
-0.000725503
-0.00022784
-0.000392248
-0.000333255
-0.000392248
0.000277126
-0.000463272
0.000574765
-0.000492677
0.000875895
-0.000498366
0.00117985
-0.000502814
0.00148611
-0.000506583
0.00179433
-0.000509707
0.00210378
-0.000511833
0.00241385
-0.000513075
0.00272365
-0.000513114
0.00303234
-0.000512109
0.00333888
-0.000509793
0.00364263
-0.000506672
0.00394321
-0.000503015
0.0042403
-0.000498933
0.00453286
-0.000493734
0.00481979
-0.000487412
0.00510021
-0.00048017
0.00537356
-0.000472389
0.00563945
-0.000464235
0.00589767
-0.00045588
0.00614802
-0.000447321
0.00639042
-0.00043861
0.00662467
-0.000429615
0.00685061
-0.000420261
0.00706781
-0.000410204
0.00727592
-0.000399423
0.00747409
-0.000387289
0.00766178
-0.000373978
0.00783785
-0.0003588
0.00800188
-0.00034241
0.00815393
-0.000325091
0.00829421
-0.000307048
0.00842271
-0.000287872
0.00853915
-0.000267314
0.00864316
-0.00024516
0.00873416
-0.000221155
0.00881107
-0.000194994
0.00887225
-0.000166889
0.00891659
-0.000136515
0.00894328
-0.000104094
0.00895143
-6.9627e-05
0.00894136
-3.35402e-05
0.00890416
1.27782e-05
0.00883712
6.40244e-05
0.00874313
0.000115417
0.00862155
0.000168045
0.00847213
0.000222014
0.00829472
0.000277119
0.00808906
0.000333271
0.00785526
0.000389888
0.00759323
0.000446906
0.00730327
0.000503653
0.00698589
0.000559624
0.00664143
0.000614678
0.00627096
0.000667891
0.00587539
0.000719413
0.00545627
0.000767606
0.00501518
0.000813139
0.00455404
0.000854455
0.00407501
0.000891975
0.0035808
0.000923668
0.00307463
0.000949566
0.00255997
0.000968313
0.00204084
0.000979374
0.00152155
0.000982219
0.00100654
0.000976187
0.00050068
0.000960951
9.02906e-06
0.00093561
-0.000462965
0.000899943
-0.000909955
0.000853819
-0.00132699
0.00079805
-0.0017084
0.000731324
-0.00204937
0.000655084
-0.0023449
0.000569431
-0.00259125
0.000475827
-0.00278339
0.000373466
-0.00291917
0.000266017
-0.00299552
0.000153123
-0.00301144
3.80709e-05
-0.00295836
-9.39871e-05
-0.0028423
-0.000216914
-0.00266438
-0.00033585
-0.00242765
-0.00044884
-0.00213509
-0.000555382
-0.0017912
-0.00065358
-0.00140148
-0.000740995
-0.000973259
-0.000814978
-0.000514438
-0.000873872
-3.41883e-05
-0.000915298
0.000457671
-0.000937973
0.000950302
-0.000939972
0.00143249
-0.000920627
0.00189271
-0.000878972
0.00231939
-0.000815524
0.0027014
-0.000730262
0.00302805
-0.000624681
0.00328894
-0.000499623
0.00347591
-0.000358456
0.00358183
-0.000203976
0.00360249
-4.09541e-05
0.00352594
0.000147269
0.00335793
0.000324116
0.00310127
0.000494125
0.00276063
0.000654746
0.00234316
0.000801617
0.00185857
0.000930349
0.00131962
0.00103489
0.000740926
0.00111149
0.000139513
0.00115555
-0.000465731
0.0011638
-0.00105546
0.00113455
-0.00160926
0.00106637
-0.00210839
0.000961569
-0.0025328
0.000819594
-0.00286727
0.000646978
-0.00309597
0.00044608
-0.00321014
0.000226967
-0.00319735
-1.40787e-05
-0.0030578
-0.000262969
-0.002797
-0.000495607
-0.00242524
-0.000708625
-0.00195509
-0.000896297
-0.00140665
-0.00104741
-0.000801629
-0.00115553
-0.000169057
-0.00120986
0.000462481
-0.00120818
0.00106078
-0.0011461
0.00159566
-0.00102569
0.00203812
-0.00084985
0.00236338
-0.000626639
0.00255155
-0.000365712
0.00259174
-8.17976e-05
0.00246495
0.000238996
0.00218635
0.000531157
0.0017696
0.000795042
0.00123694
0.00101688
0.000619494
0.00118071
-4.81018e-05
0.00127534
-0.000720638
0.00128629
-0.00135366
0.0012111
-0.00190316
0.00105196
-0.00232847
0.000815121
-0.00259719
0.000515657
-0.00268609
0.000173041
-0.00257312
-0.000216692
-0.00227058
-0.000582505
-0.00179818
-0.000907459
-0.00118699
-0.00117193
-0.000482387
-0.0013515
0.000260487
-0.0014252
0.000979254
-0.00137957
0.00161211
-0.00121594
0.00210297
-0.000943772
0.00240486
-0.000582655
0.00248762
-0.000162977
0.00232792
0.000306489
0.00194545
0.000736858
0.00137201
0.00110227
0.000659517
0.00137035
-0.000124878
0.00151001
-0.000900706
0.00149519
-0.00158816
0.00132729
-0.00211382
0.00101901
-0.00242279
0.000603043
-0.00247977
0.000122621
-0.00226789
-0.000400737
-0.00182361
-0.00084896
-0.00119886
-0.00119723
-0.000469294
-0.00140206
0.000274381
-0.00143368
0.000935288
-0.00127895
0.00143083
-0.000965434
0.00170037
-0.00053509
0.00171517
-4.93791e-05
0.00147395
0.00044884
0.00103139
0.000836797
0.000459733
0.00108816
-0.000147896
0.00116257
-0.000687976
0.00103857
-0.00107611
0.000752393
-0.00125492
0.000354574
-0.00119316
-0.000106776
-0.00091717
-0.000522134
-0.000484338
-0.000824024
2.38555e-05
-0.000972884
0.000505246
-0.000926528
0.000874015
-0.000713893
0.001068
-0.000379896
0.00105118
2.46123e-05
0.000836275
0.000413696
0.000473822
0.000700656
3.05963e-05
0.000860788
-0.000408416
0.000860237
-0.000767914
0.000709392
-0.000996578
0.000455724
-0.00106551
0.000142708
-0.000968083
-0.000188854
-0.000733199
-0.000462724
-0.000394721
-0.000671733
-0.000786968
0.000162386
-0.000625659
0.000333348
-0.000663641
0.000502669
-0.000667689
0.000668605
-0.000668751
0.000828487
-0.000666467
0.00098124
-0.000662461
0.00112399
-0.000654582
0.00125732
-0.000646403
0.0013791
-0.000634896
0.00148988
-0.00062289
0.001588
-0.000607914
0.00167461
-0.000593291
0.00174985
-0.000578257
0.00181522
-0.000564305
0.00187396
-0.000552472
0.00193001
-0.00054346
0.00198621
-0.000536373
0.00204601
-0.000532193
0.00211147
-0.000529694
0.00218534
-0.000529753
0.00226961
-0.000531592
0.00236664
-0.00053564
0.00247773
-0.000540701
0.00260443
-0.000546961
0.00274698
-0.000552761
0.00290612
-0.000558562
0.00308085
-0.000562021
0.00327116
-0.000564289
0.00347471
-0.000562343
0.00368975
-0.000557459
0.00391238
-0.000547714
0.00413941
-0.00053408
0.00436717
-0.000515634
0.00459245
-0.000492595
0.00481318
-0.000465884
0.00502915
-0.000437127
0.00523979
-0.000405634
0.00544344
-0.000370539
0.00563679
-0.000329865
0.00581723
-0.000284541
0.00598015
-0.000232544
0.00612195
-0.000175339
0.0062472
-0.000112467
0.00635341
-4.21911e-05
0.00643187
3.69572e-05
0.00648045
0.000119465
0.00649663
0.00020583
0.0064783
0.00029545
0.00642382
0.000387757
0.00633176
0.000481943
0.00620145
0.000577214
0.00603211
0.000672996
0.00582371
0.000768028
0.00557591
0.000862477
0.00528948
0.000954314
0.00496521
0.00104369
0.0046043
0.00112851
0.00420861
0.00120883
0.00378051
0.00128256
0.00332367
0.00134881
0.00284136
0.00140597
0.00233808
0.00145285
0.00181793
0.00148846
0.0012864
0.00151091
0.000748449
0.00152017
0.000210364
0.00151427
-0.000321814
0.00149313
-0.000841737
0.00145553
-0.00134268
0.00140088
-0.00181797
0.00132911
-0.00226094
0.00124102
-0.00266532
0.0011357
-0.00302416
0.00101393
-0.00333223
0.000877504
-0.00358337
0.000726963
-0.0037739
0.000563995
-0.00389853
0.000390647
-0.00395497
0.000209564
-0.00393665
1.97512e-05
-0.00384159
-0.000189051
-0.00367417
-0.000384329
-0.00343591
-0.000574112
-0.0031287
-0.000756051
-0.00275644
-0.000927643
-0.00232456
-0.00108546
-0.00183966
-0.0012259
-0.00131022
-0.00134442
-0.000746144
-0.00143795
-0.000157498
-0.00150394
0.000442979
-0.00153845
0.00104318
-0.00154017
0.00162922
-0.00150666
0.00218742
-0.00143718
0.00270406
-0.00133216
0.00316574
-0.00119194
0.0035587
-0.00101765
0.00387244
-0.000813363
0.00409621
-0.000582228
0.00422202
-0.000329786
0.00424544
-6.43742e-05
0.00415422
0.000238488
0.00395469
0.000523644
0.00364915
0.000799665
0.00324287
0.00106103
0.00274389
0.0013006
0.00216499
0.00150925
0.00152086
0.00167902
0.000830053
0.0018023
0.000113389
0.00187221
-0.000606626
0.00188381
-0.00130731
0.00183524
-0.00196354
0.0017226
-0.00255128
0.00154931
-0.00304941
0.00131772
-0.0034376
0.00103518
-0.00370078
0.000709252
-0.00382434
0.000350528
-0.00379479
-4.36292e-05
-0.00361733
-0.000440428
-0.00329597
-0.000816961
-0.0028411
-0.0011635
-0.00227001
-0.00146738
-0.00160478
-0.00171264
-0.000874309
-0.001886
-0.000110718
-0.00197345
0.00064722
-0.00196611
0.00136438
-0.00186326
0.00200308
-0.00166439
0.00252937
-0.00137614
0.00291198
-0.00100924
0.00312929
-0.000583022
0.0031649
-0.000117405
0.00300701
0.000396882
0.00266707
0.000871097
0.00216244
0.00129967
0.00151654
0.00166278
0.000768712
0.00192853
-3.54043e-05
0.00207945
-0.000844934
0.00209582
-0.00160578
0.00197194
-0.00226466
0.00171084
-0.00277301
0.00132348
-0.00309247
0.000835114
-0.00319362
0.000274186
-0.00305709
-0.000353219
-0.00269514
-0.000944458
-0.00212966
-0.00147293
-0.00139813
-0.00190346
-0.000557444
-0.00219218
0.000330237
-0.00231288
0.00118679
-0.00223612
0.00193927
-0.00196842
0.00252046
-0.00152496
0.00287539
-0.000937584
0.00296932
-0.00025691
0.00277583
0.000499981
0.0023196
0.00119309
0.00163658
0.00178529
0.000789966
0.00221697
-0.000139407
0.00243938
-0.00105454
0.00241032
-0.001861
0.00213375
-0.00247344
0.00163145
-0.00282284
0.000952444
-0.00287016
0.000169948
-0.00260668
-0.000664221
-0.00206813
-0.00138751
-0.0013183
-0.00194706
-0.000450033
-0.00227033
0.000428512
-0.00231223
0.00119968
-0.00205012
0.00176651
-0.00153226
0.00206079
-0.000829373
0.00204037
-2.89573e-05
0.00172963
0.000759584
0.00118072
0.0013857
0.000484454
0.00178442
-0.000245294
0.00189232
-0.000885118
0.00167839
-0.00133505
0.00120232
-0.00152748
0.000547007
-0.00143362
-0.000200636
-0.00108938
-0.000866375
-0.000562439
-0.00135096
4.76144e-05
-0.00158294
0.000617333
-0.00149625
0.00104494
-0.0011415
0.00126087
-0.000595825
0.00122811
5.73734e-05
0.000970499
0.000671306
0.000544106
0.00112705
3.22815e-05
0.00137261
-0.00046351
0.00135603
-0.000859837
0.00110572
-0.00110196
0.000697845
-0.00116537
0.000206116
-0.00105067
-0.000303546
-0.00079031
-0.000723088
-0.000424137
-0.00103791
-0.00121111
0.000325909
-0.000951569
0.000680444
-0.00101818
0.00104558
-0.00103282
0.00142311
-0.00104629
0.00181287
-0.00105623
0.00221861
-0.0010682
0.00263526
-0.00107123
0.00306399
-0.00107513
0.00349435
-0.00106526
0.00391988
-0.00104842
0.00432247
-0.0010105
0.00469637
-0.000967193
0.00503715
-0.00091904
0.00534618
-0.00087334
0.00562303
-0.000829317
0.00587038
-0.000790817
0.00609144
-0.000757431
0.00629101
-0.000731767
0.00647313
-0.000711814
0.00664573
-0.000702352
0.00681393
-0.000699788
0.00698251
-0.000704223
0.00715326
-0.000711453
0.00733061
-0.000724314
0.00751274
-0.000734887
0.00770286
-0.00074868
0.0078936
-0.000752768
0.00808666
-0.000757348
0.00826847
-0.000744158
0.00844096
-0.000729947
0.00860308
-0.000709837
0.0087599
-0.0006909
0.00891083
-0.000666563
0.00905682
-0.000638579
0.00919557
-0.000604643
0.00932357
-0.00056512
0.00943751
-0.000519574
0.0095347
-0.000467735
0.00961423
-0.000409395
0.0096743
-0.000344606
0.00971474
-0.000272991
0.00973509
-0.000195688
0.00973211
-0.000109484
0.00969746
-7.54477e-06
0.00962066
0.000113765
0.00950761
0.000232508
0.00935918
0.000354262
0.00917554
0.00047909
0.00895612
0.000607173
0.00870029
0.000737777
0.00840708
0.000870424
0.00807566
0.00100442
0.00770598
0.00113771
0.007298
0.00127045
0.00685145
0.00140086
0.00636825
0.0015269
0.00584905
0.00164771
0.00529576
0.00176213
0.00471124
0.00186707
0.00409795
0.0019621
0.00346099
0.00204294
0.00280415
0.00210968
0.00213329
0.00215931
0.00145381
0.0021904
0.000772073
0.0022019
9.48286e-05
0.00219152
-0.000570865
0.00215882
-0.00121782
0.00210248
-0.00183774
0.00202081
-0.00242293
0.00191429
-0.00296606
0.00178416
-0.00345975
0.0016294
-0.0038954
0.00144958
-0.00426694
0.00124904
-0.00456734
0.00102736
-0.00479069
0.000787344
-0.00493331
0.000533277
-0.0049913
0.000267547
-0.00495132
-2.02245e-05
-0.00482835
-0.000312026
-0.00461607
-0.000596603
-0.00431692
-0.000873267
-0.00393258
-0.00114039
-0.00346881
-0.00139141
-0.00293226
-0.00162201
-0.00233137
-0.00182678
-0.001677
-0.00199879
-0.000980252
-0.00213469
-0.000255552
-0.00222864
0.000483521
-0.00227752
0.0012201
-0.00227676
0.0019389
-0.00222546
0.0026218
-0.00212008
0.00325374
-0.0019641
0.00381656
-0.00175477
0.00429538
-0.00149646
0.0046765
-0.00119448
0.00494669
-0.000852417
0.00509632
-0.000479418
0.00512021
-8.82608e-05
0.00500686
0.000351844
0.00476142
0.000769074
0.00438672
0.00117437
0.00388919
0.00155856
0.00328
0.00190978
0.00257394
0.00221531
0.00178959
0.00246338
0.000948986
0.0026429
7.83804e-05
0.00274282
-0.00079525
0.00275744
-0.00164211
0.0026821
-0.00243392
0.0025144
-0.00314349
0.00225888
-0.00374142
0.00191565
-0.00420278
0.00149654
-0.00450747
0.00101394
-0.00464502
0.000488076
-0.00459608
-9.25715e-05
-0.00436743
-0.000669082
-0.00396511
-0.00121927
-0.00339899
-0.00172963
-0.00269139
-0.00217498
-0.00187095
-0.00253309
-0.000974684
-0.00278226
-3.91316e-05
-0.002909
0.000888031
-0.00289328
0.00176324
-0.00273847
0.00253975
-0.0024409
0.00317686
-0.00201325
0.00363796
-0.00147034
0.00389185
-0.000836916
0.00392262
-0.00014817
0.00372261
0.00059689
0.00329953
0.00129418
0.00267405
0.00192514
0.00187846
0.00245837
0.000958688
0.00284831
-2.90157e-05
0.00306716
-0.00102067
0.00308748
-0.00195122
0.0029025
-0.00275431
0.00251392
-0.00337348
0.00194265
-0.00375973
0.00122137
-0.00387535
0.00038981
-0.00370786
-0.000520716
-0.00326488
-0.00138743
-0.00257268
-0.00216513
-0.00168036
-0.00279578
-0.00065152
-0.00322102
0.000427355
-0.00339176
0.00146725
-0.00327602
0.00238008
-0.00288125
0.00307995
-0.00222484
0.0035046
-0.00136223
0.00360805
-0.000360363
0.00336972
0.000738314
0.00281229
0.00175052
0.00198238
0.00261519
0.000954647
0.0032447
-0.000168694
0.00356272
-0.00127129
0.00351292
-0.0022366
0.00309906
-0.00296205
0.00235691
-0.00336663
0.00135702
-0.00340612
0.000209436
-0.00306812
-0.00100222
-0.00240025
-0.00205538
-0.00148268
-0.00286463
-0.000428203
-0.0033248
0.000627652
-0.00336808
0.00154633
-0.00296879
0.00221051
-0.00219645
0.00253377
-0.00115263
0.00247484
2.99769e-05
0.0020686
0.00116583
0.0013766
0.0020777
0.000514156
0.00264687
-0.0003779
0.00278438
-0.00114801
0.00244851
-0.0016763
0.0017306
-0.00188702
0.000757734
-0.00175087
-0.000336786
-0.00131242
-0.00130482
-0.000658223
-0.00200516
8.53204e-05
-0.00232648
0.000769872
-0.0021808
0.0012747
-0.00164633
0.00151663
-0.000837756
0.00146185
0.000112155
0.00114348
0.000989678
0.000630796
0.00163973
2.44875e-05
0.00197892
-0.000542051
0.00192257
-0.000985044
0.00154871
-0.00124839
0.000961187
-0.00130245
0.000260183
-0.00116355
-0.000442454
-0.000866681
-0.00101995
-0.000461957
-0.00144263
-0.00167306
0.000448889
-0.00140046
0.000934644
-0.00150393
0.00142651
-0.0015247
0.00192397
-0.00154374
0.00241611
-0.00154837
0.00290235
-0.00155444
0.00333708
-0.00150597
0.00368085
-0.0014189
0.0038214
-0.00120581
0.00379678
-0.0010238
0.00363277
-0.000846491
0.00338714
-0.000721569
0.00308561
-0.000617509
0.00275246
-0.000540189
0.00240671
-0.000483571
0.00206585
-0.000449956
0.00174534
-0.000436923
0.00145705
-0.000443475
0.00121206
-0.000466824
0.00101878
-0.000509078
0.000879561
-0.000560565
0.000806246
-0.000630909
0.000798474
-0.000703681
0.000863792
-0.000789632
0.000994392
-0.000865488
0.00120131
-0.000955597
0.00146528
-0.00101674
0.00179454
-0.0010866
0.00215002
-0.00109965
0.00253248
-0.0011124
0.00292697
-0.00110433
0.00332819
-0.00109212
0.00373122
-0.0010696
0.00413302
-0.00104038
0.00453166
-0.00100329
0.00492434
-0.000957799
0.00530808
-0.000903314
0.00568033
-0.000839981
0.00603707
-0.000766138
0.00637326
-0.000680797
0.0066834
-0.000583126
0.00696185
-0.000474147
0.00719864
-0.000346274
0.00740663
-0.00021553
0.00758511
-6.47164e-05
0.00771417
0.000103453
0.00779418
0.00027425
0.00782222
0.00045105
0.00779548
0.000633915
0.00771229
0.000820965
0.00757042
0.00101229
0.00736999
0.00120485
0.00710852
0.00139919
0.00678747
0.0015915
0.00640772
0.00178061
0.00596979
0.00196482
0.00547728
0.00214022
0.00493295
0.00230647
0.00434186
0.00245816
0.00370828
0.00259568
0.00303712
0.0027141
0.00233523
0.00281157
0.00160889
0.00288565
0.000865899
0.00293339
0.00011422
0.00295358
-0.000637031
0.00294277
-0.0013795
0.00290129
-0.00210313
0.00282611
-0.00279934
0.00271702
-0.00345746
0.00257241
-0.00406812
0.00239481
-0.00461984
0.00218112
-0.00510659
0.00193633
-0.00551668
0.00165913
-0.00584423
0.00135491
-0.0060826
0.00102572
-0.00622458
0.000675259
-0.00626399
0.000306951
-0.00619318
-9.10338e-05
-0.00601965
-0.000485557
-0.00574138
-0.000874873
-0.0053589
-0.00125575
-0.00487682
-0.00162246
-0.00430023
-0.00196801
-0.00363741
-0.00228483
-0.0028996
-0.00256459
-0.00209811
-0.00280028
-0.00124947
-0.00298333
-0.000366498
-0.00311162
0.000530059
-0.00317408
0.00142406
-0.00317075
0.00229295
-0.00309436
0.00311943
-0.00294655
0.00388184
-0.00272651
0.00455884
-0.00243177
0.00513428
-0.0020719
0.00559033
-0.00165053
0.00591215
-0.00117424
0.00608799
-0.000655263
0.00611004
-0.000110306
0.00597119
0.000490695
0.00567329
0.00106697
0.00522018
0.00162749
0.00461799
0.00216074
0.00388113
0.00264665
0.00302928
0.00306716
0.00208548
0.00340718
0.00107682
0.00365156
3.19252e-05
0.00378771
-0.00101562
0.00380499
-0.00203066
0.00369714
-0.00297737
0.00346111
-0.0038202
0.00310172
-0.00452605
0.0026215
-0.00507068
0.00204117
-0.00542727
0.00137053
-0.00557206
0.000632867
-0.00550265
-0.00016198
-0.00521599
-0.000955743
-0.0047182
-0.00171706
-0.00402601
-0.00242181
-0.00316517
-0.00303582
-0.00217001
-0.00352825
-0.00108112
-0.00387115
4.68063e-05
-0.00403693
0.00116431
-0.00401078
0.0022165
-0.00379067
0.00314689
-0.00337128
0.00390737
-0.00277373
0.00445537
-0.00201835
0.0047526
-0.00113414
0.00477595
-0.000171525
0.00452531
0.000847535
0.00400666
0.00181282
0.00324305
0.00268876
0.00227653
0.00342489
0.0011629
0.00396193
-3.13277e-05
0.00426139
-0.00122894
0.00428509
-0.00234959
0.00402315
-0.00331449
0.00347882
-0.00405687
0.00268503
-0.0045151
0.0016796
-0.00464872
0.000523434
-0.00444242
-0.000727026
-0.00390544
-0.00192441
-0.00306847
-0.0030021
-0.00199113
-0.00387312
-0.0007558
-0.00445635
0.000540009
-0.00468757
0.00178676
-0.00452277
0.00287604
-0.00397052
0.00371262
-0.00306142
0.00421109
-0.0018607
0.0043243
-0.00047357
0.00403422
0.0010284
0.00336045
0.00242428
0.00236196
0.00361369
0.0011318
0.00447486
-0.000211902
0.00490642
-0.00152388
0.0048249
-0.00266851
0.00424369
-0.00351935
0.00320774
-0.00398554
0.00182322
-0.00400591
0.000229803
-0.00358739
-0.00142074
-0.00277265
-0.00287012
-0.00166402
-0.00397327
-0.000399111
-0.00458971
0.000860199
-0.00462739
0.00194202
-0.00405061
0.00270796
-0.00296239
0.00306516
-0.00150983
0.00296328
0.000131851
0.00244288
0.00168623
0.00158869
0.00293189
0.000539524
0.00369603
-0.000534047
0.00385795
-0.00144987
0.00336433
-0.00206644
0.00234717
-0.00229031
0.000981602
-0.00210198
-0.000525114
-0.00155518
-0.00185163
-0.000758172
-0.00280217
0.000136561
-0.00322121
0.000947342
-0.00299158
0.00153407
-0.00223306
0.00180384
-0.00110753
0.00171952
0.000196481
0.00132954
0.00137966
0.00071945
0.00224982
1.52493e-05
0.00268312
-0.000635593
0.00257341
-0.00113152
0.00204464
-0.00140756
0.00123722
-0.0014493
0.000301923
-0.00128028
-0.000611472
-0.000944679
-0.00135556
-0.000499944
-0.00188737
-0.00217301
0.000124723
-0.00152518
0.000285207
-0.00166442
0.000540307
-0.0017798
0.000951181
-0.00195462
0.00157814
-0.00217532
0.00248363
-0.00245994
0.00353064
-0.00255298
0.00460526
-0.00249352
0.00542741
-0.00202795
0.00618823
-0.00178462
0.00680182
-0.00146008
0.00722108
-0.00114084
0.00744295
-0.000839372
0.00750421
-0.000601452
0.007446
-0.000425365
0.007306
-0.00030996
0.00711338
-0.0002443
0.00689229
-0.000222383
0.00665843
-0.000232962
0.00642992
-0.000280577
0.00622067
-0.000351311
0.00604161
-0.000451852
0.00591204
-0.000574111
0.00587616
-0.000753752
0.00593992
-0.000929246
0.00614619
-0.00116187
0.00642435
-0.0012949
0.00685071
-0.00151296
0.00721125
-0.00146018
0.00757734
-0.0014785
0.00789858
-0.00142556
0.00820506
-0.00139861
0.00849166
-0.00135619
0.00876317
-0.00131189
0.00901941
-0.00125953
0.00926027
-0.00119866
0.00948517
-0.00112821
0.0096913
-0.00104611
0.00987682
-0.000951661
0.0100393
-0.000843287
0.0101794
-0.000723212
0.0102916
-0.000586335
0.0103805
-0.000435224
0.010435
-0.000269981
0.010462
-9.17762e-05
0.0104202
0.000145337
0.0103315
0.000362923
0.0101964
0.000586164
0.0100119
0.000818369
0.00977517
0.00105772
0.00948386
0.0013036
0.00913594
0.00155277
0.00873023
0.00180489
0.0082659
0.00205584
0.00774253
0.00230398
0.00716149
0.00254587
0.00652541
0.0027763
0.00583672
0.00299515
0.00509963
0.00319526
0.0043183
0.003377
0.00349965
0.00353275
0.00264945
0.00366177
0.00177588
0.00375922
0.000887332
0.00382195
-7.47828e-06
0.00384839
-0.000899463
0.00383475
-0.00177745
0.00377928
-0.00263192
0.00368058
-0.00344932
0.00353443
-0.00421991
0.00334299
-0.00493295
0.00310786
-0.0055786
0.00282677
-0.00614189
0.00249961
-0.00661892
0.00213616
-0.00699496
0.00173095
-0.00726153
0.00129228
-0.00741436
0.000828089
-0.00745045
0.000343043
-0.00736071
-0.000180776
-0.00714903
-0.000697238
-0.00681297
-0.00121093
-0.00635429
-0.00171443
-0.00577882
-0.00219793
-0.00509249
-0.00265434
-0.00430702
-0.0030703
-0.00343235
-0.00343927
-0.00248602
-0.00374661
-0.00148181
-0.00398753
-0.000442757
-0.00415067
0.000614191
-0.00423103
0.00166453
-0.00422109
0.00268612
-0.00411594
0.00365555
-0.00391598
0.00454662
-0.00361759
0.0053392
-0.00322435
0.00601092
-0.00274361
0.00654146
-0.00218108
0.00691368
-0.00154646
0.00711426
-0.000855834
0.00713309
-0.000129145
0.00696526
0.000658534
0.00661051
0.00142172
0.00607247
0.00216553
0.0053623
0.00287091
0.00449603
0.00351292
0.00349472
0.00406848
0.00238451
0.00451739
0.00119792
0.00483815
-2.8234e-05
0.00501386
-0.00125295
0.0050297
-0.00243818
0.00488238
-0.00353925
0.00456218
-0.00451831
0.00408078
-0.00534149
0.00344468
-0.00596331
0.00266299
-0.00636727
0.00177449
-0.00653065
0.000796244
-0.00643399
-0.000258644
-0.00608591
-0.00130382
-0.00548986
-0.00231311
-0.004665
-0.00324668
-0.00364319
-0.00405764
-0.00246745
-0.00470398
-0.00118823
-0.00515038
0.000142747
-0.0053679
0.00145621
-0.00532424
0.00268929
-0.00502374
0.00377873
-0.00446072
0.00466248
-0.00365748
0.00529208
-0.00264795
0.0056324
-0.00147446
0.0056531
-0.000192231
0.00534759
0.00115305
0.00472743
0.00243298
0.00382113
0.00359506
0.0026776
0.00456843
0.00136443
0.0052751
-4.35396e-05
0.00566936
-0.00145192
0.00569347
-0.002766
0.00533723
-0.00389824
0.00461106
-0.00476426
0.00355105
-0.00529316
0.0022085
-0.0054451
0.000675379
-0.00519764
-0.000974492
-0.00456017
-0.00256188
-0.00357318
-0.00398909
-0.00230766
-0.00513864
-0.00086048
-0.00590353
0.000660246
-0.00620829
0.00212002
-0.00598255
0.00339113
-0.00524163
0.00436211
-0.0040324
0.00493955
-0.00243814
0.00505712
-0.000591139
0.0047104
0.00137511
0.00391457
0.00322012
0.00274083
0.00478743
0.00129977
0.00591593
-0.000265651
0.00647184
-0.00179106
0.00635031
-0.00311777
0.0055704
-0.00410017
0.00419015
-0.00462065
0.00234369
-0.00462468
0.000233834
-0.00411376
-0.00193167
-0.00314526
-0.00383862
-0.00183802
-0.0052805
-0.000358041
-0.00606969
0.00110398
-0.00608941
0.00235283
-0.00529947
0.00322657
-0.00383613
0.00360725
-0.00189051
0.00345886
0.000280245
0.0028185
0.00232659
0.00179149
0.00395889
0.000549425
0.0049381
-0.000708287
0.00511566
-0.00176947
0.00442551
-0.00246747
0.00304517
-0.00270317
0.0012173
-0.00245757
-0.000770713
-0.00179378
-0.00251542
-0.000846479
-0.00374947
0.00020041
-0.0042681
0.00114065
-0.00393182
0.00180477
-0.00289717
0.00209106
-0.00139382
0.00197566
0.000311879
0.00150706
0.00184826
0.000797228
0.00295965
-6.54715e-06
0.0034869
-0.000736188
0.00330305
-0.00127478
0.00258324
-0.001565
0.00152744
-0.00158866
0.000325579
-0.00138634
-0.000813787
-0.00101236
-0.00172953
-0.000532676
-0.00236705
-0.00270568
0.000301311
-0.00182649
0.000721445
-0.00208455
0.00150613
-0.00256448
0.00295038
-0.00339887
0.00535902
-0.00458396
0.00880002
-0.00590093
0.0126756
-0.0064286
0.0158889
-0.00570683
0.0163038
-0.00244278
0.0147717
-0.00025258
0.0124924
0.000819275
0.0101113
0.00124025
0.00788975
0.00138216
0.00589346
0.00139484
0.0041098
0.00135829
0.00251535
0.0012845
0.00109471
0.00117633
-0.00016115
0.00103348
-0.00125449
0.000860378
-0.00220129
0.000666226
-0.00301472
0.000462113
-0.00364826
0.000181691
-0.00392715
-0.000295226
-0.00387325
-0.000807646
-0.00356852
-0.00123398
-0.00291199
-0.00181841
-0.00193486
-0.00227204
-0.000504835
-0.00294298
0.000731125
-0.00269614
0.00177526
-0.00252263
0.00264744
-0.00229774
0.00339189
-0.00214305
0.00404892
-0.00201322
0.00464681
-0.00190978
0.00520807
-0.00182079
0.00574277
-0.00173336
0.00625991
-0.00164536
0.00675744
-0.00154364
0.00724053
-0.00143475
0.00769963
-0.00130238
0.00812467
-0.00114826
0.00850778
-0.00096945
0.00884417
-0.000771612
0.00912539
-0.000551193
0.00934287
-0.000309262
0.00953337
-4.51662e-05
0.00965778
0.000238512
0.00970904
0.000534907
0.00968426
0.000843154
0.00958187
0.0011601
0.00940005
0.00148542
0.0091362
0.00181662
0.008792
0.00214909
0.00836714
0.00248069
0.00786516
0.00280596
0.00728769
0.00312334
0.0066379