/*--------------------------------*- C++ -*----------------------------------*\
  =========                 |
  \\      /  F ield         | OpenFOAM: The Open Source CFD Toolbox
   \\    /   O peration     | Website:  https://openfoam.org
    \\  /    A nd           | Version:  12
     \\/     M anipulation  |
\*---------------------------------------------------------------------------*/
FoamFile
{
    format      ascii;
    class       volVectorField;
    location    "20";
    object      U;
}
// * * * * * * * * * * * * * * * * * * * * * * * * * * * * * * * * * * * * * //

dimensions      [0 1 -1 0 0 0 0];

internalField   nonuniform List<vector> 
3829
(
(8.09394e-06 -0.000718582 0)
(2.19366e-05 -0.000772358 0)
(3.88157e-05 -0.000772864 0)
(5.38816e-05 -0.000770967 0)
(7.02853e-05 -0.000768428 0)
(8.61185e-05 -0.000765143 0)
(0.000102336 -0.000761138 0)
(0.000118499 -0.000756381 0)
(0.00013475 -0.000750859 0)
(0.000150984 -0.000744557 0)
(0.000167233 -0.000737467 0)
(0.00018346 -0.000729585 0)
(0.000199626 -0.000720898 0)
(0.000215771 -0.000711421 0)
(0.000231851 -0.00070116 0)
(0.000247884 -0.000690112 0)
(0.000263858 -0.000678308 0)
(0.00027977 -0.000665763 0)
(0.000295663 -0.000652497 0)
(0.00031148 -0.000638555 0)
(0.000327187 -0.00062396 0)
(0.000342883 -0.00060874 0)
(0.000358519 -0.000592941 0)
(0.000374071 -0.000576596 0)
(0.000389613 -0.000559743 0)
(0.000404912 -0.000542446 0)
(0.000420008 -0.000524692 0)
(0.000434924 -0.000506568 0)
(0.000449663 -0.000488092 0)
(0.000464227 -0.000469359 0)
(0.000478185 -0.000450389 0)
(0.000491775 -0.000431219 0)
(0.000504853 -0.000411897 0)
(0.000517204 -0.000392448 0)
(0.000528867 -0.000372887 0)
(0.000539669 -0.000353215 0)
(0.000549596 -0.000333464 0)
(0.000558502 -0.000313648 0)
(0.00056641 -0.00029383 0)
(0.000573217 -0.000274015 0)
(0.000578727 -0.000254295 0)
(0.000582922 -0.000234691 0)
(0.000585656 -0.000215228 0)
(0.00058674 -0.000196009 0)
(0.000586 -0.000177131 0)
(0.000583291 -0.000158644 0)
(0.000578518 -0.000140617 0)
(0.000571614 -0.000123087 0)
(0.000562535 -0.00010613 0)
(0.000551163 -8.97431e-05 0)
(0.000537527 -7.40304e-05 0)
(0.00052162 -5.89714e-05 0)
(0.000503432 -4.46733e-05 0)
(0.000483004 -3.1117e-05 0)
(0.000460021 -1.83749e-05 0)
(0.000435318 -6.40647e-06 0)
(0.000408645 4.60321e-06 0)
(0.00037951 1.47518e-05 0)
(0.000349025 2.38883e-05 0)
(0.000316945 3.21084e-05 0)
(0.000283057 3.92456e-05 0)
(0.000248162 4.54255e-05 0)
(0.000212439 5.04792e-05 0)
(0.000175742 5.44602e-05 0)
(0.000138907 5.7399e-05 0)
(0.000101865 5.9178e-05 0)
(6.53197e-05 5.99695e-05 0)
(2.9573e-05 5.96035e-05 0)
(-5.45989e-06 5.82408e-05 0)
(-3.8906e-05 5.58705e-05 0)
(-7.03169e-05 5.2528e-05 0)
(-9.94508e-05 4.82822e-05 0)
(-0.000125879 4.31277e-05 0)
(-0.000149358 3.72934e-05 0)
(-0.00016943 3.0686e-05 0)
(-0.000185643 2.36026e-05 0)
(-0.000198043 1.59835e-05 0)
(-0.000206399 8.08704e-06 0)
(-0.000210428 -2.97862e-08 0)
(-0.000209528 -8.08437e-06 0)
(-0.000203788 -1.61914e-05 0)
(-0.000193254 -2.39139e-05 0)
(-0.000178416 -3.13906e-05 0)
(-0.000159419 -3.82298e-05 0)
(-0.000136614 -4.44772e-05 0)
(-0.000110199 -4.97945e-05 0)
(-8.05754e-05 -5.41975e-05 0)
(-4.861e-05 -5.75009e-05 0)
(-1.45801e-05 -5.96236e-05 0)
(2.0742e-05 -6.04892e-05 0)
(5.64773e-05 -6.0039e-05 0)
(9.18162e-05 -5.82518e-05 0)
(0.000126061 -5.51177e-05 0)
(0.000158312 -5.06796e-05 0)
(0.00018773 -4.50174e-05 0)
(0.000213518 -3.82065e-05 0)
(0.000234962 -3.04021e-05 0)
(0.000251293 -2.17804e-05 0)
(0.000262039 -1.25139e-05 0)
(0.000266733 -2.86466e-06 0)
(0.000264636 6.94131e-06 0)
(0.000255528 1.66438e-05 0)
(0.000239789 2.59809e-05 0)
(0.000217667 3.47032e-05 0)
(0.000189735 4.25034e-05 0)
(0.000156585 4.91283e-05 0)
(0.00011892 5.43675e-05 0)
(7.77604e-05 5.79635e-05 0)
(3.43318e-05 5.98349e-05 0)
(-1.02168e-05 5.98065e-05 0)
(-5.4428e-05 5.78827e-05 0)
(-9.65924e-05 5.40544e-05 0)
(-0.000135606 4.83698e-05 0)
(-0.000169758 4.11128e-05 0)
(-0.000198117 3.22915e-05 0)
(-0.000219175 2.24565e-05 0)
(-0.000232188 1.1701e-05 0)
(-0.000236614 6.91677e-07 0)
(-0.000231541 -1.03561e-05 0)
(-0.000217082 -2.08016e-05 0)
(-0.000194018 -3.04502e-05 0)
(-0.0001635 -3.87166e-05 0)
(-0.000126422 -4.52519e-05 0)
(-8.44228e-05 -4.96546e-05 0)
(-3.92658e-05 -5.17412e-05 0)
(7.07608e-06 -5.13436e-05 0)
(5.23738e-05 -4.84037e-05 0)
(9.39351e-05 -4.30967e-05 0)
(0.000129749 -3.55609e-05 0)
(0.000158063 -2.61818e-05 0)
(0.00017709 -1.54429e-05 0)
(0.000185736 -3.86659e-06 0)
(0.000182852 7.85901e-06 0)
(0.000168009 1.90616e-05 0)
(0.0001426 2.92191e-05 0)
(0.000107948 3.75695e-05 0)
(6.59755e-05 4.36429e-05 0)
(1.85528e-05 4.67858e-05 0)
(-3.09912e-05 4.69995e-05 0)
(-7.86569e-05 4.39208e-05 0)
(-0.000121914 3.79644e-05 0)
(-0.000157529 2.92702e-05 0)
(-0.000182824 1.85726e-05 0)
(-0.000195897 6.36523e-06 0)
(-0.00019491 -6.21356e-06 0)
(-0.000179249 -1.84655e-05 0)
(-0.000150436 -2.93851e-05 0)
(-0.000110412 -3.80394e-05 0)
(-6.20019e-05 -4.37874e-05 0)
(-7.80006e-06 -4.59653e-05 0)
(4.70321e-05 -4.42357e-05 0)
(9.67444e-05 -3.87757e-05 0)
(0.000138133 -2.99698e-05 0)
(0.000167314 -1.85411e-05 0)
(0.000181489 -5.43709e-06 0)
(0.00017843 8.14057e-06 0)
(0.000157922 2.09495e-05 0)
(0.000122292 3.18568e-05 0)
(7.45721e-05 3.96465e-05 0)
(1.79294e-05 4.35884e-05 0)
(-4.13088e-05 4.2996e-05 0)
(-9.57942e-05 3.80598e-05 0)
(-0.000141024 2.92158e-05 0)
(-0.000172291 1.7475e-05 0)
(-0.000186199 4.07596e-06 0)
(-0.000180659 -9.45303e-06 0)
(-0.00015625 -2.15718e-05 0)
(-0.000116542 -3.09152e-05 0)
(-6.61772e-05 -3.63383e-05 0)
(-1.03265e-05 -3.71534e-05 0)
(4.29705e-05 -3.32023e-05 0)
(8.63078e-05 -2.51808e-05 0)
(0.000115397 -1.43876e-05 0)
(0.000126812 -2.15984e-06 0)
(0.000119137 9.43624e-06 0)
(9.42957e-05 1.91063e-05 0)
(5.71985e-05 2.52809e-05 0)
(1.26887e-05 2.72184e-05 0)
(-3.06677e-05 2.44026e-05 0)
(-6.49044e-05 1.78414e-05 0)
(-8.60313e-05 8.74496e-06 0)
(-9.0643e-05 -1.3626e-06 0)
(-7.82421e-05 -1.05553e-05 0)
(-5.22154e-05 -1.75355e-05 0)
(-1.65846e-05 -2.09368e-05 0)
(2.16431e-05 -2.00917e-05 0)
(5.34123e-05 -1.55529e-05 0)
(7.39929e-05 -8.46352e-06 0)
(8.03805e-05 -7.45894e-08 0)
(7.13325e-05 7.84589e-06 0)
(4.9481e-05 1.41524e-05 0)
(1.88001e-05 1.76006e-05 0)
(-1.63535e-05 1.77434e-05 0)
(-4.76205e-05 1.47233e-05 0)
(-6.96283e-05 9.58355e-06 0)
(-8.08542e-05 3.20997e-06 0)
(-7.94523e-05 -3.31433e-06 0)
(-6.64627e-05 -9.04029e-06 0)
(-4.40107e-05 -1.32636e-05 0)
(-1.53795e-05 -1.54273e-05 0)
(1.1776e-05 0.000362357 0)
(3.84272e-05 0.00040051 0)
(6.54265e-05 0.000401559 0)
(9.27346e-05 0.00040155 0)
(0.000120262 0.000401384 0)
(0.00014799 0.000401116 0)
(0.000175873 0.000400702 0)
(0.000203822 0.000400033 0)
(0.000231832 0.000399098 0)
(0.000259744 0.000397757 0)
(0.000287516 0.000395989 0)
(0.000315146 0.000393643 0)
(0.000342458 0.000390698 0)
(0.000369346 0.00038703 0)
(0.000395922 0.000382598 0)
(0.000422024 0.000377316 0)
(0.000447506 0.00037119 0)
(0.000472468 0.000364196 0)
(0.000496747 0.000356354 0)
(0.000520279 0.000347707 0)
(0.000543174 0.000338312 0)
(0.000565373 0.000328256 0)
(0.000586816 0.0003176 0)
(0.000607546 0.000306499 0)
(0.000627442 0.000295063 0)
(0.000646618 0.000283404 0)
(0.000664983 0.000271738 0)
(0.000682352 0.000260155 0)
(0.000698681 0.00024882 0)
(0.000713987 0.000237849 0)
(0.000728198 0.000227474 0)
(0.000741379 0.000217655 0)
(0.000753468 0.000208635 0)
(0.000764431 0.00020034 0)
(0.000774437 0.00019291 0)
(0.000783252 0.000186251 0)
(0.000790817 0.000180514 0)
(0.000796892 0.000175655 0)
(0.00080168 0.000171838 0)
(0.000804944 0.000169109 0)
(0.000806393 0.000167521 0)
(0.000806383 0.000167099 0)
(0.000804291 0.00016779 0)
(0.000799547 0.000169661 0)
(0.00079229 0.000172714 0)
(0.000782555 0.000176907 0)
(0.000770327 0.00018216 0)
(0.000755512 0.00018839 0)
(0.000738301 0.00019548 0)
(0.000718447 0.000203276 0)
(0.000696051 0.000211682 0)
(0.000671138 0.000220474 0)
(0.000643678 0.000229508 0)
(0.000613916 0.000238525 0)
(0.000581615 0.000247435 0)
(0.000547111 0.000256079 0)
(0.000510405 0.000263976 0)
(0.000471212 0.000271229 0)
(0.000430601 0.000277307 0)
(0.000388297 0.000282346 0)
(0.000344205 0.000285798 0)
(0.000299141 0.000287794 0)
(0.000252947 0.000287858 0)
(0.000206383 0.000286071 0)
(0.000159514 0.000282189 0)
(0.000112884 0.000276178 0)
(6.69901e-05 0.000267942 0)
(2.20823e-05 0.00025735 0)
(-2.12772e-05 0.000244463 0)
(-6.27748e-05 0.000229296 0)
(-0.00010161 0.000211978 0)
(-0.000137748 0.000192439 0)
(-0.000170124 0.000171059 0)
(-0.000198854 0.000147775 0)
(-0.000223263 0.000123051 0)
(-0.000242783 9.69562e-05 0)
(-0.000257648 6.99726e-05 0)
(-0.000267199 4.22587e-05 0)
(-0.000271132 1.44093e-05 0)
(-0.000269494 -1.32253e-05 0)
(-0.000261851 -4.02348e-05 0)
(-0.000248361 -6.63027e-05 0)
(-0.000229734 -9.08086e-05 0)
(-0.000205797 -0.00011347 0)
(-0.000177134 -0.000133805 0)
(-0.000143872 -0.000151296 0)
(-0.000106981 -0.000165651 0)
(-6.70073e-05 -0.000176534 0)
(-2.46221e-05 -0.000183536 0)
(1.9311e-05 -0.000186609 0)
(6.37216e-05 -0.000185422 0)
(0.000107639 -0.000180061 0)
(0.000150158 -0.000170411 0)
(0.000190103 -0.000156711 0)
(0.000226554 -0.000139087 0)
(0.000258498 -0.000117924 0)
(0.000284944 -9.36497e-05 0)
(0.000305106 -6.67967e-05 0)
(0.00031829 -3.79861e-05 0)
(0.000323926 -7.93825e-06 0)
(0.000321333 2.25957e-05 0)
(0.000310228 5.28136e-05 0)
(0.00029108 8.18541e-05 0)
(0.000264054 0.000108945 0)
(0.000229768 0.000133122 0)
(0.000189133 0.000153718 0)
(0.000142882 0.000169788 0)
(9.24148e-05 0.000180926 0)
(3.92121e-05 0.000186551 0)
(-1.53367e-05 0.000186295 0)
(-6.93336e-05 0.000180003 0)
(-0.000120955 0.000167817 0)
(-0.000168371 0.000150006 0)
(-0.000209995 0.000127015 0)
(-0.000244278 9.96721e-05 0)
(-0.000269529 6.86998e-05 0)
(-0.000284807 3.53588e-05 0)
(-0.000289331 8.18885e-07 0)
(-0.00028233 -3.35036e-05 0)
(-0.000264022 -6.61976e-05 0)
(-0.000235394 -9.60947e-05 0)
(-0.000197306 -0.000121693 0)
(-0.000151134 -0.000141779 0)
(-9.89366e-05 -0.000155347 0)
(-4.30404e-05 -0.000161609 0)
(1.42903e-05 -0.000160091 0)
(7.00745e-05 -0.000150727 0)
(0.000121214 -0.000133855 0)
(0.000165282 -0.000110162 0)
(0.000199853 -8.0806e-05 0)
(0.000222923 -4.71734e-05 0)
(0.000233054 -1.10982e-05 0)
(0.000228882 2.54828e-05 0)
(0.000210401 6.0464e-05 0)
(0.000178914 9.19706e-05 0)
(0.000135928 0.000117796 0)
(8.3658e-05 0.00013635 0)
(2.49248e-05 0.000146282 0)
(-3.6344e-05 0.000146499 0)
(-9.53796e-05 0.000136923 0)
(-0.000148726 0.000118024 0)
(-0.000192618 9.09109e-05 0)
(-0.000223797 5.7229e-05 0)
(-0.000239737 1.93624e-05 0)
(-0.000238331 -2.00698e-05 0)
(-0.00021931 -5.80676e-05 0)
(-0.000183901 -9.1994e-05 0)
(-0.000134767 -0.000118824 0)
(-7.52755e-05 -0.000136466 0)
(-8.58803e-06 -0.000142996 0)
(5.87094e-05 -0.000137475 0)
(0.000119697 -0.000120373 0)
(0.000170338 -9.28382e-05 0)
(0.000205926 -5.72895e-05 0)
(0.000223013 -1.64558e-05 0)
(0.000219034 2.56543e-05 0)
(0.000194005 6.55962e-05 0)
(0.000150422 9.91951e-05 0)
(9.20316e-05 0.000123277 0)
(2.28776e-05 0.000135187 0)
(-4.93138e-05 0.000133103 0)
(-0.000115557 0.000117461 0)
(-0.000170224 8.98845e-05 0)
(-0.000207556 5.32326e-05 0)
(-0.00022355 1.1543e-05 0)
(-0.000215834 -3.02991e-05 0)
(-0.000185357 -6.78523e-05 0)
(-0.000136356 -9.65759e-05 0)
(-7.44756e-05 -0.000112978 0)
(-6.26111e-06 -0.000115203 0)
(5.84265e-05 -0.000102329 0)
(0.000110345 -7.72329e-05 0)
(0.000144484 -4.32133e-05 0)
(0.000156582 -5.31383e-06 0)
(0.000145413 3.08182e-05 0)
(0.000113661 6.03937e-05 0)
(6.70131e-05 7.92469e-05 0)
(1.16674e-05 8.47015e-05 0)
(-4.17065e-05 7.55856e-05 0)
(-8.31461e-05 5.4834e-05 0)
(-0.000108159 2.6165e-05 0)
(-0.000112637 -5.14224e-06 0)
(-9.64695e-05 -3.38025e-05 0)
(-6.37948e-05 -5.50187e-05 0)
(-1.94244e-05 -6.53727e-05 0)
(2.74748e-05 -6.22547e-05 0)
(6.58969e-05 -4.79334e-05 0)
(9.04317e-05 -2.56829e-05 0)
(9.75128e-05 1.97699e-07 0)
(8.61119e-05 2.4709e-05 0)
(5.95073e-05 4.37324e-05 0)
(2.24599e-05 5.41298e-05 0)
(-1.92238e-05 5.42144e-05 0)
(-5.56996e-05 4.45947e-05 0)
(-8.09045e-05 2.86703e-05 0)
(-9.33468e-05 9.18844e-06 0)
(-9.11855e-05 -1.03794e-05 0)
(-7.58865e-05 -2.75125e-05 0)
(-4.99968e-05 -3.99461e-05 0)
(-1.73915e-05 -4.65818e-05 0)
(7.83965e-06 -0.00103801 0)
(2.52168e-05 -0.00110718 0)
(4.26023e-05 -0.00110741 0)
(5.96473e-05 -0.00110446 0)
(7.62738e-05 -0.00109997 0)
(9.22268e-05 -0.00109405 0)
(0.000107312 -0.00108616 0)
(0.000121422 -0.00107642 0)
(0.000134467 -0.00106437 0)
(0.000146298 -0.00105015 0)
(0.000156886 -0.00103356 0)
(0.000166247 -0.00101502 0)
(0.000174545 -0.000994715 0)
(0.000181645 -0.000973004 0)
(0.000187884 -0.000950077 0)
(0.000193645 -0.000926287 0)
(0.00019937 -0.000901888 0)
(0.000205174 -0.000877153 0)
(0.00021152 -0.00085225 0)
(0.000218571 -0.000827356 0)
(0.000226587 -0.000802469 0)
(0.000235684 -0.000777698 0)
(0.00024622 -0.000752897 0)
(0.00025842 -0.000728178 0)
(0.000272042 -0.000703183 0)
(0.000287515 -0.000678143 0)
(0.000304639 -0.000652499 0)
(0.000323108 -0.000626676 0)
(0.000342999 -0.000600008 0)
(0.000364674 -0.00057301 0)
(0.000386831 -0.000545283 0)
(0.000409734 -0.000516975 0)
(0.000433072 -0.000487972 0)
(0.000456089 -0.000458099 0)
(0.000478787 -0.000427302 0)
(0.000500974 -0.000395393 0)
(0.000522684 -0.000362283 0)
(0.000543555 -0.000328216 0)
(0.000563873 -0.000293092 0)
(0.000582883 -0.000257193 0)
(0.000600337 -0.000220526 0)
(0.00061581 -0.000183193 0)
(0.000629382 -0.000145287 0)
(0.000641169 -0.000106834 0)
(0.000650527 -6.79592e-05 0)
(0.000656953 -2.89306e-05 0)
(0.000660221 1.00722e-05 0)
(0.000660144 4.88254e-05 0)
(0.000656395 8.72418e-05 0)
(0.000648994 0.000125007 0)
(0.000637694 0.000162032 0)
(0.000622373 0.000198053 0)
(0.000602876 0.000232703 0)
(0.000579609 0.000266029 0)
(0.000552713 0.000297491 0)
(0.000521387 0.000327005 0)
(0.000486532 0.00035397 0)
(0.000447616 0.000378432 0)
(0.000405844 0.000400062 0)
(0.000361049 0.000418316 0)
(0.000312976 0.000433214 0)
(0.000262852 0.000444297 0)
(0.000210595 0.000451469 0)
(0.000157172 0.000454421 0)
(0.000102885 0.000453059 0)
(4.83372e-05 0.000447236 0)
(-6.16946e-06 0.000436851 0)
(-5.97394e-05 0.000421882 0)
(-0.000111819 0.000402317 0)
(-0.000161372 0.000378316 0)
(-0.0002082 0.000350085 0)
(-0.000251252 0.000317606 0)
(-0.000290026 0.00028159 0)
(-0.00032405 0.000241942 0)
(-0.000352453 0.000199595 0)
(-0.000374807 0.000154448 0)
(-0.000390899 0.000107772 0)
(-0.000400162 5.95927e-05 0)
(-0.000401789 1.11011e-05 0)
(-0.000395952 -3.7274e-05 0)
(-0.000382837 -8.43634e-05 0)
(-0.000361964 -0.000130046 0)
(-0.000334035 -0.000172868 0)
(-0.000299691 -0.000212489 0)
(-0.000258647 -0.00024789 0)
(-0.000211776 -0.000278366 0)
(-0.000160201 -0.000303188 0)
(-0.000104437 -0.00032178 0)
(-4.57244e-05 -0.000333591 0)
(1.48779e-05 -0.000338271 0)
(7.60536e-05 -0.000335437 0)
(0.000136348 -0.000325133 0)
(0.000194611 -0.000307213 0)
(0.000249252 -0.000282096 0)
(0.000299082 -0.000249995 0)
(0.000342502 -0.000211692 0)
(0.000378455 -0.000167797 0)
(0.000405748 -0.000119425 0)
(0.000423484 -6.75374e-05 0)
(0.000431002 -1.3555e-05 0)
(0.000427491 4.12763e-05 0)
(0.000412564 9.5404e-05 0)
(0.000386842 0.000147448 0)
(0.000350445 0.000195739 0)
(0.000304352 0.000238762 0)
(0.00024939 0.000275268 0)
(0.000186996 0.000303718 0)
(0.000119214 0.000323245 0)
(4.74575e-05 0.000332787 0)
(-2.60386e-05 0.000331879 0)
(-9.85606e-05 0.000320287 0)
(-0.000167453 0.000297995 0)
(-0.00023087 0.00026591 0)
(-0.000285964 0.000224373 0)
(-0.000331213 0.000175201 0)
(-0.000364272 0.000119612 0)
(-0.000383584 5.98821e-05 0)
(-0.000388449 -2.00291e-06 0)
(-0.000377644 -6.31706e-05 0)
(-0.000351985 -0.000121921 0)
(-0.000312307 -0.000174934 0)
(-0.000259814 -0.000220478 0)
(-0.000196617 -0.000255811 0)
(-0.000125396 -0.000279885 0)
(-4.91218e-05 -0.00029035 0)
(2.87246e-05 -0.000287133 0)
(0.000104263 -0.000269639 0)
(0.000173362 -0.000239019 0)
(0.00023251 -0.000196049 0)
(0.000278724 -0.000143106 0)
(0.000309136 -8.25153e-05 0)
(0.000321825 -1.76246e-05 0)
(0.00031536 4.79315e-05 0)
(0.000289735 0.000110655 0)
(0.00024639 0.00016679 0)
(0.0001874 0.000212997 0)
(0.000116395 0.000245613 0)
(3.63496e-05 0.000263087 0)
(-4.71071e-05 0.000262973 0)
(-0.000127256 0.000245401 0)
(-0.000199578 0.00021122 0)
(-0.00025899 0.000162244 0)
(-0.000300891 0.000101755 0)
(-0.000322022 3.36982e-05 0)
(-0.000319825 -3.68879e-05 0)
(-0.00029399 -0.000105041 0)
(-0.000246285 -0.000165408 0)
(-0.000179829 -0.000213412 0)
(-9.93912e-05 -0.000244356 0)
(-9.50928e-06 -0.000255822 0)
(8.0908e-05 -0.00024545 0)
(0.000162974 -0.000214408 0)
(0.000230744 -0.00016491 0)
(0.00027821 -0.000100989 0)
(0.000300574 -2.80457e-05 0)
(0.00029491 4.7244e-05 0)
(0.000261159 0.000118183 0)
(0.000202378 0.000177895 0)
(0.000124016 0.000220206 0)
(3.13547e-05 0.000240808 0)
(-6.49617e-05 0.000236408 0)
(-0.000152961 0.000207891 0)
(-0.00022507 0.000158182 0)
(-0.000273672 9.26006e-05 0)
(-0.000293108 1.81786e-05 0)
(-0.000281141 -5.65549e-05 0)
(-0.00023921 -0.000122939 0)
(-0.000172453 -0.000173351 0)
(-8.9087e-05 -0.000201647 0)
(2.36586e-06 -0.000204318 0)
(8.81537e-05 -0.000180567 0)
(0.000155948 -0.000134769 0)
(0.000199214 -7.36004e-05 0)
(0.000212155 -5.78291e-06 0)
(0.00019406 5.84704e-05 0)
(0.000148942 0.00011075 0)
(8.43776e-05 0.000143301 0)
(8.77689e-06 0.000151821 0)
(-6.30758e-05 0.000134263 0)
(-0.000117992 9.6224e-05 0)
(-0.00014978 4.45993e-05 0)
(-0.000153693 -1.15409e-05 0)
(-0.000130128 -6.24269e-05 0)
(-8.47369e-05 -9.96127e-05 0)
(-2.40436e-05 -0.000117023 0)
(3.90434e-05 -0.000110518 0)
(8.96189e-05 -8.42653e-05 0)
(0.000121153 -4.42052e-05 0)
(0.000129229 1.62429e-06 0)
(0.000113089 4.47027e-05 0)
(7.74182e-05 7.76768e-05 0)
(2.86872e-05 9.51002e-05 0)
(-2.51097e-05 9.39461e-05 0)
(-7.09499e-05 7.65455e-05 0)
(-0.000101638 4.85788e-05 0)
(-0.000115792 1.48706e-05 0)
(-0.000111938 -1.86387e-05 0)
(-9.23539e-05 -4.73813e-05 0)
(-6.05257e-05 -6.80999e-05 0)
(-2.10732e-05 -7.88858e-05 0)
(1.71476e-05 -4.373e-05 0)
(5.73665e-05 -2.69661e-05 0)
(9.82085e-05 -1.98578e-05 0)
(0.000140937 -1.03752e-05 0)
(0.000184611 3.47418e-06 0)
(0.000230394 1.9559e-05 0)
(0.000277657 4.07429e-05 0)
(0.000326273 6.26227e-05 0)
(0.000376087 8.90182e-05 0)
(0.000425698 0.000113054 0)
(0.000473893 0.000136591 0)
(0.000518539 0.00015575 0)
(0.000559803 0.000171716 0)
(0.000597138 0.000182694 0)
(0.000630921 0.000189469 0)
(0.000661068 0.000191068 0)
(0.000687927 0.000188572 0)
(0.000712107 0.000181164 0)
(0.000733895 0.00017052 0)
(0.000754163 0.000155946 0)
(0.000773542 0.000138525 0)
(0.000792661 0.000118023 0)
(0.000811751 9.58912e-05 0)
(0.000831906 7.20106e-05 0)
(0.000852279 4.80949e-05 0)
(0.000873868 2.37554e-05 0)
(0.000895624 1.13691e-06 0)
(0.00091765 -2.07448e-05 0)
(0.000939367 -3.92119e-05 0)
(0.000959441 -5.55171e-05 0)
(0.000979256 -6.81479e-05 0)
(0.000997324 -7.80101e-05 0)
(0.00101501 -8.4391e-05 0)
(0.00103194 -8.78997e-05 0)
(0.00104816 -8.82246e-05 0)
(0.00106389 -8.56216e-05 0)
(0.00107764 -7.9873e-05 0)
(0.00108956 -7.08785e-05 0)
(0.00109982 -5.8503e-05 0)
(0.00110765 -4.26433e-05 0)
(0.00111342 -2.32925e-05 0)
(0.0011169 -5.09908e-07 0)
(0.00111786 2.55739e-05 0)
(0.00111561 5.46006e-05 0)
(0.00110915 8.63976e-05 0)
(0.00109826 0.000120849 0)
(0.00108311 0.000157747 0)
(0.00106407 0.000196676 0)
(0.0010409 0.00023723 0)
(0.00101346 0.000279021 0)
(0.000982057 0.000321419 0)
(0.000945627 0.00036419 0)
(0.000905414 0.000406458 0)
(0.000861093 0.000448176 0)
(0.000811973 0.000488167 0)
(0.00075814 0.000526162 0)
(0.000700244 0.00056175 0)
(0.000639075 0.000593948 0)
(0.000573565 0.000622691 0)
(0.000504786 0.000646871 0)
(0.000433061 0.000666537 0)
(0.000358826 0.000680822 0)
(0.000282568 0.000689552 0)
(0.000205079 0.000692211 0)
(0.000127061 0.000688531 0)
(4.90568e-05 0.000678206 0)
(-2.80037e-05 0.00066112 0)
(-0.000103488 0.00063726 0)
(-0.000176288 0.000606551 0)
(-0.000245292 0.000569235 0)
(-0.000310372 0.00052531 0)
(-0.000369864 0.000475397 0)
(-0.000423053 0.000419659 0)
(-0.000469333 0.000358906 0)
(-0.00050816 0.000293607 0)
(-0.000538105 0.000224714 0)
(-0.000559 0.000152903 0)
(-0.000570614 7.93551e-05 0)
(-0.000571552 5.08706e-06 0)
(-0.000562098 -6.88123e-05 0)
(-0.00054286 -0.000141073 0)
(-0.000513334 -0.000210485 0)
(-0.000473727 -0.000276037 0)
(-0.000425335 -0.000336205 0)
(-0.000367742 -0.000389874 0)
(-0.000302123 -0.000435968 0)
(-0.000229952 -0.000473369 0)
(-0.000152333 -0.000501108 0)
(-7.06759e-05 -0.000518467 0)
(1.36118e-05 -0.000524762 0)
(9.83822e-05 -0.000519652 0)
(0.000181991 -0.000502881 0)
(0.000262576 -0.000474722 0)
(0.000338054 -0.000435188 0)
(0.000406681 -0.000385261 0)
(0.000466483 -0.000325645 0)
(0.000515824 -0.000257726 0)
(0.000553168 -0.000182736 0)
(0.000577252 -0.000102789 0)
(0.000587076 -1.93453e-05 0)
(0.00058185 6.49678e-05 0)
(0.000561187 0.000148259 0)
(0.000525544 0.000228191 0)
(0.000475006 0.000302187 0)
(0.000411397 0.000368133 0)
(0.000335774 0.00042372 0)
(0.000249939 0.000467138 0)
(0.000156539 0.00049645 0)
(5.80087e-05 0.000510582 0)
(-4.23618e-05 0.000508323 0)
(-0.000141648 0.000490014 0)
(-0.000235631 0.000455205 0)
(-0.000321842 0.000404926 0)
(-0.000396899 0.000340695 0)
(-0.000457674 0.000264567 0)
(-0.000501739 0.000178933 0)
(-0.000526876 8.6804e-05 0)
(-0.00053153 -8.33131e-06 0)
(-0.000515652 -0.000102424 0)
(-0.000479037 -0.000192167 0)
(-0.000422884 -0.000273702 0)
(-0.000349491 -0.00034292 0)
(-0.000261733 -0.000396911 0)
(-0.000162674 -0.00043252 0)
(-5.6574e-05 -0.000448447 0)
(5.10195e-05 -0.000442111 0)
(0.000154955 -0.000414599 0)
(0.000249766 -0.000366614 0)
(0.000331013 -0.000299816 0)
(0.000393861 -0.000217793 0)
(0.000434958 -0.000124083 0)
(0.000451008 -2.36978e-05 0)
(0.000440801 7.71167e-05 0)
(0.000404537 0.000173934 0)
(0.000344159 0.000259863 0)
(0.000261767 0.000330579 0)
(0.000162768 0.00038043 0)
(5.20729e-05 0.000406245 0)
(-6.35475e-05 0.000405559 0)
(-0.000174211 0.0003778 0)
(-0.000273994 0.000324532 0)
(-0.000355663 0.000248845 0)
(-0.000413083 0.000155223 0)
(-0.000441599 5.0554e-05 0)
(-0.000438067 -5.82571e-05 0)
(-0.000402251 -0.000162975 0)
(-0.000336462 -0.00025561 0)
(-0.000244734 -0.000328624 0)
(-0.000133813 -0.000375845 0)
(-1.03635e-05 -0.000392811 0)
(0.000113996 -0.000376163 0)
(0.000226289 -0.000327953 0)
(0.000318858 -0.000251634 0)
(0.000383191 -0.000153018 0)
(0.000412876 -4.1055e-05 0)
(0.000404257 7.42294e-05 0)
(0.000357651 0.000182576 0)
(0.000276796 0.000273458 0)
(0.000169153 0.000337489 0)
(4.26302e-05 0.000368056 0)
(-8.8522e-05 0.000360206 0)
(-0.000207882 0.000315539 0)
(-0.00030484 0.000238609 0)
(-0.000369239 0.000137545 0)
(-0.000393869 2.3523e-05 0)
(-0.0003752 -9.0509e-05 0)
(-0.000315846 -0.000191523 0)
(-0.000223391 -0.000267508 0)
(-0.00010852 -0.00030919 0)
(1.61765e-05 -0.000311718 0)
(0.000132261 -0.000273209 0)
(0.000222775 -0.000201778 0)
(0.000278617 -0.000107235 0)
(0.000292424 -3.23854e-06 0)
(0.000263963 9.5311e-05 0)
(0.000199055 0.000174255 0)
(0.000108004 0.000222689 0)
(2.99196e-06 0.000233743 0)
(-9.55163e-05 0.000204971 0)
(-0.000169108 0.000144962 0)
(-0.000210364 6.45634e-05 0)
(-0.000213046 -2.16261e-05 0)
(-0.000178229 -9.92031e-05 0)
(-0.000113996 -0.0001549 0)
(-2.95058e-05 -0.000180034 0)
(5.66414e-05 -0.000168309 0)
(0.000124472 -0.000127074 0)
(0.000165526 -6.53656e-05 0)
(0.000174427 4.58481e-06 0)
(0.000151205 6.96011e-05 0)
(0.000102214 0.000118233 0)
(3.62029e-05 0.000143154 0)
(-3.44367e-05 0.000139405 0)
(-9.26995e-05 0.000112234 0)
(-0.000130683 6.98461e-05 0)
(-0.000147016 1.98878e-05 0)
(-0.000140363 -2.8692e-05 0)
(-0.000114549 -6.9797e-05 0)
(-7.43759e-05 -9.9046e-05 0)
(-2.56791e-05 -0.000113826 0)
(2.67523e-05 -0.00146174 0)
(8.93564e-05 -0.00155924 0)
(0.000151572 -0.00156827 0)
(0.000216655 -0.00157654 0)
(0.000278912 -0.00158218 0)
(0.000344955 -0.00159135 0)
(0.000403532 -0.00159072 0)
(0.00045723 -0.00159081 0)
(0.000490144 -0.00157503 0)
(0.000494227 -0.00154804 0)
(0.00048195 -0.00149435 0)
(0.000452728 -0.00143225 0)
(0.000417692 -0.00136224 0)
(0.000375564 -0.00129248 0)
(0.000331146 -0.00122322 0)
(0.00028674 -0.00115812 0)
(0.000244299 -0.0010974 0)
(0.00020678 -0.0010422 0)
(0.000171992 -0.000991443 0)
(0.000143568 -0.000949781 0)
(0.000122003 -0.000913912 0)
(0.000108189 -0.000884026 0)
(0.000102651 -0.000857272 0)
(0.000107144 -0.000837471 0)
(0.000119491 -0.000817727 0)
(0.000142515 -0.000804337 0)
(0.000172086 -0.000785266 0)
(0.000211139 -0.00077157 0)
(0.000256497 -0.000746382 0)
(0.000304691 -0.000724662 0)
(0.000355547 -0.000695402 0)
(0.000406564 -0.00066622 0)
(0.000458997 -0.000632327 0)
(0.000510645 -0.00059609 0)
(0.000562609 -0.000555907 0)
(0.000613561 -0.000512545 0)
(0.000663932 -0.000466099 0)
(0.000712664 -0.000416693 0)
(0.000759945 -0.000364578 0)
(0.000804789 -0.000309938 0)
(0.00084664 -0.000252945 0)
(0.00088478 -0.00019379 0)
(0.000918274 -0.000132569 0)
(0.000947088 -6.92538e-05 0)
(0.000971678 -4.32292e-06 0)
(0.000991491 6.25897e-05 0)
(0.00100528 0.000130737 0)
(0.0010123 0.000199549 0)
(0.00101245 0.000268666 0)
(0.00100505 0.000337881 0)
(0.000990539 0.000406651 0)
(0.000968046 0.000474373 0)
(0.000938207 0.000540558 0)
(0.000900558 0.00060431 0)
(0.000854414 0.000665121 0)
(0.000801875 0.000722409 0)
(0.000741568 0.000775549 0)
(0.000674283 0.00082353 0)
(0.000600763 0.000865742 0)
(0.000521373 0.000901562 0)
(0.000436913 0.000930287 0)
(0.000347796 0.000951282 0)
(0.000255281 0.00096402 0)
(0.000160007 0.000968019 0)
(6.30794e-05 0.000962836 0)
(-3.44189e-05 0.000948223 0)
(-0.000131209 0.000923915 0)
(-0.0002263 0.000889844 0)
(-0.000318369 0.000846097 0)
(-0.000406182 0.000792707 0)
(-0.00048846 0.000730248 0)
(-0.00056376 0.0006592 0)
(-0.000631119 0.000579861 0)
(-0.000689218 0.000493483 0)
(-0.000737043 0.000400535 0)
(-0.000773691 0.000302734 0)
(-0.000798398 0.000200776 0)
(-0.000809946 9.66887e-05 0)
(-0.000807977 -8.63937e-06 0)
(-0.000792155 -0.000113117 0)
(-0.000762574 -0.000215634 0)
(-0.000719681 -0.000313803 0)
(-0.000663537 -0.000406407 0)
(-0.000594779 -0.000491234 0)
(-0.000514391 -0.000566783 0)
(-0.000423468 -0.00063136 0)
(-0.000323624 -0.000683593 0)
(-0.000216518 -0.000722004 0)
(-0.000104157 -0.000745616 0)
(1.13707e-05 -0.00075348 0)
(0.000127606 -0.000744942 0)
(0.00024172 -0.000720001 0)
(0.000351846 -0.000678641 0)
(0.00045487 -0.000621429 0)
(0.000548127 -0.000549322 0)
(0.000629251 -0.000463653 0)
(0.000696169 -0.000366077 0)
(0.000746349 -0.000258717 0)
(0.00077856 -0.000144238 0)
(0.000791416 -2.5132e-05 0)
(0.000783498 9.51845e-05 0)
(0.000755295 0.000213949 0)
(0.000706363 0.00032745 0)
(0.000637567 0.000432608 0)
(0.000550826 0.000526111 0)
(0.000447858 0.000604697 0)
(0.000331085 0.000665657 0)
(0.000204214 0.000706755 0)
(7.03095e-05 0.000725763 0)
(-6.56079e-05 0.000721903 0)
(-0.000199354 0.000694284 0)
(-0.000326921 0.000643903 0)
(-0.000442976 0.000571644 0)
(-0.000543023 0.000479279 0)
(-0.000624064 0.000370256 0)
(-0.000682373 0.000247686 0)
(-0.000714843 0.00011668 0)
(-0.000719386 -1.9165e-05 0)
(-0.000695582 -0.000153353 0)
(-0.00064483 -0.000280927 0)
(-0.000567183 -0.000396221 0)
(-0.000465878 -0.000494284 0)
(-0.000344975 -0.00057012 0)
(-0.00020999 -0.000619714 0)
(-6.51674e-05 -0.000640822 0)
(8.20185e-05 -0.000630872 0)
(0.000222548 -0.00059041 0)
(0.00035142 -0.000520773 0)
(0.000460943 -0.000424325 0)
(0.000545482 -0.000306678 0)
(0.000600491 -0.000172595 0)
(0.000620475 -2.95398e-05 0)
(0.000605369 0.000114719 0)
(0.000554871 0.000252663 0)
(0.000471103 0.000374937 0)
(0.000358389 0.000474971 0)
(0.000222502 0.000545386 0)
(7.12362e-05 0.000581515 0)
(-8.60484e-05 0.000579297 0)
(-0.000236958 0.000538846 0)
(-0.000372234 0.000462021 0)
(-0.000483087 0.000353295 0)
(-0.000560388 0.000219392 0)
(-0.000598255 6.97785e-05 0)
(-0.000593006 -8.51456e-05 0)
(-0.000543657 -0.000234392 0)
(-0.000453564 -0.000365924 0)
(-0.00032871 -0.000469345 0)
(-0.000178159 -0.000535721 0)
(-1.03614e-05 -0.000558785 0)
(0.000157841 -0.00053441 0)
(0.000309402 -0.000464968 0)
(0.000434277 -0.00035554 0)
(0.00052053 -0.000215192 0)
(0.000559187 -5.54088e-05 0)
(0.000546567 0.000108226 0)
(0.000482852 0.000261682 0)
(0.000372856 0.000389631 0)
(0.000227006 0.000479646 0)
(5.59619e-05 0.000521683 0)
(-0.000120571 0.000509081 0)
(-0.000280513 0.000444443 0)
(-0.00040975 0.000333971 0)
(-0.000494379 0.000189511 0)
(-0.000524573 2.72735e-05 0)
(-0.000496974 -0.000134077 0)
(-0.000414909 -0.000276338 0)
(-0.000288107 -0.000382232 0)
(-0.000132289 -0.000439108 0)
(3.63875e-05 -0.00043999 0)
(0.000191825 -0.000383207 0)
(0.000310947 -0.000279563 0)
(0.000382645 -0.000143905 0)
(0.000397239 4.07897e-06 0)
(0.000354498 0.000143582 0)
(0.000262886 0.000254242 0)
(0.000137125 0.000320271 0)
(-6.43267e-06 0.000333081 0)
(-0.000139465 0.000289287 0)
(-0.000237568 0.000201615 0)
(-0.000290167 8.60678e-05 0)
(-0.000290232 -3.67437e-05 0)
(-0.000240084 -0.000146044 0)
(-0.000150798 -0.000223312 0)
(-3.51192e-05 -0.000256549 0)
(8.09371e-05 -0.000237631 0)
(0.000170424 -0.000176612 0)
(0.000223426 -8.847e-05 0)
(0.000232951 1.00595e-05 0)
(0.000199535 0.000100516 0)
(0.000132822 0.000167034 0)
(4.45817e-05 0.00019952 0)
(-4.76577e-05 0.000191297 0)
(-0.000121332 0.000151854 0)
(-0.000167844 9.25613e-05 0)
(-0.000185731 2.42125e-05 0)
(-0.000174926 -4.10951e-05 0)
(-0.00014124 -9.52767e-05 0)
(-9.08058e-05 -0.000132787 0)
(-3.11463e-05 -0.000152219 0)
(6.44561e-06 -0.000864154 0)
(2.95982e-05 -0.000904306 0)
(5.21828e-05 -0.000893328 0)
(0.000105184 -0.000874952 0)
(0.000169455 -0.000830792 0)
(0.00029005 -0.000770852 0)
(0.000428698 -0.000618411 0)
(0.000600177 -0.000429975 0)
(0.000736939 -0.000107634 0)
(0.000845724 0.000147129 0)
(0.000954345 0.000358633 0)
(0.00102607 0.000486972 0)
(0.00107482 0.000575208 0)
(0.0010916 0.000625502 0)
(0.00109258 0.000647387 0)
(0.00107797 0.000643224 0)
(0.00105484 0.000617328 0)
(0.00102441 0.000572888 0)
(0.000990885 0.00051211 0)
(0.000957301 0.000436685 0)
(0.000923425 0.000352814 0)
(0.000896689 0.000248912 0)
(0.000869753 0.000137097 0)
(0.000862494 1.24134e-05 0)
(0.000860608 -0.000103189 0)
(0.000885915 -0.000229688 0)