/*--------------------------------*- C++ -*----------------------------------*\
  =========                 |
  \\      /  F ield         | OpenFOAM: The Open Source CFD Toolbox
   \\    /   O peration     | Website:  https://openfoam.org
    \\  /    A nd           | Version:  12
     \\/     M anipulation  |
\*---------------------------------------------------------------------------*/
FoamFile
{
    format      ascii;
    class       volVectorField;
    location    "20";
    object      zeta;
}
// * * * * * * * * * * * * * * * * * * * * * * * * * * * * * * * * * * * * * //

dimensions      [0 1 0 0 0 0 0];

internalField   uniform (0 0 0);

boundaryField
{
    freeSurface
    {
        type            calculated;
        value           nonuniform List<vector> 
181
(
(0 0.00600848 0)
(0 0.00600824 0)
(0 0.0060076 0)
(0 0.00600659 0)
(0 0.00600576 0)
(0 0.00600437 0)
(0 0.00600446 0)
(0 0.00600247 0)
(0 0.000769261 0)
(0 0.000777067 0)
(0 0.000793847 0)
(0 0.000817368 0)
(0 0.000844541 0)
(0 0.000879173 0)
(0 0.00091699 0)
(0 0.000959188 0)
(0 0.00100341 0)
(0 0.00104996 0)
(0 0.00109668 0)
(0 0.00114306 0)
(0 0.00118727 0)
(0 0.00122862 0)
(0 0.00126598 0)
(0 0.00129879 0)
(0 0.00132632 0)
(0 0.0013478 0)
(0 0.00136237 0)
(0 0.0013692 0)
(0 0.00136758 0)
(0 0.00135704 0)
(0 0.00133729 0)
(0 0.00130807 0)
(0 0.00126912 0)
(0 0.00122024 0)
(0 0.00116147 0)
(0 0.00109288 0)
(0 0.00101482 0)
(0 0.000927815 0)
(0 0.000832376 0)
(0 0.000729151 0)
(0 0.000618761 0)
(0 0.000502112 0)
(0 0.000380229 0)
(0 0.000254216 0)
(0 0.000125357 0)
(0 -5.03691e-06 0)
(0 -0.000135604 0)
(0 -0.000264845 0)
(0 -0.000391027 0)
(0 -0.000512479 0)
(0 -0.000627469 0)
(0 -0.000734232 0)
(0 -0.000831137 0)
(0 -0.000916509 0)
(0 -0.000988851 0)
(0 -0.00104681 0)
(0 -0.00108915 0)
(0 -0.00111482 0)
(0 -0.00112295 0)
(0 -0.00111305 0)
(0 -0.00108473 0)
(0 -0.00103799 0)
(0 -0.000973131 0)
(0 -0.000890668 0)
(0 -0.000791697 0)
(0 -0.000677578 0)
(0 -0.000549921 0)
(0 -0.00041102 0)
(0 -0.000263267 0)
(0 -0.000109509 0)
(0 4.70949e-05 0)
(0 0.000203339 0)
(0 0.000356035 0)
(0 0.000501516 0)
(0 0.000636421 0)
(0 0.000757269 0)
(0 0.000860647 0)
(0 0.000943728 0)
(0 0.00100393 0)
(0 0.0010387 0)
(0 0.00104677 0)
(0 0.00102683 0)
(0 0.000978825 0)
(0 0.000903422 0)
(0 0.000802052 0)
(0 0.000676899 0)
(0 0.000531028 0)
(0 0.000368481 0)
(0 0.000193921 0)
(0 1.24698e-05 0)
(0 -0.000170008 0)
(0 -0.000347582 0)
(0 -0.000514034 0)
(0 -0.000663117 0)
(0 -0.000788922 0)
(0 -0.000886415 0)
(0 -0.000951052 0)
(0 -0.000979588 0)
(0 -0.000969751 0)
(0 -0.00092114 0)
(0 -0.000834696 0)
(0 -0.000712917 0)
(0 -0.000560408 0)
(0 -0.000383079 0)
(0 -0.000188259 0)
(0 1.52276e-05 0)
(0 0.000218096 0)
(0 0.000410991 0)
(0 0.000583898 0)
(0 0.000727451 0)
(0 0.000833354 0)
(0 0.000895362 0)
(0 0.000908548 0)
(0 0.000871309 0)
(0 0.000784244 0)
(0 0.000651392 0)
(0 0.00047985 0)
(0 0.000278592 0)
(0 6.04267e-05 0)
(0 -0.000161411 0)
(0 -0.000373368 0)
(0 -0.000560684 0)
(0 -0.000709957 0)
(0 -0.000810078 0)
(0 -0.000852389 0)
(0 -0.000832546 0)
(0 -0.000750645 0)
(0 -0.000611686 0)
(0 -0.000425457 0)
(0 -0.000206243 0)
(0 2.78695e-05 0)
(0 0.00025757 0)
(0 0.000463873 0)
(0 0.000627215 0)
(0 0.000731818 0)
(0 0.000766162 0)
(0 0.000725639 0)
(0 0.000612353 0)
(0 0.000435898 0)
(0 0.000212962 0)
(0 -3.38194e-05 0)
(0 -0.000278463 0)
(0 -0.000496087 0)
(0 -0.000660654 0)
(0 -0.000751348 0)
(0 -0.000755052 0)
(0 -0.000668767 0)
(0 -0.000501108 0)
(0 -0.000271592 0)
(0 -8.90586e-06 0)
(0 0.0002517 0)
(0 0.00047746 0)
(0 0.000635218 0)
(0 0.000700206 0)
(0 0.000659906 0)
(0 0.000518677 0)
(0 0.000297365 0)
(0 3.02882e-05 0)
(0 -0.000238447 0)
(0 -0.000466331 0)
(0 -0.000614052 0)
(0 -0.0006531 0)
(0 -0.000573344 0)
(0 -0.000388289 0)
(0 -0.000131816 0)
(0 0.000146964 0)
(0 0.000393243 0)
(0 0.000558464 0)
(0 0.000604594 0)
(0 0.000516639 0)
(0 0.000311677 0)
(0 3.21606e-05 0)
(0 -0.000261095 0)
(0 -0.000500341 0)
(0 -0.000629213 0)
(0 -0.000609696 0)
(0 -0.000440866 0)
(0 -0.000161006 0)
(0 0.000162893 0)
(0 0.000447551 0)
(0 0.000615353 0)
)
;
    }
    walls
    {
        type            calculated;
        value           uniform (0 0 0);
    }
    floatingObject
    {
        type            calculated;
        value           uniform (0 0 0);
    }
    frontAndBack
    {
        type            empty;
    }
}


// ************************************************************************* //
