#           y            Uf            nu         nuEff             k       epsilon           Rff           Rww           Rfw             u             v             w            uv      gammaDot
  2.80937e-05      0.646734         1e-05   1.00037e-05    0.00835964       57.0847    0.00557309    0.00557309  -8.50009e-05     0.0746531     0.0746531     0.0746531  -8.50009e-05       22736.5
  8.78022e-05       1.98733         1e-05   1.05091e-05      0.159862        343.56      0.106575      0.106575    -0.0101725      0.326458      0.326458      0.326458    -0.0101725       19980.6
  0.000154994       3.16379         1e-05   1.60473e-05      0.488039       863.538       0.32536       0.32536    -0.0860793      0.570403      0.570403      0.570403    -0.0860793       14234.3
  0.000230608        3.9925         1e-05   2.64007e-05      0.673742       988.711      0.449161      0.449161     -0.146646      0.670195      0.670195      0.670195     -0.146646       8941.43
  0.000315699       4.58159         1e-05   4.05489e-05      0.744039       855.129      0.496026      0.496026      -0.17699      0.704291      0.704291      0.704291      -0.17699       5793.68
  0.000411455       5.02822         1e-05   5.84465e-05      0.767749       689.289      0.511833      0.511833     -0.193651      0.715425      0.715425      0.715425     -0.193651       3997.21
  0.000519212       5.38706         1e-05   7.96908e-05       0.77329       550.745      0.515527      0.515527     -0.202983      0.718002      0.718002      0.718002     -0.202983       2912.62
  0.000640475       5.68963         1e-05   0.000104019      0.771786       443.841      0.514524      0.514524     -0.208532      0.717303      0.717303      0.717303     -0.208532       2217.98
  0.000776937       5.95448         1e-05   0.000131346      0.767618       362.167      0.511745      0.511745     -0.212009      0.715364      0.715364      0.715364     -0.212009       1747.14
  0.000930502       6.19303         1e-05   0.000161744      0.762544       299.127      0.508363      0.508363     -0.214263      0.712996      0.712996      0.712996     -0.214263          1412
   0.00110331       6.41261         1e-05   0.000195393      0.757258       249.708      0.504839      0.504839     -0.215737       0.71052       0.71052       0.71052     -0.215737       1163.67
   0.00129779       6.61811         1e-05   0.000232548      0.752001        210.35      0.501334      0.501334      -0.21667      0.708049      0.708049      0.708049      -0.21667       973.587
   0.00151663       6.81298         1e-05    0.00027351       0.74681       178.547      0.497873      0.497873     -0.217197      0.705601      0.705601      0.705601     -0.217197       824.248
   0.00176291       6.99968         1e-05   0.000318609      0.741635       152.518      0.494423      0.494423     -0.217396      0.703152      0.703152      0.703152     -0.217396       704.439
   0.00204005       7.18004         1e-05   0.000368191       0.73638       130.974       0.49092       0.49092     -0.217307      0.700657      0.700657      0.700657     -0.217307       606.678
   0.00235193       7.35549         1e-05   0.000422606      0.730931       112.969      0.487287      0.487287     -0.216948       0.69806       0.69806       0.69806     -0.216948         525.8
    0.0027029       7.52713         1e-05   0.000482198      0.725165       97.7923      0.483443      0.483443     -0.216324      0.695301      0.695301      0.695301     -0.216324       458.122
   0.00309785       7.69585         1e-05   0.000547288      0.718953       84.9044      0.479302      0.479302     -0.215426      0.692316      0.692316      0.692316     -0.215426       400.951
   0.00354231       7.86239         1e-05   0.000618166      0.712163       73.8877      0.474775      0.474775     -0.214237      0.689039      0.689039      0.689039     -0.214237       352.267
   0.00404248       8.02736         1e-05   0.000695069      0.704659       64.4151      0.469773      0.469773     -0.212732        0.6854        0.6854        0.6854     -0.212732       310.526
   0.00460533       8.19128         1e-05   0.000778166      0.696303       56.2274      0.464202      0.464202      -0.21088      0.681324      0.681324      0.681324      -0.21088       274.523
   0.00523873       8.35458         1e-05   0.000867532      0.686947       49.1163      0.457965      0.457965     -0.208643      0.676731      0.676731      0.676731     -0.208643       243.307
   0.00595151       8.51766         1e-05   0.000963118      0.676441       42.9135      0.450961      0.450961      -0.20598      0.671536      0.671536      0.671536      -0.20598       216.111
   0.00675364       8.68084         1e-05    0.00106472      0.664623        37.481      0.443082      0.443082     -0.202839      0.665644      0.665644      0.665644     -0.202839       192.315
    0.0076563        8.8444         1e-05    0.00117194      0.651324       32.7054      0.434216      0.434216     -0.199165      0.658951      0.658951      0.658951     -0.199165       171.408
   0.00867209       9.00857         1e-05    0.00128414      0.636363       28.4924      0.424242      0.424242     -0.194897      0.651338      0.651338      0.651338     -0.194897       152.963
    0.0098152       9.17353         1e-05    0.00140039      0.619546       24.7634      0.413031      0.413031     -0.189963      0.642675      0.642675      0.642675     -0.189963       136.626
    0.0111016        9.3394         1e-05    0.00151943       0.60067       21.4521      0.400447      0.400447     -0.184287      0.632808      0.632808      0.632808     -0.184287        122.09
    0.0125492       9.50622         1e-05    0.00163961       0.57952       18.5027      0.386347      0.386347     -0.177781      0.621568      0.621568      0.621568     -0.177781       109.094
    0.0141782       9.67393         1e-05    0.00175884      0.555874       15.8679      0.370583      0.370583     -0.170347      0.608755      0.608755      0.608755     -0.170347       97.4055
    0.0160115       9.84233         1e-05    0.00187463      0.529515       13.5079       0.35301       0.35301     -0.161876      0.594146      0.594146      0.594146     -0.161876       86.8139
    0.0180745        10.011         1e-05    0.00198411      0.500243       11.3895      0.333495      0.333495     -0.152244      0.577491      0.577491      0.577491     -0.152244       77.1202
     0.020396       10.1793         1e-05    0.00208425      0.467918        9.4854      0.311945      0.311945      -0.14131       0.55852       0.55852       0.55852      -0.14131       68.1259
    0.0230086       10.3459         1e-05    0.00217236       0.43252       7.77527      0.288347      0.288347     -0.128918      0.536979      0.536979      0.536979     -0.128918       59.6193
    0.0259485       10.5089         1e-05    0.00224694      0.394284       6.24644      0.262856      0.262856     -0.114891      0.512695      0.512695      0.512695     -0.114891       51.3607
     0.029257       10.6653         1e-05    0.00230943      0.353919       4.89653      0.235946      0.235946    -0.0990405      0.485743      0.485743      0.485743    -0.0990405       43.0719
    0.0329801       10.8101         1e-05    0.00236649      0.312985       3.73686      0.208657      0.208657    -0.0811901       0.45679       0.45679       0.45679    -0.0811901       34.4539
    0.0371699       10.9359         1e-05    0.00243116      0.274371       2.79514      0.182914      0.182914    -0.0611982      0.427684      0.427684      0.427684    -0.0611982       25.2764
    0.0418848       11.0327         1e-05    0.00251415      0.242589       2.11284      0.161726      0.161726    -0.0388395      0.402152      0.402152      0.402152    -0.0388395       15.5101
    0.0471906       11.0883         1e-05    0.00259245       0.22345       1.73836      0.148967      0.148967    -0.0134593      0.385962      0.385962      0.385962    -0.0134593       5.21182
    0.0528094       11.0879         1e-05    0.00259288      0.223621       1.74073      0.149081      0.149081     0.0138143      0.386109      0.386109      0.386109     0.0138143       5.34842
    0.0581152       11.0315         1e-05    0.00251577      0.243062       2.11971      0.162041      0.162041     0.0391879      0.402544      0.402544      0.402544     0.0391879       15.6391
    0.0628301       10.9342         1e-05    0.00243408      0.275062       2.80587      0.183375      0.183375     0.0615433      0.428223      0.428223      0.428223     0.0615433       25.3883
    0.0670199        10.808         1e-05    0.00237025      0.313809        3.7506      0.209206      0.209206     0.0815305      0.457391      0.457391      0.457391     0.0815305       34.5431
     0.070743       10.6629         1e-05    0.00231353      0.354809       4.91242      0.236539      0.236539     0.0993723      0.486353      0.486353      0.486353     0.0993723       43.1391
    0.0740515       10.5064         1e-05    0.00225105      0.395194       6.26385      0.263463      0.263463      0.115212      0.513286      0.513286      0.513286      0.115212       51.4098
    0.0769914       10.3432         1e-05    0.00217626      0.433424       7.79376      0.288949      0.288949      0.129227       0.53754       0.53754       0.53754      0.129227       59.6541
     0.079604       10.1765         1e-05    0.00208787      0.468799       9.50466      0.312533      0.312533      0.141605      0.559046      0.559046      0.559046      0.141605       68.1494
    0.0819255       10.0082         1e-05    0.00198739      0.501092       11.4093      0.334062      0.334062      0.152524      0.577981      0.577981      0.577981      0.152524       77.1343
    0.0839885       9.83949         1e-05    0.00187757      0.530326       13.5281       0.35355       0.35355      0.162142      0.594601      0.594601      0.594601      0.162142       86.8196
    0.0858218       9.67108         1e-05    0.00176146      0.556643       15.8881      0.371095      0.371095      0.170598      0.609176      0.609176      0.609176      0.170598       97.4032
    0.0874508       9.50338         1e-05    0.00164192      0.580244       18.5227      0.386829      0.386829      0.178016      0.621956      0.621956      0.621956      0.178016       109.084
    0.0888984       9.33658         1e-05    0.00152147      0.601347       21.4717      0.400898      0.400898      0.184506      0.633165      0.633165      0.633165      0.184506       122.071
    0.0901848       9.17075         1e-05    0.00140217      0.620174       24.7822       0.41345       0.41345      0.190166         0.643         0.643         0.643      0.190166       136.597
    0.0913279       9.00582         1e-05    0.00128568      0.636942       28.5101      0.424628      0.424628      0.195082      0.651635      0.651635      0.651635      0.195082       152.924
    0.0923437        8.8417         1e-05    0.00117327      0.651853       32.7214      0.434569      0.434569      0.199334      0.659218      0.659218      0.659218      0.199334       171.357
    0.0932464       8.67819         1e-05    0.00106586      0.665102       37.4949      0.443401      0.443401       0.20299      0.665884      0.665884      0.665884       0.20299       192.251
    0.0940485       8.51507         1e-05    0.00096409      0.676869       42.9246      0.451246      0.451246      0.206114      0.671749      0.671749      0.671749      0.206114       216.032
    0.0947613       8.35205         1e-05   0.000868355      0.687325        49.124      0.458217      0.458217       0.20876      0.676917      0.676917      0.676917       0.20876        243.21
    0.0953947       8.18882         1e-05   0.000778857      0.696631       56.2307       0.46442       0.46442       0.21098      0.681484      0.681484      0.681484       0.21098       274.407
    0.0959575       8.02497         1e-05   0.000695644      0.704938       64.4133      0.469959      0.469959      0.212815      0.685535      0.685535      0.685535      0.212815       310.387
    0.0964577       7.86008         1e-05    0.00061864      0.712393       73.8796      0.474929      0.474929      0.214304      0.689151      0.689151      0.689151      0.214304       352.103
    0.0969021       7.69362         1e-05   0.000547674      0.719136       84.8888      0.479424      0.479424      0.215477      0.692404      0.692404      0.692404      0.215477       400.758
    0.0972971       7.52497         1e-05   0.000482509      0.725302       97.7679      0.483535      0.483535      0.216361      0.695367      0.695367      0.695367      0.216361       457.898
    0.0976481       7.35342         1e-05   0.000422853      0.731024       112.934      0.487349      0.487349      0.216971      0.698104      0.698104      0.698104      0.216971        525.54
      0.09796       7.17806         1e-05   0.000368382       0.73643       130.927      0.490953      0.490953      0.217316      0.700681      0.700681      0.700681      0.217316       606.379
    0.0982371       6.99778         1e-05   0.000318754      0.741644       152.456      0.494429      0.494429      0.217392      0.703157      0.703157      0.703157      0.217392       704.095
    0.0984834       6.81118         1e-05   0.000273617      0.746781       178.468      0.497854      0.497854      0.217183      0.705588      0.705588      0.705588      0.217183       823.855
    0.0987022        6.6164         1e-05   0.000232625      0.751935        210.25       0.50129       0.50129      0.216645      0.708018      0.708018      0.708018      0.216645       973.139
    0.0988967       6.41099         1e-05   0.000195445      0.757159       249.583      0.504772      0.504772      0.215703      0.710473      0.710473      0.710473      0.215703       1163.16
    0.0990695       6.19151         1e-05   0.000161776      0.762413       298.972      0.508275      0.508275      0.214221      0.712934      0.712934      0.712934      0.214221       1411.43
    0.0992231       5.95305         1e-05   0.000131363      0.767458       361.976      0.511638      0.511638       0.21196      0.715289      0.715289      0.715289       0.21196       1746.49
    0.0993595       5.68829         1e-05   0.000104025      0.771599       443.604        0.5144        0.5144      0.208479      0.717217      0.717217      0.717217      0.208479       2217.26
    0.0994808       5.38582         1e-05   7.96899e-05       0.77308       550.451      0.515386      0.515386      0.202924      0.717904      0.717904      0.717904      0.202924       2911.82
    0.0995885       5.02706         1e-05   5.84416e-05      0.767518       688.917      0.511679      0.511679      0.193589      0.715317      0.715317      0.715317      0.193589       3996.33
    0.0996843       4.58052         1e-05   4.05429e-05      0.743789       854.651      0.495859      0.495859      0.176925      0.704173      0.704173      0.704173      0.176925       5792.68
    0.0997694       3.99152         1e-05   2.63958e-05      0.673477       988.091      0.448985      0.448985      0.146581      0.670063      0.670063      0.670063      0.146581       8940.14
     0.099845       3.16292         1e-05   1.60443e-05      0.487783       862.847      0.325189      0.325189     0.0860209      0.570253      0.570253      0.570253     0.0860209       14231.8
    0.0999122        1.9867         1e-05   1.05087e-05       0.15975       343.246        0.1065        0.1065     0.0101615      0.326343      0.326343      0.326343     0.0101615       19975.4
    0.0999719      0.646521         1e-05   1.00037e-05    0.00835365       57.0356     0.0055691     0.0055691   8.49245e-05     0.0746264     0.0746264     0.0746264   8.49245e-05       22729.2
