/*--------------------------------*- C++ -*----------------------------------*\
  =========                 |
  \\      /  F ield         | OpenFOAM: The Open Source CFD Toolbox
   \\    /   O peration     | Website:  https://openfoam.org
    \\  /    A nd           | Version:  12
     \\/     M anipulation  |
\*---------------------------------------------------------------------------*/
FoamFile
{
    format      ascii;
    class       volScalarField;
    location    "18.96";
    object      p_rgh;
}
// * * * * * * * * * * * * * * * * * * * * * * * * * * * * * * * * * * * * * //

dimensions      [1 -1 -2 0 0 0 0];

internalField   nonuniform List<scalar> 
3829
(
-3.31065
-3.30944
-3.30699
-3.30323
-3.29811
-3.29157
-3.28353
-3.27392
-3.26264
-3.24962
-3.23474
-3.21793
-3.19906
-3.17803
-3.15474
-3.1291
-3.10099
-3.07033
-3.03704
-3.00104
-2.9623
-2.92076
-2.87641
-2.82925
-2.77931
-2.72664
-2.67133
-2.61347
-2.5532
-2.49068
-2.4261
-2.35969
-2.29167
-2.22234
-2.15197
-2.08087
-2.00937
-1.93781
-1.86655
-1.79594
-1.72637
-1.65843
-1.59228
-1.52828
-1.46676
-1.40802
-1.35233
-1.29996
-1.25111
-1.20596
-1.16465
-1.12729
-1.09394
-1.06463
-1.03935
-1.01804
-1.00061
-0.986905
-0.976715
-0.96978
-0.965786
-0.964372
-0.965131
-0.967613
-0.971328
-0.975751
-0.980326
-0.984506
-0.98765
-0.989212
-0.988616
-0.9853
-0.978736
-0.968433
-0.953957
-0.93495
-0.91114
-0.88239
-0.848004
-0.808258
-0.76339
-0.713674
-0.659454
-0.601169
-0.539366
-0.474717
-0.408021
-0.340134
-0.272329
-0.205568
-0.140975
-0.079712
-0.0229543
0.0281738
0.072593
0.109324
0.137543
0.156595
0.166059
0.164667
0.152899
0.131231
0.100267
0.0607873
0.0138275
-0.0392632
-0.0968804
-0.157225
-0.218327
-0.277916
-0.333936
-0.384224
-0.426757
-0.459701
-0.481498
-0.49102
-0.487598
-0.469848
-0.438753
-0.395437
-0.341311
-0.278237
-0.208682
-0.135478
-0.0617866
0.00869414
0.0727435
0.127047
0.168595
0.194879
0.204062
0.195037
0.167407
0.123134
0.0645853
-0.00517597
-0.0821835
-0.162515
-0.238979
-0.307227
-0.362411
-0.400287
-0.417683
-0.412691
-0.383307
-0.332044
-0.261998
-0.177519
-0.0840671
0.0121505
0.10193
0.179266
0.237779
0.272526
0.280673
0.260023
0.213761
0.146197
0.0633903
-0.0524735
-0.13816
-0.210972
-0.263294
-0.28947
-0.286875
-0.255373
-0.20049
-0.129893
-0.0538709
0.0355819
0.0904091
0.121761
0.123101
0.0928215
0.0344181
-0.0433334
-0.129632
-0.211222
-0.270861
-0.300134
-0.292814
-0.246082
-0.169063
-0.0724327
0.034692
0.118285
0.170166
0.181424
0.144138
0.0687331
-0.0322431
-0.156642
-0.244454
-0.29198
-0.291478
-0.242509
-0.156236
-0.0556177
0.0334086
0.0861692
-3.41891
-3.41803
-3.41622
-3.41341
-3.40954
-3.4045
-3.39817
-3.39043
-3.38112
-3.37009
-3.35716
-3.34215
-3.32489
-3.30518
-3.28285
-3.25774
-3.22965
-3.19841
-3.16385
-3.12583
-3.08423
-3.03896
-2.98996
-2.93722
-2.88079
-2.82072
-2.75714
-2.69019
-2.62006
-2.54697
-2.47118
-2.39298
-2.31272
-2.23079
-2.14761
-2.06358
-1.97917
-1.8948
-1.81089
-1.72777
-1.64785
-1.5703
-1.49564
-1.42423
-1.3564
-1.29249
-1.23278
-1.17752
-1.12695
-1.08123
-1.04053
-1.00492
-0.974481
-0.949199
-0.929031
-0.913864
-0.903533
-0.897818
-0.896434
-0.899021
-0.905159
-0.914366
-0.926099
-0.93977
-0.954746
-0.970353
-0.985887
-1.00063
-1.01384
-1.02478
-1.03275
-1.03703
-1.03697
-1.03195
-1.02145
-1.00499
-0.982231
-0.952815
-0.916517
-0.873454
-0.823809
-0.767853
-0.706017
-0.63886
-0.56714
-0.491754
-0.413732
-0.332537
-0.252768
-0.174011
-0.0977088
-0.025338
0.0416265
0.101773
0.153745
0.196329
0.228475
0.249335
0.258298
0.254408
0.238034
0.209584
0.169695
0.119327
0.0598068
-0.00717063
-0.0796099
-0.155288
-0.231688
-0.306144
-0.376053
-0.438757
-0.491761
-0.532781
-0.559961
-0.57179
-0.567299
-0.545738
-0.507868
-0.45478
-0.388217
-0.310611
-0.225027
-0.134902
-0.0442524
0.042363
0.121083
0.187879
0.239175
0.272054
0.284153
0.27085
0.235651
0.180392
0.107683
0.0212125
-0.0743669
-0.175475
-0.270304
-0.354763
-0.423063
-0.470061
-0.491798
-0.485941
-0.451004
-0.389266
-0.304331
-0.201699
-0.0881583
0.0285652
0.137287
0.230583
0.300627
0.34132
0.349046
0.322459
0.264618
0.180933
0.0790928
-0.0620387
-0.166428
-0.254713
-0.317456
-0.347572
-0.341666
-0.300606
-0.230065
-0.139442
-0.0402986
0.0583121
0.130682
0.171869
0.174686
0.137102
0.0647104
-0.0318972
-0.139211
-0.240127
-0.314473
-0.351192
-0.342222
-0.286342
-0.192915
-0.0752102
0.0547025
0.156143
0.218671
0.230735
0.186584
0.0971259
-0.0205609
-0.184292
-0.285392
-0.340693
-0.33847
-0.27575
-0.168894
-0.0442403
0.0661621
0.131675
-3.59294
-3.59308
-3.59333
-3.59359
-3.59375
-3.59362
-3.593
-3.59162
-3.58921
-3.58547
-3.58006
-3.57256
-3.56253
-3.54953
-3.53311
-3.51282
-3.48824
-3.45893
-3.42452
-3.38469
-3.33917
-3.28776
-3.23034
-3.16689
-3.09746
-3.02221
-2.94137
-2.85527
-2.76433
-2.66904
-2.56996
-2.46769
-2.3629
-2.25627
-2.14851
-2.04031
-1.93242
-1.82562
-1.7207
-1.61854
-1.51772
-1.42145
-1.32946
-1.24241
-1.16091
-1.08544
-1.01645
-0.954275
-0.899213
-0.851476
-0.811215
-0.778512
-0.753379
-0.735754
-0.725495
-0.722358
-0.726004
-0.735999
-0.751838
-0.772936
-0.79865
-0.828254
-0.860958
-0.895906
-0.932203
-0.968903
-1.00503
-1.03958
-1.07153
-1.09989
-1.12368
-1.14194
-1.1538
-1.15845
-1.15517
-1.1433
-1.12232
-1.0914
-1.05081
-1.0007
-0.941267
-0.872879
-0.796106
-0.711761
-0.620859
-0.52459
-0.424348
-0.321644
-0.218508
-0.116667
-0.0180351
0.0753937
0.161634
0.238743
0.30491
0.358462
0.397959
0.422215
0.430355
0.421673
0.396415
0.35496
0.298115
0.227211
0.144076
0.0510347
-0.0491878
-0.153554
-0.258632
-0.360864
-0.456693
-0.542511
-0.614914
-0.670876
-0.707768
-0.72368
-0.717433
-0.68839
-0.637283
-0.565481
-0.475345
-0.370283
-0.254527
-0.132787
-0.0106052
0.106059
0.211881
0.301514
0.37035
0.415012
0.433764
0.411223
0.361706
0.286076
0.187252
0.0701801
-0.0591504
-0.201963
-0.330238
-0.44443
-0.536968
-0.600881
-0.630762
-0.623212
-0.577442
-0.495703
-0.382636
-0.245933
-0.0947867
0.0601589
0.204187
0.327115
0.418384
0.469903
0.476735
0.438295
0.358129
0.243929
0.106624
-0.0813082
-0.2203
-0.337463
-0.419653
-0.457125
-0.445086
-0.385669
-0.285995
-0.159219
-0.0213149
0.109311
0.20966
0.267473
0.273151
0.2207
0.121353
-0.0107677
-0.157478
-0.294582
-0.396415
-0.447128
-0.435472
-0.361809
-0.237239
-0.0799228
0.0921596
0.226961
0.309362
0.323308
0.264916
0.146477
-0.0080025
-0.22748
-0.358529
-0.430249
-0.426474
-0.337967
-0.192432
-0.0229283
0.127568
0.217107
-3.73778
-3.74071
-3.74656
-3.75522
-3.76649
-3.78002
-3.79533
-3.81179
-3.82863
-3.84501
-3.86004
-3.87286
-3.8826
-3.88832
-3.88897
-3.88355
-3.87105
-3.85057
-3.82128
-3.78248
-3.73363
-3.67436
-3.6045
-3.52408
-3.43334
-3.33273
-3.22289
-3.1046
-2.97874
-2.8462
-2.70794
-2.56507
-2.4188
-2.27039
-2.12109
-1.97217
-1.8248
-1.68012
-1.53911
-1.40251
-1.27066
-1.14693
-1.03215
-0.92645
-0.83008
-0.743341
-0.666527
-0.599912
-0.543729
-0.498146
-0.463268
-0.439091
-0.425532
-0.422379
-0.429329
-0.445988
-0.471831
-0.50621
-0.548381
-0.597489
-0.652579
-0.712592
-0.776393
-0.842758
-0.910313
-0.977907
-1.04408
-1.10741
-1.1665
-1.21995
-1.26641
-1.30459
-1.33328
-1.35144
-1.35818
-1.35288
-1.33501
-1.3002
-1.25261
-1.19174
-1.11764
-1.03073
-0.931845
-0.822134
-0.703038
-0.576252
-0.443765
-0.307786
-0.170847
-0.0354576
0.0956584
0.21976
0.334053
0.435869
0.522697
0.592213
0.642416
0.671658
0.678641
0.662907
0.624512
0.563912
0.482228
0.381366
0.263867
0.132972
-0.00754236
-0.153477
-0.300067
-0.442476
-0.575729
-0.694873
-0.795311
-0.872808
-0.923771
-0.945489
-0.936198
-0.895784
-0.824928
-0.725512
-0.600873
-0.455775
-0.296121
-0.128507
0.0393275
0.199322
0.343881
0.465587
0.557844
0.615596
0.635922
0.607462
0.540514
0.436723
0.300924
0.140666
-0.0346533
-0.244164
-0.417871
-0.574266
-0.701745
-0.79016
-0.831801
-0.821879
-0.76012
-0.64895
-0.494957
-0.308817
-0.103156
0.107036
0.301939
0.467514
0.589184
0.656015
0.661152
0.604617
0.491063
0.33175
0.142856
-0.109976
-0.299168
-0.458447
-0.568868
-0.616786
-0.59591
-0.509333
-0.36712
-0.187936
0.00594522
0.186326
0.326237
0.407319
0.419369
0.342043
0.203246
0.0197308
-0.184308
-0.373876
-0.515489
-0.586392
-0.571105
-0.471246
-0.301112
-0.0862183
0.146464
0.32962
0.440791
0.457763
0.377242
0.213976
-0.000862402
-0.280041
-0.460698
-0.557426
-0.554937
-0.426963
-0.226214
0.00777476
0.21672
0.34152
-3.7837
-3.79223
-3.80941
-3.83512
-3.86901
-3.91043
-3.9587
-4.01288
-4.07159
-4.13298
-4.19498
-4.25507
-4.31074
-4.3593
-4.39839
-4.42589
-4.44002
-4.43917
-4.42217
-4.38809
-4.33617
-4.26595
-4.17725
-4.07027
-3.94562
-3.80432
-3.64774
-3.47753
-3.29548
-3.1035
-2.90385
-2.69878
-2.49055
-2.2813
-2.07305
-1.86764
-1.66676
-1.47199
-1.28484
-1.10696
-0.940293
-0.785763
-0.642632
-0.512136
-0.395194
-0.292503
-0.204576
-0.131763
-0.0742799
-0.0322279
-0.00555595
0.00589139
0.00243676
-0.0154593
-0.0471924
-0.0920065
-0.149019
-0.217238
-0.295545
-0.382707
-0.477372
-0.578059
-0.683198
-0.791088
-0.899971
-1.00803
-1.11339
-1.21413
-1.30833
-1.39406
-1.46951
-1.53294
-1.58263
-1.61706
-1.63488
-1.63487
-1.61608
-1.58003
-1.52447
-1.4496
-1.35589
-1.24417
-1.11572
-0.972181
-0.815576
-0.648268
-0.473026
-0.292871
-0.111234
0.0683909
0.24232
0.406771
0.55792
0.69218
0.806074
0.896451
0.960602
0.996281
1.00158
0.976531
0.920742
0.834826
0.720419
0.580172
0.417599
0.237076
0.0437889
-0.156588
-0.357426
-0.552229
-0.734273
-0.896819
-1.03356
-1.13872
-1.20766
-1.23671
-1.22307
-1.16748
-1.07024
-0.934171
-0.764023
-0.566286
-0.348982
-0.12099
0.10666
0.323222
0.518281
0.681473
0.80361
0.876897
0.895628
0.862216
0.773059
0.632133
0.447039
0.228481
-0.0100226
-0.293452
-0.52943
-0.742504
-0.916338
-1.03705
-1.09415
-1.08103
-0.99801
-0.848014
-0.640307
-0.389417
-0.112397
0.169843
0.430934
0.65176
0.812722
0.898931
0.901184
0.820041
0.661721
0.441572
0.180879
-0.144086
-0.402755
-0.618242
-0.765713
-0.827073
-0.794091
-0.671201
-0.472734
-0.224519
0.0430804
0.28968
0.480623
0.588489
0.595053
0.497798
0.309893
0.0593308
-0.219716
-0.478083
-0.671818
-0.769077
-0.749176
-0.614278
-0.384156
-0.0936818
0.217645
0.463984
0.612772
0.6334
0.523011
0.300126
0.00557927
-0.347398
-0.592721
-0.719353
-0.696517
-0.539895
-0.27022
0.0472805
0.333443
0.505244
-3.51253
-3.53227
-3.57189
-3.63125
-3.70978
-3.80588
-3.91775
-4.04146
-4.17407
-4.31179
-4.45135
-4.58915
-4.72209
-4.84714
-4.95993
-5.05689
-5.13437
-5.18881
-5.21663
-5.21441
-5.17915
-5.10874
-5.00231
-4.86049
-4.68524
-4.47938
-4.24649
-3.99074
-3.71682
-3.4296
-3.13381
-2.83382
-2.53348
-2.23612
-1.94467
-1.66169
-1.38945
-1.1298
-0.884316
-0.654149
-0.441118
-0.24837
-0.0764412
0.0752973
0.206967
0.318433
0.409555
0.480204
0.530362
0.560138
0.569782
0.559688
0.530395
0.482589
0.417102
0.334943
0.237312
0.125564
0.00120867
-0.134092
-0.278522
-0.430088
-0.586691
-0.746091
-0.905954
-1.06385
-1.21732
-1.36382
-1.50086
-1.62591
-1.73658
-1.83052
-1.90562
-1.95986
-1.99142
-1.9989
-1.98109
-1.93906
-1.8711
-1.77721
-1.65797
-1.51455
-1.34869
-1.16261
-0.959043
-0.74113
-0.512586
-0.277472
-0.0403432
0.194124
0.42106
0.635386
0.832066
1.00631
1.15353
1.26954
1.35074
1.39413
1.39746
1.36062
1.28304
1.16563
1.01065
0.821693
0.603435
0.36169
0.103322
-0.164029
-0.431665
-0.690893
-0.932783
-1.1484
-1.32935
-1.46831
-1.55869
-1.59591
-1.57719
-1.50219
-1.3719
-1.1902
-0.963503
-0.700472
-0.411811
-0.109562
0.191961
0.478342
0.735756
0.950212
1.10954
1.20346
1.22371
1.17994
1.06087
0.872541
0.625019
0.332056
0.0100848
-0.345596
-0.663861
-0.948519
-1.17986
-1.34024
-1.4161
-1.39926
-1.28958
-1.09141
-0.817293
-0.486649
-0.121836
0.248783
0.590957
0.879259
1.08789
1.19702
1.1954
1.08306
0.868791
0.573183
0.223762
-0.188837
-0.532811
-0.817347
-1.01001
-1.08725
-1.03887
-0.870414
-0.602023
-0.268121
0.091316
0.420086
0.673763
0.814793
0.817165
0.691601
0.441882
0.108129
-0.263667
-0.606911
-0.864956
-0.994572
-0.968597
-0.789903
-0.485671
-0.101984
0.305398
0.629269
0.824056
0.849742
0.701479
0.405102
0.0138347
-0.432715
-0.755861
-0.920994
-0.890838
-0.681557
-0.325458
0.0948426
0.476933
0.708596
-2.84758
-2.9023
-3.00017
-3.14218
-3.32879
-3.55713
-3.82467
-4.12365
-4.44513
-4.77659
-5.1078
-5.43683
-5.75958
-6.08303
-6.33733
-6.53755
-6.68274
-6.77168
-6.80348
-6.77767
-6.69464
-6.55495
-6.36023
-6.11023
-5.81114
-5.46512
-5.08037
-4.66664
-4.23681
-3.79936
-3.36104
-2.92777
-2.50443
-2.09488
-1.70206
-1.32818
-0.975193
-0.64502
-0.339717
-0.0615984
0.187049
0.413156
0.613727
0.787584
0.934219
1.05351
1.14548
1.21033
1.24838
1.2601
1.24609
1.20707
1.14393
1.05773
0.949675
0.821151
0.673722
0.509139
0.329363
0.136512
-0.0670818
-0.278867
-0.496175
-0.716115
-0.935706
-1.15189
-1.36146
-1.56124
-1.74797
-1.91849
-2.06977
-2.1988
-2.30277
-2.37938
-2.42635
-2.44192
-2.42439
-2.37413
-2.2901
-2.1724
-2.02187
-1.84005
-1.62917
-1.3921
-1.13239
-0.854177
-0.562235
-0.261824
0.0411039
0.34056
0.630199
0.903458
1.15387
1.3752
1.56159
1.70764
1.80874
1.861
1.8619
1.81085
1.70724
1.55242
1.34942
1.10285
0.818773
0.504836
0.169859
-0.176667
-0.52277
-0.857661
-1.16973
-1.44752
-1.68039
-1.85863
-1.97415
-2.02073
-1.9949
-1.89634
-1.72657
-1.49064
-1.19689
-0.85658
-0.483654
-0.0935614
0.295098
0.663895
0.994803
1.27
1.47376
1.59343
1.61962
1.55864
1.40177
1.15608
0.83422
0.453898
0.0362826
-0.411724
-0.82383
-1.1919
-1.49052
-1.69716
-1.79467
-1.77309
-1.63154
-1.37622
-1.02362
-0.598874
-0.130917
0.343339
0.780768
1.148
1.41211
1.54755
1.54063
1.3907
1.11
0.725187
0.27191
-0.246213
-0.689605
-1.05474
-1.29999
-1.39531
-1.3278
-1.10486
-0.753426
-0.317768
0.150985
0.577084
0.905001
1.08639
1.09055
0.923276
0.598336
0.165795
-0.316111
-0.759308
-1.09291
-1.26026
-1.22705
-0.996106
-0.6043
-0.110885
0.408899
0.823719
1.0725
1.1039
0.910427
0.52752
0.023352
-0.535126
-0.948867
-1.1599
-1.12254
-0.849294
-0.391428
0.148652
0.64587
0.950602
-1.29138
-1.35636
-1.50244
-1.73374
-2.07283
-2.47874
-2.95352
-3.48487
-4.05808
-4.62842
-5.19314
-5.72266
-6.18984
-6.5595
-6.8808
-7.19193
-7.47138
-7.69711
-7.85511
-7.93484
-7.92925
-7.83333
-7.64374
-7.35839
-6.97996
-6.50964
-5.95742
-5.35248
-4.72449
-4.09375
-3.47697
-2.88166
-2.31247
-1.77214
-1.26354
-0.788999
-0.349854
0.0536914
0.423373
0.764051
1.04041
1.28344
1.49417
1.67224
1.81747
1.92999
2.00984
2.05736
2.07297
2.05725
2.01089
1.93472
1.8298
1.69735
1.53883
1.35593
1.15059
0.924967
0.681464
0.422737
0.151639
-0.128678
-0.414892
-0.703428
-0.990584
-1.27251
-1.5453
-1.80498
-2.04748
-2.26884
-2.46528
-2.63319
-2.76914
-2.87008
-2.93335
-2.95666
-2.93832
-2.87804
-2.77494
-2.62931
-2.44231
-2.21591
-1.95297
-1.65714
-1.33288
-0.985448
-0.620864
-0.245764
0.132364
0.50599
0.867103
1.2075
1.51904
1.79391
2.02471
2.20472
2.32811
2.39026
2.38817
2.32058
2.18702
1.98936
1.73143
1.41911
1.06
0.663739
0.241532
-0.194646
-0.629935
-1.05069
-1.44235
-1.79061
-2.08205
-2.30438
-2.44784
-2.50486
-2.47033
-2.34429
-2.129
-1.83095
-1.46057
-1.03217
-0.563296
-0.0726817
0.415013
0.877449
1.29187
1.63619
1.89073
2.03973
2.07241
1.99099
1.79008
1.47833
1.07165
0.592248
0.066567
-0.49021
-1.00768
-1.46981
-1.84437
-2.10314
-2.22481
-2.19724
-2.0188
-1.69809
-1.25598
-0.724093
-0.139247
0.45258
0.997867
1.4544
1.78082
1.9456
1.93189
1.7384
1.38151
0.894858
0.323716
-0.315433
-0.871382
-1.32765
-1.63197
-1.74681
-1.65676
-1.37114
-0.924656
-0.37269
0.222071
0.759156
1.17124
1.39845
1.40374
1.18827
0.776672
0.230963
-0.376275
-0.933226
-1.3525
-1.56244
-1.5206
-1.22976
-0.738023
-0.120162
0.526786
1.04465
1.35466
1.39209
1.14658
0.665244
0.0334222
-0.652972
-1.16892
-1.4318
-1.38488
-1.0394
-0.466952
0.206665
0.837952
1.2286
1.04088
0.901109
0.620979
0.201864
-0.334773
-1.03288
-1.89267
-3.22512
-4.25327
-5.27014
-6.29129
-7.25482
-8.15933
-9.00247
-9.80591
-10.5088
-11.0003
-11.32
-11.4851
-11.5005
-11.3672
-11.0855
-10.6573
-10.0825
-9.36926
-8.52743
-7.40971
-6.34379
-5.29962
-4.32074
-3.41614
-2.59155
-1.84321
-1.16609
-0.553498
0.000722118
0.497525
0.938829
1.32447
1.65076
1.97175
2.24482
2.47159
2.65495
2.79695
2.89884
2.96177
2.9865
2.97384
2.92454
2.83951
2.71979
2.56663
2.38149
2.16608
1.92237
1.65262
1.35941
1.0456
0.714338
0.369078
0.0136035
-0.348054
-0.711584
-1.0725
-1.42615
-1.76779
-2.09258
-2.39562
-2.6721
-2.91744
-3.12726
-3.29739
-3.42412
-3.50434
-3.53507
-3.51485
-3.44242
-3.31725
-3.13988
-2.91178
-2.63538
-2.31423
-1.95283
-1.5567
-1.1323
-0.687061
-0.229137
0.232303
0.688003
1.12813
1.54265
1.92161
2.25548
2.53513
2.75236
2.90019
2.97306
2.96734
2.8811
2.71414
2.46883
2.14998
1.76477
1.32269
0.835431
0.316775
-0.218223
-0.751924
-1.26726
-1.74652
-2.17211
-2.52753
-2.79818
-2.97177
-3.03938
-2.99514
-2.83831
-2.57224
-2.20515
-1.74987
-1.22392
-0.648693
-0.047422
0.549633
1.11536
1.62183
2.04216
2.35253
2.53365
2.57272
2.4684
2.21838
1.83332
1.33278
0.743896
0.0988843
-0.578693
-1.21223
-1.77776
-2.23564
-2.55146
-2.69936
-2.66442
-2.44463
-2.05142
-1.51025
-0.859992
-0.146297
0.574988
1.23881
1.79333
2.18787
2.38455
2.36233
2.12005
1.67844
1.07927
0.37805
-0.395882
-1.07539
-1.63164
-2.00058
-2.13643
-2.02022
-1.66455
-1.11282
-0.432423
0.30427
0.96336
1.46769
1.74482
1.75026
1.48146
0.973463
0.302521
-0.443572
-1.12589
-1.63954
-1.89632
-1.8442
-1.48678
-0.884459
-0.129521
0.657215
1.28837
1.66528
1.70898
1.40573
0.815663
0.0435312
-0.784063
-1.41198
-1.73138
-1.67278
-1.24784
-0.550159
0.266142
1.06685
1.52219
5.18028
4.98573
4.58917
3.96907
3.10676
1.93475
0.444164
-1.5062
-4.00071
-6.11413
-7.87281
-9.3285
-10.5169
-11.4712
-12.2336
-12.8248
-13.3672
-13.7919
-14.0622
-14.1616
-14.0804
-13.8132
-13.3672
-12.7142
-11.8358
-10.6813
-9.09278
-6.84078
-5.22289
-3.8811
-2.71722
-1.78722
-0.95669
-0.228113
0.414487
1.04374
1.5873
2.05924
2.47175
2.83787
3.13072
3.37838
3.5839
3.74703
3.86773
3.94603
3.98209
3.9762
3.92872
3.84023
3.7115
3.54351
3.33754
3.09514
2.81819
2.50889
2.16991
1.80417
1.41503
1.00618
0.58165
0.145905
-0.296268
-0.739763
-1.17927
-1.60928
-2.02413
-2.41808
-2.78533
-3.12014
-3.41711
-3.67102
-3.87694
-4.03056
-4.12812
-4.16662
-4.1427
-4.05616
-3.90639
-3.69407
-3.42099
-3.0901
-2.70567
-2.27315
-1.79916
-1.2915
-0.759115
-0.211774
0.339529
0.883681
1.40886
1.90313
2.35451
2.75163
3.08363
3.34073
3.51465
3.59875
3.58874
3.48208
3.27881
2.98193
2.59732
2.13351
1.60194
1.0168
0.394559
-0.247439
-0.886668
-1.50349
-2.07659
-2.58491
-3.00884
-3.33098
-3.53645
-3.61466
-3.55953
-3.3692
-3.04815
-2.60634
-2.05929
-1.42799
-0.73816
-0.0182777
0.696578
1.37329
1.97859
2.48033
2.85017
3.06529
3.11043
2.98143
2.6783
2.21414
1.61241
0.905389
0.13208
-0.675274
-1.43366
-2.1101
-2.65717
-3.03387
-3.20933
-3.16584
-2.90115
-2.42954
-1.78168
-1.00403
-0.151697
0.708362
1.49922
2.1585
2.62581
2.85601
2.82397
2.52863
1.99535
1.27464
0.433358
-0.485717
-1.29776
-1.96112
-2.39894
-2.5565
-2.41127
-1.97956
-1.31436
-0.495944
0.396277
1.18601
1.78879
2.11903
2.12343
1.79716
1.18481
0.378707
-0.516684
-1.33383
-1.94883
-2.2556
-2.19187
-1.7624
-1.04084
-0.1387
0.797812
1.55031
1.99883
2.0487
1.68305
0.975752
0.0534273
-0.925856
-1.6734
-2.05311
-1.98073
-1.47037
-0.638421
0.34062
1.30653
1.83223
10.8059
10.5751
10.0964
9.32647
8.20191
6.65555
4.51995
1.94016
-1.62726
-4.63347
-7.27723
-9.67265
-11.8301
-13.7305
-15.3307
-16.5861
-17.513
-18.1509
-18.5198
-18.6244
-18.4585
-18.0001
-17.2166
-16.0675
-14.5705
-12.7684
-10.6197
-6.49939
-4.54917
-3.00503
-1.7655
-0.519151
0.471845
1.30325
2.01258
2.48464
2.93016
3.33722
3.70083
4.01416
4.29803
4.53733
4.72927
4.87459
4.97365
5.02657
5.03343
4.99431
4.90938
4.77904
4.60393
4.38499
4.12349
3.82106
3.47973
3.10197
2.69073
2.24936
1.7817
1.29198
0.784867
0.265499
-0.260522
-0.787273
-1.30858
-1.81802
-2.30901
-2.77484
-3.20874
-3.60402
-3.95438
-4.2537
-4.49629
-4.67719
-4.79212
-4.83746
-4.80902
-4.70689
-4.53058
-4.28085
-3.95982
-3.57101
-3.11945
-2.6116
-2.05527
-1.45964
-0.835287
-0.193617
0.452387
1.08967
1.70434
2.28242
2.80988
3.27337
3.66024
3.95907
4.16016
4.25582
4.24083
4.11229
3.87054
3.51916
3.06503
2.51837
1.89255
1.20435
0.473044
-0.281243
-1.03137
-1.7547
-2.42622
-3.0213
-3.51696
-3.89273
-4.13146
-4.22047
-4.15305
-3.92705
-3.54776
-3.02696
-2.38303
-1.64074
-0.83027
0.0144011
0.853079
1.64636
2.35537
2.94236
3.3742
3.62447
3.67537
3.52022
3.16107
2.61354
1.90508
1.07353
0.165566
-0.778316
-1.66782
-2.46056
-3.10099
-3.54118
-3.74505
-3.6921
-3.37983
-2.82538
-2.06516
-1.15351
-0.155463
0.850264
1.77421
2.5431
3.08641
3.35111
3.30818
2.95648
2.32627
1.47721
0.488581
-0.582999
-1.53419
-2.30985
-2.81966
-2.99936
-2.82265
-2.31008
-1.52551
-0.563546
0.497946
1.42292
2.12825
2.51382
2.51637
2.12933
1.4066
0.457566
-0.593964
-1.55318
-2.2746
-2.63359
-2.55718
-2.05142
-1.20396
-0.147601
0.945898
1.8255
2.3491
2.40502
1.97341
1.14232
0.0629063
-1.07557
-1.94822
-2.39102
-2.30307
-1.70272
-0.730747
0.440436
1.54109
2.15337
17.3188
17.1915
16.9441
16.5909
16.1826
15.7619
15.6106
15.1876
-0.313242
0.184565
0.587376
1.21525
1.7195
2.27288
2.78271
3.27605
3.79331
4.23888
4.6291
4.97074
5.26699
5.52229
5.73659
5.9017
6.02054
6.09262
6.11687
6.09239
6.01856
5.89508
5.72195
5.49955
5.22868
4.91057
4.54692
4.13993
3.69228
3.20726
2.68867
2.1408
1.56846
0.976977
0.372126
-0.239577
-0.851401
-1.45627
-2.04686
-2.61558
-3.15477
-3.65662
-4.11346
-4.51806
-4.8634
-5.14294
-5.35101
-5.48289
-5.53555
-5.50072
-5.38197
-5.17776
-4.88892
-4.51791
-4.06884
-3.54758
-2.9616
-2.31999
-1.63332
-0.913836
-0.174674
0.569084
1.30246
2.00942
2.67385
3.27965
3.81143
4.25468
4.59631
4.82516
4.93241
4.91188
4.76049
4.47876
4.07093
3.54481
2.91248
2.18935
1.39476
0.551061
-0.318871
-1.18324
-2.01624
-2.78903
-3.4733
-4.04259
-4.47326
-4.74592
-4.84575
-4.76501
-4.50179
-4.06201
-3.45944
-2.71535
-1.85849
-0.923893
0.050213
1.01622
1.92947
2.74511
3.41968
3.9151
4.20112
4.2573
4.075
3.65793
3.02421
2.20537
1.2455
0.198723
-0.886101
-1.91042
-2.82271
-3.55902
-4.06422
-4.29696
-4.23381
-3.8721
-3.23189
-2.35554
-1.30582
-0.157618
0.998026
2.0587
2.94018
3.56128
3.86111
3.80638
3.39603
2.66526
1.68325
0.543051
-0.685806
-1.78017
-2.67138
-3.25506
-3.45744
-3.24686
-2.64989
-1.74213
-0.634707
0.607888
1.66931
2.47955
2.92189
2.92198
2.47187
1.63477
0.538414
-0.674829
-1.78001
-2.61096
-3.02354
-2.93363
-2.34869
-1.37081
-0.156036
1.09875
2.10898
2.70974
2.77162
2.27168
1.31261
0.0714864
-1.23037
-2.23134
-2.73903
-2.63417
-1.94056
-0.826931
0.549097
1.78085
2.48094
24.2265
24.1923
24.129
24.0417
23.9474
23.8364
23.6953
23.4181
2.13968
2.48266
2.7719
3.12404
3.61059
4.00542
4.40723
4.81372
5.21005
5.58111
5.91987
6.22439
6.49131
6.71826
6.90242
7.0469
7.14452
7.19286
7.19046
7.13603
7.02854
6.86729
6.65199
6.38281
6.0604
5.68597
5.26127
4.78867
4.2711
3.7122
3.11619
2.48787
1.83264
1.15645
0.4657
-0.232071
-0.92936
-1.6182
-2.2903
-2.93712
-3.54995
-4.11998
-4.63854
-5.09741
-5.48869
-5.80493
-6.03959
-6.18672
-6.24024
-6.20415
-6.06918
-5.83641
-5.50746
-5.08532
-4.57473
-3.98242
-3.3169
-2.58855
-1.80933
-0.993172
-0.155166
0.687793
1.51858
2.31905
3.0709
3.75594
4.35677
4.85698
5.24173
5.49846
5.61708
5.59071
5.41594
5.09343
4.62807
4.02882
3.30941
2.48753
1.58504
0.627433
-0.359426
-1.3395
-2.2835
-3.15872
-3.93308
-4.57665
-5.06266
-5.36931
-5.47984
-5.38513
-5.08368
-4.58229
-3.89655
-3.05075
-2.07767
-1.01746
0.0882522
1.18303
2.21764
3.14109
3.9041
4.46364
4.78551
4.84646
4.63647
4.16049
3.43919
2.50825
1.41845
0.231077
-0.996826
-2.15732
-3.19045
-4.02359
-4.5943
-4.8559
-4.78197
-4.36978
-3.64236
-2.64804
-1.45854
-0.158222
1.14892
2.34774
3.34293
4.04244
4.37746
4.31032
3.84003
3.00677
1.88956
0.595821
-0.792066
-2.03125
-3.03936
-3.6976
-3.92283
-3.67668
-2.99307
-1.96026
-0.711754
0.7275
1.9203
2.83639
3.33621
3.33345
2.81898
1.86542
0.619174
-0.757224
-2.01039
-2.95217
-3.41885
-3.31493
-2.64933
-1.5386
-0.163766
1.25372
2.39596
3.07469
3.14247
2.57301
1.4835
0.0792168
-1.38748
-2.51791
-3.09133
-2.96864
-2.17961
-0.927816
0.66431
2.02364
2.81015
30.3127
30.2833
30.2214
30.1171
29.9759
29.803
29.6708
29.4963
4.18169
4.36699
4.55764
4.81652
5.13208
5.47782
5.81775
6.1684
6.5107
6.83808
7.14229
7.41854
7.66197
7.8686
8.03475
8.15785
8.23371
8.25924
8.23185
8.14935
8.01006
7.8128
7.55695
7.24245
6.86984
6.44033
5.95572
5.41858
4.8321
4.2003
3.52784
2.82002
2.08281
1.32281
0.546976
-0.23599
-1.0179
-1.7899
-2.54275
-3.2669
-3.95267
-4.59017
-5.16975
-5.68223
-6.11879
-6.47116
-6.73212
-6.8953
-6.95551
-6.91118
-6.75811
-6.49601
-6.12649
-5.6529
-5.08056
-4.41701
-3.6718
-2.85659
-1.98479
-1.072
-0.135241
0.806793
1.73478
2.6285
3.46751
4.23149
4.90105
5.4579
5.88549
6.16978
6.29953
6.26708
6.06872
5.70528
5.18227
4.50985
3.70337
2.78278
1.77255
0.701164
-0.401911
-1.49751
-2.55212
-3.52937
-4.39336
-5.11079
-5.65174
-5.99192
-6.11286
-6.00387
-5.66384
-5.1007
-4.33172
-3.38421
-2.2951
-1.10922
0.127432
1.35067
2.50624
3.53707
4.38808
5.01128
5.36861
5.4339
5.19609
4.66114
3.85213
2.80918
1.58976
0.262163
-1.1086
-2.40458
-3.55806
-4.48757
-5.1233
-5.41335
-5.3283
-4.8654
-4.05064
-2.93832
-1.60923
-0.15762
1.30035
2.63678
3.7451
4.5225
4.89224
4.81237
4.28191
3.34586
2.0933
0.64603
-0.899691
-2.28326
-3.40792
-4.14025
-4.38844
-4.10542
-3.3343
-2.17562
-0.794789
0.855782
2.17089
3.19297
3.75029
3.74446
3.16539
2.09505
0.698278
-0.839579
-2.24069
-3.29295
-3.81341
-3.69529
-2.94883
-1.70504
-0.170416
1.4083
2.68202
3.4384
3.51198
2.87292
1.6526
0.0858449
-1.54432
-2.80347
-3.44261
-3.3015
-2.41606
-1.03069
0.783181
2.26496
3.13647
35.8005
35.7841
35.752
35.7052
35.6601
35.626
35.6422
35.6693
5.79459
5.90944
6.06369
6.25338
6.50533
6.79058
7.08403
7.39173
7.69768
7.99549
8.2762
8.53327
8.76049
8.95247
9.10433
9.2118
9.27102
9.27777
9.22869
9.12099
8.95247
8.72157
8.42737
8.06964
7.64884
7.16619
6.62358
6.02377
5.37026
4.66746
3.92044
3.13505
2.31782
1.47599
0.616947
-0.249277
-1.11392
-1.96724
-2.79907
-3.59888
-4.35596
-5.05943
-5.6986
-6.26338
-6.74405
-7.13154
-7.41796
-7.59651
-7.66165
-7.60992
-7.43853
-7.14706
-6.73719
-6.21261
-5.5792
-4.84524
-4.02133
-3.12038
-2.15727
-1.14931
-0.115014
0.924514
1.94816
2.9336
3.8583
4.69985
5.43693
6.04935
6.51891
6.83016
6.9707
6.93204
6.71019
6.30623
5.72624
4.98168
4.08938
3.07141
1.9551
0.771815
-0.445729
-1.65487
-2.81821
-3.8957
-4.84773
-5.63762
-6.23236
-6.60527
-6.7363
-6.61285
-6.23453
-5.61029
-4.75919
-3.71142
-2.50794
-1.19811
0.16702
1.51664
2.79118
3.92755
4.86497
5.55057
5.94252
6.01178
5.74637
5.15318
4.25755
3.10423
1.75717
0.29151
-1.21957
-2.64868
-3.9205
-4.94465
-5.64408
-5.9618
-5.86551
-5.35242
-4.45142
-3.22267
-1.75599
-0.156001
1.45009
2.92176
4.14117
4.99496
5.39855
5.30584
4.71587
3.67826
2.29183
0.693126
-1.00675
-2.53252
-3.7719
-4.57679
-4.84809
-4.52721
-3.66901
-2.38416
-0.870844
0.978815
2.41631
3.54426
4.15844
4.1494
3.50638
2.32066
0.774786
-0.920787
-2.46773
-3.62866
-4.20189
-4.06959
-3.24322
-1.86792
-0.17595
1.56025
2.9633
3.79601
3.87524
3.16754
1.81813
0.0909295
-1.69859
-3.08416
-3.78822
-3.62844
-2.64627
-1.11873
0.889002
2.50059
3.45613
40.7079
40.6993
40.683
40.6598
40.6405
40.6219
40.6241
40.6092
7.0656
7.147
7.28392
7.45102
7.66867
7.92383
8.193
8.47817
8.76489
9.04693
9.31502
9.56174
9.77992
9.96324
10.1059
10.2029
10.2495
10.2409
10.1735
10.0437
9.84869
9.58673
9.25667
8.85815
8.3916
7.85821
7.26002
6.60001
5.882
5.11078
4.29187
3.43161
2.53712
1.61631
0.676762
-0.269886
-1.21451
-2.14648
-3.05472
-3.92772
-4.75378
-5.52104
-6.21782
-6.83307
-7.35624
-7.77745
-8.08822
-8.28122
-8.35054
-8.29146
-8.10192
-7.78155
-7.33214
-6.7577
-6.06466
-5.26198
-4.36131
-3.3768
-2.32474
-1.22405
-0.0948504
1.03954
2.1562
3.23078
4.23871
5.1556
5.95819
6.62451
7.13473
7.47206
7.62299
7.57807
7.33317
6.88953
6.25396
5.43911
4.46323
3.35054
2.13097
0.839182
-0.490487
-1.80949
-3.07842
-4.25324
-5.29074
-6.15088
-6.79768
-7.20218
-7.34299
-7.205
-6.78925
-6.10535
-5.17419
-4.0288
-2.71386
-1.28327
0.206322
1.67882
3.06899
4.30789
5.32916
6.07521
6.50058
6.57354
6.28103
5.63102
4.65094
3.39018
1.91864
0.318894
-1.32811
-2.88664
-4.2735
-5.3895
-6.15063
-6.495
-6.3875
-5.82538
-4.84031
-3.4981
-1.89728
-0.153505
1.59624
3.19927
4.52652
5.45438
5.89062
5.7852
5.13707
4.00045
2.48314
0.736639
-1.11152
-2.77591
-4.12691
-5.00192
-5.29655
-4.93711
-3.99353
-2.5833
-0.928944
1.0849
2.65307
3.88617
4.5559
4.54356
3.83801
2.53972
0.848817
-1.00075
-2.68883
-3.95537
-4.57978
-4.43354
-3.5292
-2.02548
-0.180289
1.70766
3.23661
4.14346
4.22814
3.4536
1.97821
0.0945413
-1.84834
-3.35672
-4.12428
-3.94588
-2.868
-1.18987
0.979613
2.72764
3.76542
45.0737
45.0685
45.059
45.0445
45.0332
45.0191
45.0184
45.0025
8.12015
8.1813
8.30928
8.46553
8.66673
8.90656
9.16414
9.43937
9.71864
9.99527
10.2595
10.5033
10.7186
10.8985
11.0364
11.1266
11.1639
11.1443
11.0619
10.9128
10.6941
10.4037
10.0404
9.60368
9.09405
8.51266
7.86167
7.14433
6.36482
5.52829
4.64072
3.70891
2.74054
1.74418
0.727654
-0.295935
-1.31713
-2.32443
-3.30586
-4.24899
-5.14114
-5.9695
-6.72141
-7.38491
-7.94861
-8.40193
-8.73572
-8.94224
-9.01545
-8.94875
-8.74146
-8.39302
-7.90533
-7.28274
-6.53209
-5.66312
-4.6884
-3.62331
-2.48554
-1.29552
-0.0749442
1.15073
2.35685
3.51716
4.60507
5.59432
6.45983
7.17789
7.72709
8.08938
8.25023
8.19909
7.93181
7.4498
6.76063
5.87795
4.82161
3.61771
2.29869
0.902379
-0.534939
-1.95954
-3.33002
-4.59836
-5.71798
-6.64551
-7.34219
-7.77686
-7.92725
-7.77465
-7.32272
-6.58126
-5.5729
-4.3334
-2.91098
-1.36412
0.244771
1.8355
3.33688
4.67433
5.77612
6.58011
7.03745
7.11387
6.79505
6.09018
5.02866
3.66447
2.07271
0.344013
-1.43288
-3.11605
-4.61363
-5.81785
-6.63812
-7.00791
-6.88939
-6.27987
-5.21378
-3.76221
-2.03195
-0.150231
1.73721
3.46659
4.89741
5.89636
6.36376
6.24598
5.54162
4.30958
2.66571
0.776202
-1.21255
-3.01093
-4.4694
-5.41133
-5.72963
-5.33118
-4.30504
-2.77175
-0.970451
1.17455
2.8792
4.21547
4.93879
4.92309
4.15709
2.7502
0.919365
-1.07827
-2.90176
-4.26994
-4.94346
-4.78368
-3.8041
-2.1764
-0.183353
1.849
3.49936
4.47747
4.56736
3.72852
2.13144
0.0966717
-1.99199
-3.6186
-4.44765
-4.25095
-3.07986
-1.24681
1.05754
2.94431
4.06184
48.95
48.9462
48.9392
48.9277
48.9185
48.9054
48.9039
48.887
8.99235
9.04754
9.17229
9.32675
9.52263
9.75821
10.0135
10.2881
10.5683
10.8473
11.1145
11.3612
11.5786
11.7592
11.896
11.9828
12.0139
11.9864
11.8918
11.7261
11.4862