/*--------------------------------*- C++ -*----------------------------------*\
  =========                 |
  \\      /  F ield         | OpenFOAM: The Open Source CFD Toolbox
   \\    /   O peration     | Website:  https://openfoam.org
    \\  /    A nd           | Version:  12
     \\/     M anipulation  |
\*---------------------------------------------------------------------------*/
FoamFile
{
    format      ascii;
    class       volScalarField;
    location    "19.16";
    object      p;
}
// * * * * * * * * * * * * * * * * * * * * * * * * * * * * * * * * * * * * * //

dimensions      [1 -1 -2 0 0 0 0];

internalField   nonuniform List<scalar> 
3829
(
-617.868
-617.867
-617.864
-617.861
-617.856
-617.85
-617.842
-617.833
-617.822
-617.809
-617.795
-617.778
-617.76
-617.739
-617.716
-617.691
-617.663
-617.633
-617.6
-617.564
-617.525
-617.484
-617.439
-617.391
-617.34
-617.286
-617.229
-617.169
-617.105
-617.039
-616.969
-616.896
-616.821
-616.743
-616.663
-616.579
-616.494
-616.407
-616.318
-616.227
-616.136
-616.044
-615.952
-615.86
-615.768
-615.677
-615.586
-615.498
-615.411
-615.327
-615.245
-615.167
-615.092
-615.021
-614.954
-614.892
-614.834
-614.782
-614.735
-614.694
-614.659
-614.63
-614.607
-614.591
-614.58
-614.576
-614.577
-614.583
-614.594
-614.61
-614.63
-614.654
-614.68
-614.709
-614.739
-614.77
-614.801
-614.831
-614.859
-614.884
-614.906
-614.924
-614.937
-614.944
-614.945
-614.94
-614.927
-614.906
-614.878
-614.843
-614.801
-614.753
-614.699
-614.64
-614.577
-614.511
-614.444
-614.377
-614.311
-614.248
-614.19
-614.139
-614.094
-614.059
-614.034
-614.019
-614.017
-614.026
-614.047
-614.08
-614.123
-614.174
-614.233
-614.297
-614.365
-614.432
-614.497
-614.557
-614.61
-614.653
-614.684
-614.702
-614.706
-614.693
-614.666
-614.624
-614.57
-614.506
-614.436
-614.361
-614.286
-614.217
-614.155
-614.105
-614.071
-614.053
-614.054
-614.075
-614.113
-614.167
-614.232
-614.306
-614.382
-614.454
-614.518
-614.567
-614.597
-614.605
-614.589
-614.549
-614.488
-614.41
-614.321
-614.228
-614.14
-614.064
-614.006
-613.973
-613.967
-613.991
-614.04
-614.11
-614.195
-614.285
-614.37
-614.441
-614.491
-614.515
-614.51
-614.48
-614.43
-614.368
-614.303
-614.248
-614.209
-614.194
-614.204
-614.237
-614.285
-614.34
-614.389
-614.424
-614.437
-614.424
-614.387
-614.334
-614.275
-614.22
-614.182
-614.167
-614.178
-614.21
-614.255
-614.303
-614.343
-614.368
-614.377
-614.372
-614.362
-614.354
-1776.33
-1776.32
-1776.32
-1776.32
-1776.32
-1776.31
-1776.31
-1776.3
-1776.29
-1776.29
-1776.27
-1776.26
-1776.25
-1776.23
-1776.21
-1776.19
-1776.16
-1776.13
-1776.1
-1776.06
-1776.02
-1775.98
-1775.94
-1775.89
-1775.83
-1775.77
-1775.71
-1775.65
-1775.58
-1775.5
-1775.42
-1775.34
-1775.26
-1775.17
-1775.08
-1774.99
-1774.89
-1774.79
-1774.69
-1774.59
-1774.49
-1774.39
-1774.29
-1774.18
-1774.08
-1773.98
-1773.88
-1773.78
-1773.68
-1773.59
-1773.5
-1773.42
-1773.33
-1773.26
-1773.19
-1773.12
-1773.06
-1773.01
-1772.96
-1772.92
-1772.88
-1772.86
-1772.84
-1772.83
-1772.83
-1772.83
-1772.84
-1772.86
-1772.88
-1772.91
-1772.94
-1772.98
-1773.01
-1773.06
-1773.1
-1773.14
-1773.19
-1773.23
-1773.27
-1773.3
-1773.34
-1773.36
-1773.38
-1773.39
-1773.4
-1773.39
-1773.38
-1773.36
-1773.33
-1773.29
-1773.24
-1773.18
-1773.11
-1773.04
-1772.97
-1772.89
-1772.81
-1772.73
-1772.65
-1772.57
-1772.5
-1772.44
-1772.39
-1772.34
-1772.31
-1772.3
-1772.3
-1772.31
-1772.34
-1772.38
-1772.43
-1772.5
-1772.57
-1772.65
-1772.73
-1772.82
-1772.9
-1772.97
-1773.04
-1773.09
-1773.13
-1773.15
-1773.15
-1773.14
-1773.1
-1773.05
-1772.99
-1772.91
-1772.82
-1772.73
-1772.64
-1772.55
-1772.47
-1772.41
-1772.37
-1772.35
-1772.35
-1772.38
-1772.43
-1772.49
-1772.58
-1772.67
-1772.76
-1772.85
-1772.93
-1772.99
-1773.03
-1773.05
-1773.03
-1772.98
-1772.9
-1772.81
-1772.7
-1772.59
-1772.48
-1772.39
-1772.32
-1772.28
-1772.27
-1772.3
-1772.36
-1772.45
-1772.55
-1772.66
-1772.77
-1772.85
-1772.91
-1772.94
-1772.93
-1772.89
-1772.82
-1772.74
-1772.66
-1772.59
-1772.54
-1772.52
-1772.54
-1772.58
-1772.65
-1772.72
-1772.78
-1772.82
-1772.84
-1772.82
-1772.78
-1772.71
-1772.64
-1772.57
-1772.53
-1772.51
-1772.52
-1772.57
-1772.62
-1772.68
-1772.72
-1772.75
-1772.76
-1772.75
-1772.73
-1772.72
-2802.72
-2802.72
-2802.72
-2802.72
-2802.71
-2802.71
-2802.71
-2802.7
-2802.7
-2802.69
-2802.68
-2802.67
-2802.66
-2802.64
-2802.63
-2802.61
-2802.59
-2802.56
-2802.53
-2802.49
-2802.45
-2802.41
-2802.36
-2802.3
-2802.24
-2802.18
-2802.11
-2802.03
-2801.95
-2801.86
-2801.77
-2801.67
-2801.57
-2801.47
-2801.36
-2801.25
-2801.13
-2801.01
-2800.89
-2800.76
-2800.64
-2800.51
-2800.39
-2800.27
-2800.14
-2800.02
-2799.9
-2799.78
-2799.67
-2799.56
-2799.46
-2799.36
-2799.27
-2799.18
-2799.1
-2799.03
-2798.97
-2798.91
-2798.86
-2798.82
-2798.8
-2798.78
-2798.77
-2798.77
-2798.77
-2798.79
-2798.82
-2798.85
-2798.89
-2798.94
-2798.99
-2799.05
-2799.12
-2799.18
-2799.25
-2799.32
-2799.38
-2799.45
-2799.51
-2799.56
-2799.61
-2799.65
-2799.69
-2799.71
-2799.72
-2799.72
-2799.7
-2799.68
-2799.64
-2799.58
-2799.52
-2799.45
-2799.36
-2799.27
-2799.17
-2799.06
-2798.96
-2798.85
-2798.75
-2798.65
-2798.55
-2798.47
-2798.4
-2798.35
-2798.31
-2798.29
-2798.29
-2798.31
-2798.35
-2798.41
-2798.48
-2798.57
-2798.67
-2798.78
-2798.9
-2799.01
-2799.12
-2799.22
-2799.31
-2799.38
-2799.43
-2799.46
-2799.46
-2799.44
-2799.39
-2799.32
-2799.23
-2799.13
-2799.01
-2798.88
-2798.76
-2798.64
-2798.54
-2798.46
-2798.4
-2798.37
-2798.38
-2798.42
-2798.49
-2798.58
-2798.69
-2798.82
-2798.95
-2799.07
-2799.18
-2799.26
-2799.32
-2799.34
-2799.31
-2799.25
-2799.15
-2799.02
-2798.88
-2798.72
-2798.58
-2798.46
-2798.37
-2798.32
-2798.32
-2798.36
-2798.44
-2798.56
-2798.7
-2798.84
-2798.98
-2799.09
-2799.16
-2799.19
-2799.17
-2799.11
-2799.02
-2798.91
-2798.8
-2798.7
-2798.64
-2798.61
-2798.64
-2798.7
-2798.79
-2798.89
-2798.98
-2799.04
-2799.06
-2799.04
-2798.98
-2798.89
-2798.79
-2798.7
-2798.64
-2798.62
-2798.64
-2798.7
-2798.78
-2798.85
-2798.91
-2798.94
-2798.94
-2798.92
-2798.89
-2798.87
-3711.86
-3711.86
-3711.87
-3711.87
-3711.88
-3711.89
-3711.9
-3711.91
-3711.92
-3711.93
-3711.94
-3711.95
-3711.96
-3711.96
-3711.96
-3711.96
-3711.95
-3711.93
-3711.91
-3711.88
-3711.85
-3711.8
-3711.75
-3711.69
-3711.63
-3711.55
-3711.47
-3711.37
-3711.27
-3711.17
-3711.05
-3710.93
-3710.8
-3710.67
-3710.53
-3710.39
-3710.24
-3710.09
-3709.94
-3709.79
-3709.64
-3709.48
-3709.33
-3709.18
-3709.03
-3708.88
-3708.73
-3708.59
-3708.45
-3708.32
-3708.2
-3708.08
-3707.98
-3707.88
-3707.79
-3707.7
-3707.64
-3707.58
-3707.53
-3707.5
-3707.47
-3707.46
-3707.47
-3707.48
-3707.51
-3707.55
-3707.59
-3707.65
-3707.72
-3707.8
-3707.89
-3707.98
-3708.08
-3708.18
-3708.28
-3708.39
-3708.49
-3708.58
-3708.67
-3708.76
-3708.83
-3708.89
-3708.94
-3708.97
-3708.99
-3708.99
-3708.98
-3708.95
-3708.89
-3708.83
-3708.74
-3708.64
-3708.53
-3708.4
-3708.27
-3708.13
-3707.98
-3707.84
-3707.69
-3707.56
-3707.44
-3707.33
-3707.24
-3707.16
-3707.11
-3707.09
-3707.09
-3707.13
-3707.18
-3707.26
-3707.37
-3707.49
-3707.63
-3707.78
-3707.94
-3708.1
-3708.25
-3708.39
-3708.51
-3708.61
-3708.67
-3708.71
-3708.72
-3708.68
-3708.62
-3708.52
-3708.4
-3708.25
-3708.08
-3707.9
-3707.73
-3707.57
-3707.44
-3707.33
-3707.25
-3707.21
-3707.23
-3707.28
-3707.38
-3707.51
-3707.66
-3707.84
-3708.02
-3708.19
-3708.34
-3708.46
-3708.54
-3708.57
-3708.53
-3708.44
-3708.3
-3708.13
-3707.94
-3707.73
-3707.53
-3707.37
-3707.25
-3707.19
-3707.18
-3707.24
-3707.36
-3707.52
-3707.71
-3707.91
-3708.1
-3708.24
-3708.34
-3708.37
-3708.33
-3708.24
-3708.11
-3707.95
-3707.8
-3707.67
-3707.58
-3707.55
-3707.59
-3707.68
-3707.81
-3707.95
-3708.07
-3708.16
-3708.19
-3708.16
-3708.07
-3707.95
-3707.81
-3707.69
-3707.61
-3707.59
-3707.62
-3707.7
-3707.81
-3707.91
-3707.99
-3708.02
-3708.01
-3707.97
-3707.92
-3707.89
-4517.32
-4517.33
-4517.34
-4517.35
-4517.38
-4517.4
-4517.43
-4517.47
-4517.5
-4517.54
-4517.57
-4517.61
-4517.64
-4517.67
-4517.7
-4517.72
-4517.73
-4517.73
-4517.73
-4517.71
-4517.68
-4517.64
-4517.58
-4517.52
-4517.44
-4517.34
-4517.24
-4517.12
-4516.99
-4516.85
-4516.7
-4516.55
-4516.38
-4516.21
-4516.03
-4515.84
-4515.66
-4515.46
-4515.27
-4515.08
-4514.88
-4514.69
-4514.5
-4514.3
-4514.12
-4513.93
-4513.75
-4513.58
-4513.42
-4513.26
-4513.11
-4512.97
-4512.84
-4512.73
-4512.62
-4512.53
-4512.46
-4512.4
-4512.35
-4512.32
-4512.31
-4512.31
-4512.33
-4512.36
-4512.41
-4512.48
-4512.56
-4512.65
-4512.76
-4512.88
-4513.01
-4513.14
-4513.28
-4513.43
-4513.58
-4513.72
-4513.87
-4514
-4514.13
-4514.25
-4514.36
-4514.44
-4514.52
-4514.57
-4514.59
-4514.6
-4514.58
-4514.54
-4514.47
-4514.38
-4514.27
-4514.14
-4513.98
-4513.81
-4513.63
-4513.44
-4513.25
-4513.05
-4512.86
-4512.69
-4512.52
-4512.38
-4512.25
-4512.16
-4512.1
-4512.07
-4512.08
-4512.12
-4512.2
-4512.31
-4512.45
-4512.62
-4512.81
-4513.02
-4513.24
-4513.46
-4513.66
-4513.85
-4514.01
-4514.14
-4514.23
-4514.28
-4514.28
-4514.24
-4514.15
-4514.02
-4513.84
-4513.64
-4513.42
-4513.17
-4512.94
-4512.73
-4512.54
-4512.39
-4512.29
-4512.24
-4512.26
-4512.34
-4512.47
-4512.65
-4512.87
-4513.11
-4513.35
-4513.59
-4513.79
-4513.95
-4514.05
-4514.08
-4514.04
-4513.92
-4513.75
-4513.52
-4513.26
-4512.96
-4512.71
-4512.49
-4512.33
-4512.25
-4512.25
-4512.33
-4512.5
-4512.72
-4512.98
-4513.25
-4513.49
-4513.68
-4513.8
-4513.84
-4513.78
-4513.65
-4513.46
-4513.24
-4513.03
-4512.85
-4512.74
-4512.71
-4512.76
-4512.89
-4513.07
-4513.26
-4513.43
-4513.55
-4513.59
-4513.55
-4513.43
-4513.26
-4513.07
-4512.91
-4512.81
-4512.78
-4512.83
-4512.95
-4513.09
-4513.23
-4513.33
-4513.37
-4513.34
-4513.27
-4513.2
-4513.15
-5230.56
-5230.58
-5230.6
-5230.64
-5230.69
-5230.75
-5230.82
-5230.9
-5230.99
-5231.09
-5231.19
-5231.29
-5231.38
-5231.47
-5231.55
-5231.62
-5231.67
-5231.71
-5231.74
-5231.74
-5231.73
-5231.69
-5231.63
-5231.56
-5231.46
-5231.34
-5231.2
-5231.04
-5230.87
-5230.69
-5230.49
-5230.28
-5230.06
-5229.83
-5229.61
-5229.37
-5229.14
-5228.9
-5228.66
-5228.42
-5228.18
-5227.94
-5227.7
-5227.47
-5227.24
-5227.01
-5226.8
-5226.59
-5226.39
-5226.2
-5226.02
-5225.86
-5225.71
-5225.58
-5225.46
-5225.35
-5225.27
-5225.21
-5225.16
-5225.14
-5225.14
-5225.15
-5225.19
-5225.25
-5225.33
-5225.43
-5225.55
-5225.69
-5225.84
-5226.01
-5226.19
-5226.38
-5226.57
-5226.77
-5226.98
-5227.18
-5227.37
-5227.56
-5227.74
-5227.9
-5228.04
-5228.16
-5228.26
-5228.33
-5228.37
-5228.37
-5228.35
-5228.3
-5228.21
-5228.09
-5227.94
-5227.77
-5227.57
-5227.34
-5227.11
-5226.86
-5226.6
-5226.34
-5226.1
-5225.86
-5225.65
-5225.46
-5225.3
-5225.18
-5225.1
-5225.07
-5225.08
-5225.14
-5225.25
-5225.4
-5225.59
-5225.81
-5226.07
-5226.34
-5226.64
-5226.92
-5227.19
-5227.44
-5227.65
-5227.82
-5227.94
-5228.01
-5228.01
-5227.95
-5227.82
-5227.64
-5227.42
-5227.15
-5226.86
-5226.52
-5226.22
-5225.94
-5225.69
-5225.5
-5225.36
-5225.3
-5225.33
-5225.44
-5225.62
-5225.86
-5226.15
-5226.46
-5226.79
-5227.1
-5227.37
-5227.58
-5227.71
-5227.74
-5227.69
-5227.54
-5227.31
-5227.02
-5226.68
-5226.27
-5225.94
-5225.66
-5225.46
-5225.35
-5225.36
-5225.47
-5225.69
-5225.98
-5226.33
-5226.68
-5227
-5227.25
-5227.4
-5227.44
-5227.36
-5227.18
-5226.92
-5226.62
-5226.33
-5226.1
-5225.95
-5225.92
-5226
-5226.17
-5226.41
-5226.67
-5226.9
-5227.06
-5227.12
-5227.06
-5226.9
-5226.67
-5226.42
-5226.21
-5226.07
-5226.04
-5226.12
-5226.27
-5226.47
-5226.65
-5226.77
-5226.81
-5226.77
-5226.67
-5226.56
-5226.49
-5862.23
-5862.26
-5862.31
-5862.38
-5862.48
-5862.61
-5862.75
-5862.92
-5863.1
-5863.29
-5863.49
-5863.69
-5863.88
-5864.07
-5864.23
-5864.38
-5864.5
-5864.59
-5864.65
-5864.69
-5864.68
-5864.65
-5864.58
-5864.47
-5864.33
-5864.16
-5863.96
-5863.74
-5863.49
-5863.24
-5862.97
-5862.69
-5862.4
-5862.11
-5861.82
-5861.52
-5861.22
-5860.92
-5860.62
-5860.32
-5860.03
-5859.74
-5859.45
-5859.17
-5858.89
-5858.63
-5858.37
-5858.12
-5857.88
-5857.66
-5857.45
-5857.26
-5857.08
-5856.93
-5856.79
-5856.68
-5856.59
-5856.52
-5856.48
-5856.46
-5856.47
-5856.51
-5856.57
-5856.66
-5856.77
-5856.91
-5857.08
-5857.26
-5857.47
-5857.69
-5857.93
-5858.18
-5858.44
-5858.71
-5858.97
-5859.24
-5859.5
-5859.74
-5859.97
-5860.18
-5860.37
-5860.52
-5860.65
-5860.74
-5860.79
-5860.81
-5860.78
-5860.71
-5860.6
-5860.45
-5860.25
-5860.03
-5859.77
-5859.48
-5859.18
-5858.85
-5858.53
-5858.2
-5857.88
-5857.58
-5857.3
-5857.06
-5856.86
-5856.71
-5856.62
-5856.58
-5856.6
-5856.68
-5856.82
-5857.01
-5857.26
-5857.56
-5857.89
-5858.24
-5858.62
-5858.98
-5859.33
-5859.65
-5859.92
-5860.14
-5860.3
-5860.38
-5860.38
-5860.29
-5860.13
-5859.9
-5859.6
-5859.25
-5858.87
-5858.45
-5858.06
-5857.7
-5857.38
-5857.13
-5856.97
-5856.9
-5856.94
-5857.07
-5857.3
-5857.61
-5857.99
-5858.4
-5858.82
-5859.22
-5859.57
-5859.84
-5860
-5860.05
-5859.98
-5859.79
-5859.49
-5859.11
-5858.67
-5858.17
-5857.74
-5857.38
-5857.12
-5856.99
-5857
-5857.15
-5857.44
-5857.82
-5858.26
-5858.71
-5859.12
-5859.44
-5859.63
-5859.66
-5859.55
-5859.31
-5858.96
-5858.57
-5858.2
-5857.9
-5857.72
-5857.68
-5857.78
-5858.02
-5858.33
-5858.68
-5858.98
-5859.18
-5859.25
-5859.17
-5858.96
-5858.66
-5858.34
-5858.07
-5857.9
-5857.86
-5857.97
-5858.18
-5858.43
-5858.67
-5858.82
-5858.86
-5858.79
-5858.65
-5858.5
-5858.4
-6421.19
-6421.23
-6421.33
-6421.47
-6421.66
-6421.89
-6422.18
-6422.51
-6422.9
-6423.3
-6423.69
-6424.07
-6424.41
-6424.73
-6425.01
-6425.25
-6425.45
-6425.6
-6425.71
-6425.78
-6425.79
-6425.75
-6425.66
-6425.51
-6425.3
-6425.04
-6424.73
-6424.37
-6424.02
-6423.65
-6423.29
-6422.92
-6422.56
-6422.19
-6421.83
-6421.47
-6421.11
-6420.75
-6420.4
-6420.04
-6419.7
-6419.35
-6419.02
-6418.69
-6418.36
-6418.06
-6417.75
-6417.46
-6417.19
-6416.93
-6416.69
-6416.46
-6416.26
-6416.08
-6415.93
-6415.8
-6415.7
-6415.63
-6415.59
-6415.58
-6415.61
-6415.67
-6415.76
-6415.88
-6416.03
-6416.22
-6416.43
-6416.67
-6416.94
-6417.23
-6417.53
-6417.85
-6418.19
-6418.52
-6418.86
-6419.2
-6419.52
-6419.83
-6420.13
-6420.39
-6420.63
-6420.83
-6420.98
-6421.1
-6421.16
-6421.18
-6421.15
-6421.06
-6420.92
-6420.73
-6420.48
-6420.2
-6419.87
-6419.52
-6419.13
-6418.73
-6418.32
-6417.91
-6417.51
-6417.14
-6416.79
-6416.49
-6416.25
-6416.06
-6415.94
-6415.89
-6415.92
-6416.02
-6416.2
-6416.46
-6416.77
-6417.14
-6417.56
-6418.01
-6418.47
-6418.93
-6419.37
-6419.77
-6420.11
-6420.39
-6420.58
-6420.67
-6420.67
-6420.56
-6420.36
-6420.06
-6419.68
-6419.24
-6418.76
-6418.24
-6417.75
-6417.3
-6416.91
-6416.6
-6416.4
-6416.32
-6416.36
-6416.53
-6416.82
-6417.22
-6417.69
-6418.21
-6418.74
-6419.24
-6419.68
-6420.02
-6420.22
-6420.28
-6420.19
-6419.95
-6419.57
-6419.09
-6418.53
-6417.93
-6417.39
-6416.94
-6416.62
-6416.45
-6416.47
-6416.67
-6417.03
-6417.51
-6418.06
-6418.63
-6419.14
-6419.53
-6419.76
-6419.8
-6419.65
-6419.33
-6418.89
-6418.39
-6417.92
-6417.54
-6417.32
-6417.27
-6417.42
-6417.72
-6418.12
-6418.56
-6418.94
-6419.2
-6419.28
-6419.18
-6418.9
-6418.53
-6418.12
-6417.78
-6417.57
-6417.54
-6417.67
-6417.94
-6418.27
-6418.57
-6418.75
-6418.79
-6418.69
-6418.5
-6418.29
-6418.16
-6915.7
-6915.78
-6915.93
-6916.16
-6916.47
-6916.86
-6917.32
-6917.86
-6918.49
-6919.13
-6919.77
-6920.38
-6920.96
-6921.5
-6921.98
-6922.4
-6922.75
-6923.02
-6923.21
-6923.32
-6923.35
-6923.28
-6923.14
-6922.92
-6922.61
-6922.24
-6921.79
-6921.28
-6920.78
-6920.27
-6919.77
-6919.29
-6918.82
-6918.36
-6917.92
-6917.49
-6917.06
-6916.64
-6916.23
-6915.83
-6915.43
-6915.04
-6914.65
-6914.28
-6913.91
-6913.55
-6913.2
-6912.87
-6912.55
-6912.26
-6911.98
-6911.72
-6911.49
-6911.29
-6911.11
-6910.97
-6910.86
-6910.79
-6910.75
-6910.75
-6910.79
-6910.87
-6910.99
-6911.15
-6911.35
-6911.58
-6911.85
-6912.16
-6912.49
-6912.85
-6913.23
-6913.62
-6914.03
-6914.45
-6914.87
-6915.28
-6915.68
-6916.07
-6916.43
-6916.75
-6917.04
-6917.28
-6917.48
-6917.62
-6917.7
-6917.72
-6917.67
-6917.56
-6917.39
-6917.15
-6916.86
-6916.51
-6916.11
-6915.67
-6915.2
-6914.71
-6914.21
-6913.71
-6913.22
-6912.76
-6912.35
-6911.98
-6911.68
-6911.46
-6911.31
-6911.26
-6911.3
-6911.43
-6911.65
-6911.96
-6912.35
-6912.81
-6913.32
-6913.87
-6914.44
-6915
-6915.54
-6916.03
-6916.45
-6916.78
-6917.01
-6917.12
-6917.12
-6916.98
-6916.73
-6916.36
-6915.9
-6915.35
-6914.76
-6914.13
-6913.53
-6912.98
-6912.5
-6912.12
-6911.88
-6911.8
-6911.85
-6912.06
-6912.42
-6912.9
-6913.48
-6914.12
-6914.77
-6915.38
-6915.92
-6916.33
-6916.58
-6916.66
-6916.54
-6916.24
-6915.78
-6915.18
-6914.51
-6913.78
-6913.12
-6912.57
-6912.18
-6911.99
-6912.01
-6912.26
-6912.7
-6913.29
-6913.97
-6914.67
-6915.28
-6915.76
-6916.03
-6916.07
-6915.87
-6915.47
-6914.92
-6914.31
-6913.73
-6913.27
-6912.99
-6912.94
-6913.13
-6913.51
-6914.02
-6914.56
-6915.03
-6915.34
-6915.44
-6915.31
-6914.97
-6914.5
-6914
-6913.58
-6913.33
-6913.3
-6913.47
-6913.81
-6914.22
-6914.58
-6914.8
-6914.84
-6914.7
-6914.45
-6914.19
-6914.02
-7352.81
-7352.93
-7353.18
-7353.57
-7354.11
-7354.83
-7355.78
-7356.88
-7358.75
-7359.96
-7361.05
-7361.98
-7362.77
-7363.43
-7363.98
-7364.42
-7364.78
-7365.05
-7365.23
-7365.33
-7365.33
-7365.24
-7365.04
-7364.71
-7364.25
-7363.63
-7362.88
-7361.53
-7360.76
-7360.02
-7359.38
-7358.8
-7358.27
-7357.76
-7357.27
-7356.8
-7356.33
-7355.87
-7355.42
-7354.98
-7354.53
-7354.1
-7353.67
-7353.24
-7352.83
-7352.42
-7352.03
-7351.65
-7351.29
-7350.95
-7350.64
-7350.35
-7350.08
-7349.85
-7349.66
-7349.5
-7349.38
-7349.3
-7349.27
-7349.28
-7349.34
-7349.45
-7349.6
-7349.79
-7350.04
-7350.32
-7350.65
-7351.02
-7351.42
-7351.86
-7352.32
-7352.8
-7353.29
-7353.79
-7354.3
-7354.79
-7355.27
-7355.73
-7356.16
-7356.55
-7356.9
-7357.19
-7357.42
-7357.59
-7357.68
-7357.7
-7357.65
-7357.52
-7357.31
-7357.02
-7356.67
-7356.25
-7355.77
-7355.24
-7354.68
-7354.09
-7353.49
-7352.89
-7352.31
-7351.77
-7351.27
-7350.84
-7350.48
-7350.21
-7350.05
-7349.98
-7350.03
-7350.2
-7350.47
-7350.84
-7351.31
-7351.87
-7352.48
-7353.14
-7353.82
-7354.49
-7355.13
-7355.71
-7356.21
-7356.61
-7356.88
-7357.01
-7357
-7356.84
-7356.53
-7356.09
-7355.53
-7354.88
-7354.17
-7353.42
-7352.7
-7352.03
-7351.46
-7351.02
-7350.73
-7350.63
-7350.69
-7350.95
-7351.38
-7351.97
-7352.66
-7353.43
-7354.21
-7354.95
-7355.59
-7356.08
-7356.38
-7356.47
-7356.33
-7355.96
-7355.4
-7354.69
-7353.88
-7353.02
-7352.24
-7351.58
-7351.12
-7350.89
-7350.92
-7351.22
-7351.76
-7352.47
-7353.29
-7354.12
-7354.85
-7355.41
-7355.73
-7355.76
-7355.52
-7355.02
-7354.36
-7353.62
-7352.92
-7352.37
-7352.04
-7351.99
-7352.22
-7352.69
-7353.31
-7353.96
-7354.53
-7354.91
-7355.02
-7354.85
-7354.44
-7353.87
-7353.28
-7352.77
-7352.48
-7352.44
-7352.67
-7353.08
-7353.57
-7354
-7354.27
-7354.3
-7354.12
-7353.81
-7353.48
-7353.27
-7738.71
-7738.87
-7739.19
-7739.71
-7740.45
-7741.44
-7742.77
-7744.55
-7747.32
-7748.59
-7749.94
-7751.16
-7752.24
-7753.19
-7754
-7754.68
-7755.23
-7755.65
-7755.93
-7756.09
-7756.12
-7756.01
-7755.76
-7755.38
-7754.86
-7754.2
-7753.57
-7751.7
-7750.55
-7749.59
-7748.8
-7748.11
-7747.49
-7746.93
-7746.4
-7745.89
-7745.4
-7744.91
-7744.43
-7743.95
-7743.47
-7743
-7742.52
-7742.05
-7741.59
-7741.14
-7740.7
-7740.27
-7739.87
-7739.49
-7739.13
-7738.8
-7738.51
-7738.25
-7738.03
-7737.86
-7737.73
-7737.65
-7737.62
-7737.64
-7737.71
-7737.84
-7738.03
-7738.26
-7738.56
-7738.9
-7739.29
-7739.72
-7740.2
-7740.71
-7741.25
-7741.82
-7742.4
-7742.99
-7743.59
-7744.17
-7744.73
-7745.27
-7745.78
-7746.23
-7746.64
-7746.98
-7747.25
-7747.44
-7747.55
-7747.57
-7747.51
-7747.35
-7747.1
-7746.77
-7746.35
-7745.86
-7745.3
-7744.68
-7744.02
-7743.33
-7742.62
-7741.92
-7741.24
-7740.6
-7740.02
-7739.52
-7739.1
-7738.79
-7738.6
-7738.53
-7738.59
-7738.79
-7739.11
-7739.55
-7740.11
-7740.76
-7741.48
-7742.25
-7743.05
-7743.84
-7744.59
-7745.27
-7745.85
-7746.31
-7746.63
-7746.78
-7746.76
-7746.57
-7746.2
-7745.68
-7745.02
-7744.26
-7743.42
-7742.55
-7741.7
-7740.92
-7740.25
-7739.73
-7739.4
-7739.28
-7739.36
-7739.67
-7740.18
-7740.87
-7741.69
-7742.59
-7743.51
-7744.37
-7745.12
-7745.7
-7746.05
-7746.15
-7745.98
-7745.55
-7744.89
-7744.06
-7743.11
-7742.1
-7741.19
-7740.43
-7739.88
-7739.62
-7739.67
-7740.03
-7740.66
-7741.5
-7742.45
-7743.42
-7744.28
-7744.93
-7745.3
-7745.33
-7745.03
-7744.44
-7743.65
-7742.78
-7741.96
-7741.31
-7740.93
-7740.88
-7741.16
-7741.72
-7742.45
-7743.23
-7743.89
-7744.33
-7744.46
-7744.26
-7743.77
-7743.1
-7742.39
-7741.81
-7741.46
-7741.43
-7741.7
-7742.2
-7742.78
-7743.29
-7743.59
-7743.62
-7743.4
-7743.01
-7742.61
-7742.36
-8079.18
-8079.23
-8079.32
-8079.46
-8079.61
-8079.8
-8079.85
-8080.13
-8093.17
-8092.85
-8092.78
-8092.5
-8092.18
-8091.8
-8091.39
-8090.95
-8090.49
-8090.01
-8089.52
-8089.02
-8088.51
-8088
-8087.48
-8086.96
-8086.45
-8085.94
-8085.44
-8084.95
-8084.48
-8084.02
-8083.6
-8083.2
-8082.83
-8082.5
-8082.22
-8081.97
-8081.78
-8081.64
-8081.55
-8081.53
-8081.56
-8081.65
-8081.81
-8082.02
-8082.3
-8082.64
-8083.04
-8083.5
-8084
-8084.56
-8085.15
-8085.78
-8086.43
-8087.1
-8087.78
-8088.47
-8089.14
-8089.79
-8090.41
-8090.99
-8091.52
-8091.98
-8092.37
-8092.68
-8092.9
-8093.03
-8093.05
-8092.97
-8092.79
-8092.5
-8092.11
-8091.63
-8091.06
-8090.41
-8089.7
-8088.94
-8088.14
-8087.33
-8086.52
-8085.74
-8085.01
-8084.34
-8083.76
-8083.29
-8082.93
-8082.71
-8082.64
-8082.71
-8082.94
-8083.32
-8083.83
-8084.47
-8085.22
-8086.06
-8086.95
-8087.87
-8088.77
-8089.64
-8090.42
-8091.09
-8091.62
-8091.98
-8092.15
-8092.13
-8091.9
-8091.47
-8090.87
-8090.1
-8089.22
-8088.26
-8087.25
-8086.28
-8085.38
-8084.61
-8084.02
-8083.63
-8083.49
-8083.6
-8083.96
-8084.55
-8085.35
-8086.3
-8087.33
-8088.39
-8089.39
-8090.25
-8090.91
-8091.32
-8091.43
-8091.23
-8090.74
-8089.97
-8089.01
-8087.92
-8086.76
-8085.72
-8084.84
-8084.22
-8083.92
-8083.98
-8084.4
-8085.13
-8086.1
-8087.2
-8088.32
-8089.3
-8090.05
-8090.46
-8090.49
-8090.13
-8089.44
-8088.53
-8087.52
-8086.56
-8085.81
-8085.38
-8085.33
-8085.67
-8086.32
-8087.17
-8088.07
-8088.84
-8089.35
-8089.5
-8089.25
-8088.68
-8087.9
-8087.09
-8086.41
-8086.02
-8085.99
-8086.32
-8086.9
-8087.57
-8088.16
-8088.5
-8088.53
-8088.26
-8087.79
-8087.32
-8087.02
-8380.63
-8380.65
-8380.71
-8380.79
-8380.89
-8381.02
-8381.09
-8381.33
-8398.63
-8398.28
-8398.12
-8397.81
-8397.47
-8397.1
-8396.7
-8396.27
-8395.81
-8395.32
-8394.82
-8394.29
-8393.75
-8393.2
-8392.65
-8392.08
-8391.52
-8390.96
-8390.41
-8389.87
-8389.35
-8388.85
-8388.37
-8387.93
-8387.52
-8387.16
-8386.84
-8386.58
-8386.36
-8386.21
-8386.12
-8386.09
-8386.14
-8386.25
-8386.43
-8386.68
-8387
-8387.39
-8387.85
-8388.37
-8388.94
-8389.57
-8390.24
-8390.96
-8391.7
-8392.46
-8393.24
-8394.01
-8394.78
-8395.51
-8396.22
-8396.87
-8397.47
-8397.99
-8398.43
-8398.78
-8399.03
-8399.17
-8399.19
-8399.1
-8398.89
-8398.56
-8398.12
-8397.57
-8396.92
-8396.19
-8395.38
-8394.51
-8393.61
-8392.69
-8391.78
-8390.9
-8390.06
-8389.31
-8388.65
-8388.12
-8387.72
-8387.47
-8387.39
-8387.48
-8387.74
-8388.17
-8388.76
-8389.49
-8390.35
-8391.29
-8392.3
-8393.35
-8394.37
-8395.35
-8396.23
-8396.99
-8397.59
-8398
-8398.19
-8398.15
-8397.89
-8397.4
-8396.71
-8395.85
-8394.84
-8393.75
-8392.61
-8391.51
-8390.49
-8389.62
-8388.95
-8388.52
-8388.36
-8388.48
-8388.9
-8389.57
-8390.48
-8391.56
-8392.74
-8393.94
-8395.07
-8396.04
-8396.79
-8397.25
-8397.37
-8397.15
-8396.58
-8395.71
-8394.62
-8393.38
-8392.08
-8390.89
-8389.9
-8389.2
-8388.87
-8388.94
-8389.42
-8390.26
-8391.36
-8392.61
-8393.88
-8394.99
-8395.83
-8396.29
-8396.31
-8395.89
-8395.1
-8394.06
-8392.9
-8391.82
-8390.97
-8390.48
-8390.44
-8390.83
-8391.58
-8392.56
-8393.58
-8394.46
-8395.03
-8395.19
-8394.91
-8394.25
-8393.36
-8392.44
-8391.67
-8391.23
-8391.21
-8391.58
-8392.25
-8393.02
-8393.69
-8394.08
-8394.1
-8393.77
-8393.23
-8392.68
-8392.34
-8647.58
-8647.59
-8647.62
-8647.66
-8647.71
-8647.77
-8647.78
-8647.88
-8668.83
-8668.61
-8668.49
-8668.25
-8667.96
-8667.61
-8667.22
-8666.79
-8666.32
-8665.82
-8665.3
-8664.74
-8664.17
-8663.58
-8662.98
-8662.37
-8661.75
-8661.14
-8660.54
-8659.95
-8659.37
-8658.82
-8658.3
-8657.82
-8657.37
-8656.97
-8656.62
-8656.33
-8656.1
-8655.93
-8655.84
-8655.81
-8655.86
-8655.99
-8656.2
-8656.48
-8656.85
-8657.29
-8657.8
-8658.38
-8659.03
-8659.73
-8660.49
-8661.29
-8662.12
-8662.97
-8663.84
-8664.71
-8665.56
-8666.38
-8667.17
-8667.9
-8668.56
-8669.14
-8669.63
-8670.02
-8670.3
-8670.45
-8670.48
-8670.37
-8670.13
-8669.76
-8669.27
-8668.65
-8667.92
-8667.1
-8666.19
-8665.23
-8664.22
-8663.19
-8662.17
-8661.19
-8660.26
-8659.42
-8658.69
-8658.09
-8657.65
-8657.38
-8657.29
-8657.4
-8657.69
-8658.17
-8658.84
-8659.66
-8660.61
-8661.67
-8662.8
-8663.97
-8665.11
-8666.2
-8667.19
-8668.04
-8668.7
-8669.15
-8669.36
-8669.32
-8669.02
-8668.47
-8667.7
-8666.73
-8665.6
-8664.38
-8663.11
-8661.88
-8660.74
-8659.77
-8659.02
-8658.54
-8658.36
-8658.51
-8658.98
-8659.74
-8660.76
-8661.96
-8663.28
-8664.62
-8665.88
-8666.98
-8667.81
-8668.32
-8668.46
-8668.2
-8667.56
-8666.59
-8665.36
-8663.98
-8662.53
-8661.21
-8660.11
-8659.33
-8658.96
-8659.05
-8659.59
-8660.53
-8661.76
-8663.16
-8664.58
-8665.82
-8666.75
-8667.26
-8667.27
-8666.79
-8665.9
-8664.72
-8663.43
-8662.22
-8661.27
-8660.73
-8660.68
-8661.13
-8661.98
-8663.08
-8664.23
-8665.21
-8665.86
-8666.03
-8665.7
-8664.96
-8663.96
-8662.92
-8662.07
-8661.58
-8661.56
-8661.99
-8662.75
-8663.62
-8664.37
-8664.79
-8664.81
-8664.43
-8663.81
-8663.18
-8662.79
-8884
-8884.01
-8884.02
-8884.04
-8884.07
-8884.1
-8884.1
-8884.15
-8908.46
-8908.28
-8908.16
-8907.94
-8907.66
-8907.33
-8906.94
-8906.49
-8906.01
-8905.49
-8904.93
-8904.35
-8903.73
-8903.1
-8902.45
-8901.79
-8901.13
-8900.47
-8899.81
-8899.17
-8898.54
-8897.94
-8897.37
-8896.84
-8896.36
-8895.92
-8895.54
-8895.22
-8894.97
-8894.79
-8894.69
-8894.67
-8894.73
-8894.88
-8895.11
-8895.43
-8895.83
-8896.32
-8896.89
-8897.53
-8898.25
-8899.03
-8899.86
-8900.74
-8901.66
-8902.61
-8903.56
-8904.52
-8905.46
-8906.37
-8907.23
-8908.04
-8908.77
-8909.41
-8909.95
-8910.37
-8910.67
-8910.84
-8910.87
-8910.75
-8910.48
-8910.07
-8909.52
-8908.84
-8908.04
-8907.12
-8906.12
-8905.06
-8903.94
-8902.81
-8901.69
-8900.6
-8899.58
-8898.65
-8897.85
-8897.19
-8896.71
-8896.41
-8896.32
-8896.44
-8896.77
-8897.3
-8898.04
-8898.94
-8900
-8901.17
-8902.42
-8903.7
-8904.97
-8906.17
-8907.26
-8908.19
-8908.92
-8909.41
-8909.64
-8909.6
-8909.26
-8908.65
-8907.79
-8906.72
-8905.48
-8904.13
-8902.72
-8901.37
-8900.12
-8899.04
-8898.22
-8897.69
-8897.5
-8897.66
-8898.18
-8899.03
-8900.15
-8901.49
-8902.94
-8904.43
-8905.82
-8907.02
-8907.94
-8908.5
-8908.65
-8908.36
-8907.66
-8906.58
-8905.23
-8903.7
-8902.11
-8900.65
-8899.43
-8898.58
-8898.18
-8898.28
-8898.88
-8899.92
-8901.29
-8902.84
-8904.4
-8905.76
-8906.79
-8907.34
-8907.34
-8906.81
-8905.81
-8904.5
-8903.07
-8901.73
-8900.68
-8900.09
-8900.05
-8900.55
-8901.5
-8902.72
-8904
-8905.09
-8905.79
-8905.98
-8905.61
-8904.78
-8903.67
-8902.53
-8901.58
-8901.05
-8901.04
-8901.52
-8902.37
-8903.33
-8904.16
-8904.63
-8904.64
-8904.2
-8903.5
-8902.8
-8902.36
-9093.43
-9093.44
-9093.44
-9093.46
-9093.47
-9093.48
-9093.48
-9093.51
-9120.87
-9120.72
-9120.59
-9120.38
-9120.1
-9119.75
-9119.35
-9118.9
-9118.39
-9117.84
-9117.25
-9116.63
-9115.98
-9115.3
-9114.6
-9113.89
-9113.18
-9112.46
-9111.75
-9111.06
-9110.38
-9109.73
-9109.12
-9108.54
-9108.02
-9107.55
-9107.13
-9106.79
-9106.52
-9106.33
-9106.22
-9106.2
-9106.27
-9106.43
-9106.69
-9107.04
-9107.48
-9108.02
-9108.64
-9109.34
-9110.13
-9110.98
-9111.89
-9112.86
-9113.86
-9114.89
-9115.93
-9116.98
-9118
-9118.99
-9119.93
-9120.81
-9121.6
-9122.3
-9122.89
-9123.35
-9123.68
-9123.86
-9123.88
-9123.75
-9123.46
-9123.01
-9122.41
-9121.66
-9120.78
-9119.78
-9118.69
-9117.53
-9116.31
-9115.07
-9113.85
-9112.66
-9111.55
-9110.54
-9109.67
-9108.96
-9108.43
-9108.11
-9108.01
-9108.14
-9108.51
-9109.1
-9109.9
-9110.89
-9112.04
-9113.32
-9114.69
-9116.09
-9117.47
-9118.78
-9119.97
-9120.98
-9121.77
-9122.31
-9122.56
-9122.5
-9122.13
-9121.46
-9120.52
-9119.35
-9117.99
-9116.51
-9114.98
-9113.5
-9112.14
-9110.97
-9110.07
-9109.5
-9109.29
-9109.48
-9110.05
-9110.97
-9112.21
-9113.66
-9115.25
-9116.87
-9118.39
-9119.7
-9120.71
-9121.31
-9121.47
-9121.15
-9120.38
-9119.21
-9117.73
-9116.06
-9114.33
-9112.74
-9111.42
-9110.48
-9110.05
-9110.17
-9110.83
-9111.97
-9113.47
-9115.16
-9116.86
-9118.34
-9119.46
-9120.05
-9120.05
-9119.46
-9118.36
-9116.92
-9115.35
-9113.89
-9112.75
-9112.11
-9112.07
-9112.62
-9113.67
-9115.02
-9116.41
-9117.6
-9118.37
-9118.57
-9118.16
-9117.25
-9116.03
-9114.77
-9113.75
-9113.17
-9113.16
-9113.7
-9114.63
-9115.7
-9116.6
-9117.11
-9117.1
-9116.62
-9115.84
-9115.06
-9114.57
-9278.95
-9278.95
-9278.96
-9278.96
-9278.96
-9278.97
-9278.97
-9278.99
-9309.13
-9308.98
-9308.86
-9308.64
-9308.35
-9307.99
-9307.58
-9307.1
-9306.57
-9305.99
-9305.37
-9304.7
-9304.01
-9303.28
-9302.54
-9301.78
-9301.01
-9300.25
-9299.49
-9298.74
-9298.01
-9297.32
-9296.66
-9296.04
-9295.47
-9294.97
-9294.53
-9294.16
-9293.87
-9293.67
-9293.55
-9293.53
-9293.61
-9293.79
-9294.07
-9294.45
-9294.93
-9295.51
-9296.18
-9296.95
-9297.79
-9298.71
-9299.7
-9300.74
-9301.83
-9302.94
-9304.07
-9305.2
-9306.3
-9307.37
-9308.39
-9309.33
-9310.19
-9310.94
-9311.57
-9312.07
-9312.42
-9312.61
-9312.64
-9312.49
-9312.18
-9311.69
-9311.03
-9310.22
-9309.27
-9308.19
-9307.01
-9305.75
-9304.44
-9303.11
-9301.78
-9300.5
-9299.3
-9298.21
-9297.27
-9296.5
-9295.94
-9295.59
-9295.49
-9295.64
-9296.03
-9296.67
-9297.54
-9298.62
-9299.87
-9301.25
-9302.72
-9304.24
-9305.73
-9307.14
-9308.42
-9309.51
-9310.37
-9310.95
-9311.21
-9311.14
-9310.74
-9310.02
-9309
-9307.73
-9306.26
-9304.66
-9303.01
-9301.41
-9299.94
-9298.68
-9297.71
-9297.09
-9296.87
-9297.08
-9297.69
-9298.7
-9300.03
-9301.61
-9303.33
-9305.08
-9306.72
-9308.14
-9309.22
-9309.87
-9310.04
-9309.69
-9308.86
-9307.58
-9305.98
-9304.19
-9302.32
-9300.61
-9299.17
-9298.17
-9297.71
-9297.84
-9298.56
-9299.8
-9301.42
-9303.24
-9305.08
-9306.68
-9307.88
-9308.52
-9308.51
-9307.86
-9306.66
-9305.1
-9303.4
-9301.82
-9300.59
-9299.9
-9299.86
-9300.47
-9301.61
-9303.07
-9304.59
-9305.88
-9306.71
-9306.91
-9306.47
-9305.47
-9304.15
-9302.79
-9301.68
-9301.06
-9301.06
-9301.66
-9302.67
-9303.82
-9304.8
-9305.35
-9305.33
-9304.8
-9303.94
-9303.09
-9302.55
-9443.29
-9443.29
-9443.29
-9443.3
-9443.29
-9443.3
-9443.29
-9443.3
-9475.97
-9475.83
-9475.7
-9475.47
-9475.18
-9474.8