/*--------------------------------*- C++ -*----------------------------------*\
  =========                 |
  \\      /  F ield         | OpenFOAM: The Open Source CFD Toolbox
   \\    /   O peration     | Website:  https://openfoam.org
    \\  /    A nd           | Version:  12
     \\/     M anipulation  |
\*---------------------------------------------------------------------------*/
FoamFile
{
    format      ascii;
    class       volScalarField;
    location    "18.78";
    object      p_rgh;
}
// * * * * * * * * * * * * * * * * * * * * * * * * * * * * * * * * * * * * * //

dimensions      [1 -1 -2 0 0 0 0];

internalField   nonuniform List<scalar> 
3829
(
1.41758
1.41717
1.41633
1.41504
1.41329
1.41105
1.40831
1.40503
1.40121
1.39681
1.3918
1.38616
1.37984
1.37282
1.36506
1.35652
1.34715
1.33692
1.32578
1.31368
1.30058
1.28643
1.27116
1.25474
1.2371
1.21818
1.19792
1.17626
1.15315
1.12851
1.1023
1.07446
1.04494
1.01368
0.98065
0.945796
0.909249
0.870921
0.830808
0.788924
0.74531
0.700026
0.653157
0.604805
0.555097
0.504181
0.45223
0.39944
0.346032
0.292253
0.238374
0.184688
0.131514
0.079187
0.0280621
-0.0214943
-0.0690925
-0.114346
-0.156863
-0.196257
-0.232143
-0.264142
-0.291902
-0.315089
-0.333444
-0.346529
-0.354438
-0.35697
-0.354008
-0.345548
-0.331598
-0.312071
-0.287415
-0.257969
-0.22407
-0.181388
-0.13983
-0.0954874
-0.0490451
-0.00125713
0.0470286
0.0949082
0.141434
0.185642
0.226564
0.263257
0.294805
0.320366
0.339204
0.350701
0.354322
0.348607
0.333907
0.310451
0.278591
0.238818
0.191752
0.138208
0.07923
0.016071
-0.0498033
-0.116791
-0.183142
-0.247065
-0.306733
-0.360348
-0.406216
-0.442816
-0.468862
-0.483391
-0.485747
-0.47455
-0.450588
-0.414691
-0.367922
-0.311693
-0.247878
-0.178753
-0.105182
-0.0338622
0.0340222
0.0955366
0.147874
0.188537
0.215516
0.227364
0.220117
0.196178
0.156694
0.103334
0.0384157
-0.0350235
-0.113657
-0.192248
-0.266769
-0.332924
-0.386597
-0.424394
-0.443922
-0.435911
-0.407072
-0.358971
-0.29406
-0.216035
-0.129023
-0.0402578
0.0445219
0.119244
0.178138
0.216561
0.231372
0.21978
0.184022
0.127271
0.0544467
-0.0282827
-0.112745
-0.190313
-0.253796
-0.296759
-0.315099
-0.298588
-0.256456
-0.192513
-0.113351
-0.0274683
0.0547362
0.122907
0.169084
0.187281
0.173139
0.130297
0.0631585
-0.0243565
-0.10801
-0.181177
-0.234116
-0.259414
-0.2536
-0.219167
-0.160867
-0.0890333
-0.0164011
0.0456507
0.0864614
0.0981928
0.0804745
0.0359797
-0.0288366
-0.0977771
-0.161415
-0.208068
-0.229333
-0.221911
-0.187086
-0.132182
-0.0664391
-0.00195976
0.0495109
0.0781838
1.45965
1.45926
1.45846
1.45725
1.45559
1.45348
1.45089
1.44782
1.44424
1.44012
1.43545
1.4302
1.42435
1.41786
1.4107
1.40284
1.39423
1.38484
1.37462
1.3635
1.35143
1.33835
1.32419
1.30887
1.2923
1.27442
1.25514
1.23436
1.212
1.18797
1.16218
1.13454
1.10499
1.07344
1.03985
1.00434
0.96614
0.925412
0.88223
0.836684
0.788896
0.738993
0.687097
0.633321
0.577781
0.520623
0.462034
0.402236
0.341492
0.280097
0.218381
0.156709
0.095471
0.0350868
-0.0240032
-0.081337
-0.136433
-0.188807
-0.237964
-0.283413
-0.324685
-0.361319
-0.392875
-0.418033
-0.438142
-0.452085
-0.459602
-0.460493
-0.454636
-0.441974
-0.422249
-0.396124
-0.363703
-0.325262
-0.281231
-0.232146
-0.17875
-0.122149
-0.0631439
-0.002656
0.058294
0.11862
0.177166
0.232754
0.284193
0.330331
0.370034
0.402272
0.426082
0.440701
0.445539
0.439071
0.421724
0.393703
0.355331
0.307136
0.249868
0.184581
0.112585
0.03543
-0.0450669
-0.126925
-0.207939
-0.285906
-0.358576
-0.423744
-0.479334
-0.523443
-0.554463
-0.571158
-0.572762
-0.558254
-0.528279
-0.483637
-0.425595
-0.355932
-0.277039
-0.19163
-0.0996367
-0.0118377
0.0715044
0.146841
0.210718
0.260034
0.292238
0.305421
0.296723
0.267614
0.219217
0.153504
0.0734515
-0.017045
-0.11382
-0.210429
-0.301855
-0.382732
-0.447929
-0.493113
-0.514955
-0.506885
-0.47304
-0.415139
-0.336229
-0.241082
-0.135296
-0.0270248
0.0761519
0.16676
0.23769
0.283223
0.299467
0.284169
0.239178
0.16825
0.0777284
-0.0246275
-0.12859
-0.223641
-0.300673
-0.351455
-0.370436
-0.352354
-0.301671
-0.223321
-0.125853
-0.0199756
0.0805613
0.163816
0.219582
0.24065
0.22341
0.170745
0.0881268
-0.0222831
-0.124203
-0.212533
-0.275568
-0.304551
-0.295912
-0.252228
-0.179704
-0.0912458
-0.0025695
0.0725596
0.121199
0.134941
0.112612
0.0579861
-0.0204258
-0.103599
-0.179801
-0.235075
-0.25996
-0.250436
-0.208449
-0.143056
-0.0651549
0.0108791
0.0713517
0.10496
1.51994
1.51956
1.51878
1.51761
1.51603
1.51405
1.51165
1.50885
1.50564
1.50201
1.49795
1.49343
1.48844
1.48294
1.47693
1.47038
1.46325
1.45549
1.44707
1.43791
1.42795
1.41712
1.40531
1.39243
1.37834
1.36293
1.34606
1.32757
1.3073
1.28507
1.2607
1.23397
1.20471
1.1727
1.13772
1.09939
1.05852
1.0148
0.968079
0.918213
0.86511
0.808732
0.749117
0.68639
0.620741
0.552422
0.48172
0.408964
0.33453
0.258839
0.182359
0.105597
0.0291063
-0.0465329
-0.120695
-0.192748
-0.262009
-0.327795
-0.3894
-0.446011
-0.497261
-0.542405
-0.580793
-0.611838
-0.6351
-0.650111
-0.656495
-0.654037
-0.642539
-0.622093
-0.592316
-0.55383
-0.506966
-0.452174
-0.390065
-0.321458
-0.247279
-0.168553
-0.0863944
-0.00253841
0.0818327
0.165228
0.246076
0.322768
0.393716
0.45734
0.512153
0.556699
0.589801
0.610252
0.617297
0.609163
0.586578
0.549669
0.498763
0.434517
0.357962
0.270568
0.174133
0.0707623
-0.0371336
-0.147117
-0.255527
-0.359645
-0.456494
-0.543097
-0.616677
-0.67471
-0.714964
-0.735701
-0.73574
-0.71473
-0.673017
-0.611549
-0.5321
-0.437276
-0.330471
-0.215828
-0.0860028
0.0312635
0.143052
0.244127
0.329579
0.395163
0.437257
0.453455
0.441322
0.401752
0.336041
0.246755
0.138044
0.0153736
-0.115281
-0.245781
-0.368959
-0.477475
-0.564401
-0.623851
-0.65142
-0.641569
-0.597204
-0.520174
-0.414688
-0.287373
-0.145707
-0.00114908
0.136254
0.256409
0.349675
0.408334
0.427314
0.404402
0.341505
0.243727
0.119859
-0.0194452
-0.160026
-0.287914
-0.390523
-0.456635
-0.478128
-0.455063
-0.386867
-0.280885
-0.148886
-0.00492794
0.130059
0.241082
0.314546
0.34089
0.317083
0.245835
0.134715
-0.0205988
-0.155842
-0.271834
-0.353271
-0.388679
-0.374079
-0.312759
-0.213632
-0.0941982
0.0241816
0.123334
0.186211
0.202896
0.171503
0.0977999
-0.00580094
-0.115169
-0.214251
-0.285109
-0.315987
-0.302219
-0.246938
-0.16231
-0.0624111
0.0343947
0.110929
0.153333
1.6053
1.60474
1.60361
1.60194
1.59973
1.59705
1.59391
1.59037
1.58645
1.58219
1.57761
1.57274
1.56765
1.56241
1.55708
1.55168
1.54625
1.5408
1.5353
1.5297
1.52389
1.51777
1.51117
1.50391
1.49577
1.4865
1.47582
1.46341
1.44896
1.43217
1.41269
1.39023
1.36447
1.33515
1.30218
1.26407
1.22078
1.17254
1.11949
1.06165
0.99901
0.931565
0.859367
0.782547
0.701318
0.615986
0.52693
0.434606
0.339543
0.242342
0.143663
0.0442462
-0.0551316
-0.153621
-0.250341
-0.344386
-0.434828
-0.52068
-0.600826
-0.674614
-0.741003
-0.799072
-0.847969
-0.886887
-0.915119
-0.932079
-0.937286
-0.930258
-0.910773
-0.878592
-0.834775
-0.778921
-0.711449
-0.633097
-0.544779
-0.447632
-0.342944
-0.232158
-0.116871
0.000851634
0.119071
0.235767
0.348775
0.455878
0.554878
0.643614
0.720011
0.782181
0.828304
0.857104
0.867085
0.856436
0.826047
0.775934
0.706485
0.61864
0.513897
0.394319
0.262466
0.121376
-0.0253541
-0.178943
-0.326089
-0.467683
-0.599376
-0.716901
-0.816344
-0.894225
-0.947608
-0.974122
-0.971985
-0.941141
-0.881828
-0.79531
-0.684111
-0.551873
-0.403164
-0.243356
-0.0698846
0.0928782
0.247186
0.386137
0.503114
0.592315
0.648842
0.669205
0.651732
0.596504
0.505105
0.381209
0.23075
0.0612794
-0.119188
-0.298852
-0.46799
-0.616504
-0.734817
-0.814762
-0.850305
-0.837712
-0.777443
-0.672017
-0.527493
-0.353156
-0.159838
0.0375266
0.224495
0.387268
0.512701
0.590169
0.612574
0.578059
0.488539
0.351484
0.1791
-0.0141152
-0.207811
-0.383304
-0.523256
-0.612259
-0.640012
-0.606251
-0.510945
-0.364277
-0.181974
0.0189642
0.203487
0.353978
0.452275
0.485837
0.451751
0.353578
0.202538
-0.0217873
-0.203376
-0.358324
-0.465672
-0.509827
-0.485803
-0.398534
-0.260815
-0.0967875
0.0641254
0.197403
0.280219
0.300097
0.254983
0.153499
0.0138037
-0.132868
-0.264185
-0.356616
-0.395161
-0.374793
-0.300421
-0.188554
-0.057958
0.067605
0.166263
0.220732
1.70532
1.70412
1.70175
1.69827
1.69376
1.68837
1.68224
1.67562
1.66863
1.66137
1.65398
1.64677
1.63989
1.63357
1.62794
1.62315
1.61937
1.61663
1.61497
1.61427
1.61448
1.61547
1.61702
1.61881
1.62047
1.62155
1.62152
1.61984
1.61587
1.60904
1.59869
1.58415
1.56468
1.53959
1.50806
1.47138
1.4285
1.37868
1.32141
1.25644
1.18372
1.10333
1.01549
0.920492
0.818735
0.710714
0.597015
0.478326
0.355436
0.229212
0.100628
-0.0292958
-0.159425
-0.288609
-0.415607
-0.538739
-0.657418
-0.770022
-0.875182
-0.971601
-1.058
-1.13315
-1.19592
-1.2452
-1.28004
-1.29966
-1.30333
-1.29065
-1.26123
-1.21415
-1.15072
-1.07121
-0.976274
-0.866799
-0.743979
-0.609335
-0.464632
-0.31186
-0.153251
0.00885011
0.17126
0.331387
0.486281
0.632985
0.768444
0.889805
0.994137
1.07888
1.1417
1.1806
1.19401
1.18009
1.13936
1.07172
0.977682
0.858607
0.716603
0.554476
0.375662
0.18421
-0.0153336
-0.218423
-0.418186
-0.609603
-0.787083
-0.945117
-1.07837
-1.18207
-1.2522
-1.28564
-1.28052
-1.23642
-1.15359
-1.03387
-0.880741
-0.699187
-0.495465
-0.276813
-0.0463131
0.175668
0.385499
0.573854
0.731926
0.85178
0.92699
0.95259
0.927674
0.85128
0.725611
0.556039
0.350731
0.119846
-0.126745
-0.37056
-0.599731
-0.800462
-0.959644
-1.06627
-1.11216
-1.09523
-1.01329
-0.869979
-0.673901
-0.437809
-0.176564
0.0897452
0.34143
0.559726
0.726797
0.828314
0.854814
0.804255
0.679195
0.490145
0.253875
-0.00973384
-0.273025
-0.510746
-0.699254
-0.818053
-0.853515
-0.804453
-0.672687
-0.472975
-0.226367
0.0548971
0.301984
0.502429
0.6321
0.67439
0.62565
0.492023
0.290804
-0.027643
-0.266951
-0.471581
-0.612076
-0.667011
-0.629872
-0.508221
-0.319886
-0.0978283
0.118074
0.294938
0.402738
0.425476
0.361615
0.223603
0.0371387
-0.157316
-0.32939
-0.448621
-0.495958
-0.46637
-0.367226
-0.220652
-0.0514808
0.109877
0.235915
0.305234
1.82865
1.82611
1.82095
1.81317
1.80277
1.78993
1.77509
1.75916
1.74287
1.7271
1.71152
1.69636
1.68192
1.66886
1.6578
1.64953
1.64457
1.64327
1.64572
1.65203
1.66211
1.67572
1.69241
1.71162
1.73256
1.75436
1.77586
1.79612
1.81388
1.82798
1.83696
1.83968
1.83497
1.822
1.80008
1.7682
1.72583
1.67256
1.60811
1.53234
1.44528
1.34712
1.23818
1.11895
0.990028
0.852173
0.706261
0.553291
0.394379
0.230758
0.0637581
-0.105176
-0.274521
-0.44266
-0.607842
-0.768505
-0.922868
-1.06915
-1.20557
-1.33041
-1.44196
-1.53858
-1.61872
-1.68101
-1.72423
-1.74723
-1.74912
-1.72898
-1.68579
-1.62123
-1.53458
-1.42647
-1.29793
-1.15022
-0.984951
-0.804175
-0.610285
-0.405973
-0.194341
0.0235456
0.23985
0.45313
0.659355
0.854525
1.03461
1.19576
1.33421
1.44638
1.5294
1.58031
1.59749
1.57927
1.52538
1.43565
1.31092
1.15306
0.964892
0.750184
0.513514
0.260287
-0.00332614
-0.270653
-0.534081
-0.786329
-1.01984
-1.22727
-1.40177
-1.53705
-1.62776
-1.66976
-1.66006
-1.59896
-1.48657
-1.32553
-1.12058
-0.878187
-0.606676
-0.31588
-0.0135097
0.280855
0.558649
0.807446
1.01572
1.17293
1.27075
1.30252
1.26775
1.16451
0.996072
0.769816
0.496424
0.189465
-0.138226
-0.461176
-0.764283
-1.02913
-1.23843
-1.37775
-1.43635
-1.41304
-1.30338
-1.11267
-0.852569
-0.540116
-0.195083
0.155981
0.487065
0.773212
0.990962
1.12151
1.15246
1.08131
0.91185
0.658316
0.343174
-0.00759534
-0.356319
-0.670314
-0.918104
-1.07279
-1.11661
-1.04769
-0.869924
-0.605143
-0.288682
0.111428
0.425223
0.685451
0.852968
0.904816
0.836331
0.657911
0.3947
-0.0358589
-0.34548
-0.610785
-0.79131
-0.858928
-0.80485
-0.640225
-0.389473
-0.0963805
0.186364
0.415655
0.552848
0.577659
0.489785
0.306576
0.0631371
-0.189017
-0.409581
-0.559987
-0.616723
-0.575067
-0.445688
-0.257505
-0.0426796
0.160573
0.318433
0.404919
2.01525
2.00829
1.99436
1.97353
1.94576
1.9116
1.87081
1.82583
1.77988
1.7365
1.69627
1.66097
1.63124
1.60819
1.59228
1.58399
1.58345
1.59007
1.60338
1.62347
1.65046
1.68469
1.72573
1.77311
1.82539
1.88125
1.93821
1.99441
2.0473
2.09455
2.13352
2.16196
2.17839
2.18189
2.17132
2.14575
2.10457
2.04736
1.97395
1.88439
1.77891
1.65794
1.5221
1.37219
1.20914
1.0341
0.84829
0.65312
0.450103
0.240918
0.0273257
-0.188757
-0.405288
-0.620055
-0.831209
-1.0364
-1.23332
-1.4197
-1.59321
-1.75169
-1.89289
-2.01473
-2.11525
-2.19268
-2.24552
-2.27269
-2.27345
-2.24815
-2.1867
-2.09885
-1.98369
-1.84142
-1.67308
-1.4802
-1.2648
-1.02955
-0.777472
-0.512035
-0.237116
0.0432621
0.323793
0.599941
0.866648
1.11881
1.35129
1.55903
1.73731
1.88156
1.98784
2.0527
2.0735
2.05004
1.98023
1.86402
1.70266
1.49871
1.25585
0.978956
0.673999
0.347953
0.00875587
-0.334731
-0.672969
-0.996587
-1.29581
-1.56106
-1.78357
-1.95544
-2.06977
-2.12141
-2.10626
-2.02461
-1.87698
-1.66686
-1.40052
-1.08639
-0.735082
-0.35943
0.0290384
0.408173
0.765525
1.08517
1.35204
1.55289
1.67671
1.71564
1.66837
1.5327
1.31337
1.01989
0.665706
0.268556
-0.15374
-0.570434
-0.960591
-1.30064
-1.56868
-1.74629
-1.81976
-1.78776
-1.64442
-1.39713
-1.06108
-0.658305
-0.214466
0.236292
0.66038
1.02588
1.3026
1.46658
1.50231
1.40605
1.18355
0.853513
0.444951
-0.00812242
-0.457464
-0.860926
-1.178
-1.37412
-1.42729
-1.33295
-1.09886
-0.752415
-0.332467
0.154257
0.566824
0.900819
1.11237
1.17417
1.08058
0.847286
0.508181
-0.0430161
-0.437413
-0.774457
-1.00168
-1.08343
-1.00843
-0.792486
-0.46804
-0.0916281
0.268866
0.558544
0.728779
0.754475
0.637258
0.40054
0.0906498
-0.228132
-0.503999
-0.689104
-0.755328
-0.698623
-0.533883
-0.297968
-0.0313929
0.218832
0.412066
0.517552
2.33967
2.32866
2.30798
2.27813
2.24021
2.19651
2.14397
2.09105
2.03704
1.97755
1.91196
1.84377
1.7741
1.70646
1.64383
1.58952
1.54688
1.5197
1.51091
1.52295
1.55547
1.60812
1.67936
1.76725
1.86805
1.97851
2.09198
2.20201
2.31123
2.41156
2.49673
2.56338
2.61225
2.64052
2.64662
2.62955
2.58898
2.52499
2.43803
2.32877
2.19806
2.04691
1.87643
1.68788
1.48265
1.26225
1.02838
0.78284
0.527608
0.264797
-0.00332109
-0.274383
-0.545441
-0.814679
-1.07897
-1.33553
-1.58149
-1.81394
-2.03008
-2.22706
-2.40216
-2.55274
-2.67633
-2.77061
-2.83349
-2.86293
-2.85714
-2.81379
-2.7432
-2.63444
-2.4892
-2.309
-2.09569
-1.85148
-1.57903
-1.28175
-0.963544
-0.628718
-0.282285
0.0704585
0.423482
0.770803
1.10603
1.42273
1.71449
1.97499
2.19823
2.37859
2.5111
2.59153
2.61651
2.58624
2.49757
2.35064
2.14714
1.89034
1.58491
1.237
0.854137
0.445173
0.0200798
-0.410056
-0.833266
-1.23779
-1.61143
-1.94216
-2.21882
-2.43156
-2.57192
-2.63331
-2.61218
-2.50697
-2.31894
-2.05267
-1.71611
-1.32017
-0.878131
-0.40593
0.0806144
0.555983
1.00348
1.40322
1.73626
1.9862
2.13917
2.18581
2.12342
1.95028
1.67269
1.30236
0.856256
0.356423
-0.174347
-0.697565
-1.18627
-1.61142
-1.94579
-2.16658
-2.25676
-2.21368
-2.03116
-1.71883
-1.29591
-0.790192
-0.233949
0.329937
0.859304
1.31438
1.65745
1.85862
1.89902
1.77349
1.49012
1.07256
0.557729
-0.0122475
-0.575662
-1.08038
-1.4754
-1.71781
-1.78014
-1.65589
-1.35661
-0.916569
-0.383012
0.209647
0.729606
1.14657
1.40716
1.4786
1.35436
1.05654
0.629898
-0.050675
-0.541602
-0.960464
-1.24037
-1.3372
-1.23741
-0.962277
-0.553774
-0.0830314
0.364911
0.721706
0.927743
0.952882
0.80124
0.503471
0.118593
-0.274567
-0.611331
-0.833814
-0.909171
-0.834434
-0.629771
-0.340858
-0.0175974
0.283562
0.514816
0.640634
2.75138
2.72155
2.6641
2.57625
2.45452
2.29452
2.07628
1.8065
1.59901
1.44832
1.3132
1.1912
1.07803
0.980416
0.902837
0.848732
0.820035
0.817958
0.843459
0.897392
0.981338
1.09678
1.24293
1.42152
1.62968
1.86617
2.12449
2.37772
2.62012
2.81925
2.9777
3.09643
3.17832
3.22656
3.24162
3.22407
3.17501
3.09555
2.98684
2.85011
2.68671
2.4981
2.28583
2.05157
1.79709
1.52435
1.23545
0.932612
0.618293
0.295078
-0.0342874
-0.366581
-0.699242
-1.02889
-1.35215
-1.66563
-1.96584
-2.24927
-2.51245
-2.75197
-2.96449
-3.1468
-3.29591
-3.40903
-3.48371
-3.51784
-3.50984
-3.45869
-3.36491
-3.22738
-3.04637
-2.82305
-2.55943
-2.25815
-1.92249
-1.55662
-1.1653
-0.753893
-0.328522
0.104234
0.537186
0.962897
1.37354
1.76124
2.11813
2.43655
2.70911
2.92903
3.09021
3.18756
3.21697
3.17845
3.06831
2.8869
2.63643
2.32091
1.94608
1.51954
1.05054
0.549921
0.0300366
-0.495617
-1.01257
-1.50616
-1.96156
-2.36422
-2.70042
-2.95802
-3.12681
-3.1989
-3.17003
-3.03797
-2.80471
-2.47614
-2.06184
-1.57528
-1.03303
-0.45425
0.140594
0.721915
1.2686
1.75625
2.16185
2.46535
2.65003
2.70465
2.62482
2.40984
2.06754
1.61219
1.06493
0.452062
-0.200968
-0.841129
-1.43781
-1.95623
-2.36328
-2.63131
-2.73971
-2.68329
-2.45665
-2.0719
-1.5527
-0.933206
-0.252914
0.435492
1.08077
1.6341
2.04963
2.2912
2.33594
2.17728
1.82595
1.31142
0.679029
-0.0201266
-0.709133
-1.32516
-1.80555
-2.09803
-2.16945
-2.01118
-1.63897
-1.09528
-0.43842
0.276279
0.912186
1.41919
1.73258
1.81288
1.65287
1.28139
0.754614
-0.0564714
-0.656408
-1.16597
-1.50354
-1.61596
-1.48774
-1.14635
-0.64485
-0.0703671
0.473031
0.902434
1.14625
1.16921
0.978386
0.613096
0.146082
-0.327764
-0.729825
-0.991482
-1.07521
-0.979657
-0.731264
-0.385077
-0.00138183
0.353509
0.624545
0.771487
3.32776
3.29832
3.24769
3.17269
3.07089
2.93166
2.76701
2.641
2.50364
2.23515
2.0202
1.8077
1.60502
1.42095
1.25834
1.12403
1.02309
0.960183
0.939206
0.962804
1.03495
1.15909
1.33092
1.55393
1.81983
2.12556
2.52602
2.77987
3.10069
3.3585
3.56606
3.73538
3.85685
3.92886
3.95231
3.92852
3.86242
3.75779
3.61757
3.4441
3.23946
3.00555
2.74426
2.45754
2.14746
1.81628
1.46641
1.10053
0.721445
0.332222
-0.0638076
-0.463183
-0.862329
-1.2574
-1.64445
-2.01946
-2.37822
-2.71661
-3.03049
-3.31581
-3.5686
-3.78504
-3.96157
-4.09491
-4.18221
-4.22103
-4.20946
-4.1463
-4.0309
-3.86309
-3.64348
-3.37347
-3.05546
-2.69257
-2.28872
-1.84891
-1.37887
-0.885062
-0.374784
0.144102
0.662901
1.17278
1.66434
2.12814
2.55481
2.93521
3.2605
3.52261
3.71432
3.82965
3.86377
3.81554
3.68165
3.46269
3.16126
2.78222
2.33245
1.82112
1.25936
0.660181
0.0381362
-0.590218
-1.20776
-1.79689
-2.33993
-2.81948
-3.21933
-3.52494
-3.72406
-3.80747
-3.76923
-3.6077
-3.32533
-2.92933
-2.43113
-1.84682
-1.19669
-0.503332
0.207879
0.90301
1.55608
2.13786
2.62104
2.98153
3.1998
3.2623
3.16308
2.90259
2.49024
1.94351
1.28801
0.55491
-0.234839
-0.998912
-1.71064
-2.32865
-2.81335
-3.13171
-3.25948
-3.18768
-2.91282
-2.44967
-1.82654
-1.0845
-0.270883
0.551252
1.32078
1.97923
2.47204
2.75622
2.80487
2.60989
2.18492
1.56542
0.805975
-0.0311529
-0.855459
-1.59084
-2.16248
-2.50793
-2.58805
-2.39222
-1.94074
-1.28519
-0.496192
0.352159
1.1114
1.71413
2.0829
2.17105
1.9708
1.51794
0.881204
-0.0618989
-0.780306
-1.38755
-1.78661
-1.91471
-1.75475
-1.34108
-0.73938
-0.0537127
0.591365
1.09737
1.38015
1.3993
1.16523
0.727105
0.172327
-0.386923
-0.8573
-1.15913
-1.2502
-1.13132
-0.836219
-0.429624
0.0170242
0.427303
0.739011
0.907434
3.90681
3.87039
3.79543
3.65968
3.42951
3.04111
2.38041
1.42673
0.988448
0.491625
0.121146
-0.195348
-0.452903
-0.657895
-0.812623
-0.918476
-0.976782
-0.987935
-0.951381
-0.865591
-0.722635
-0.512773
-0.233429
0.129784
0.592964
1.17816
1.99712
2.88025
3.71446
4.21814
4.52623
4.70929
4.80216
4.8273
4.80147
4.73395
4.62745
4.48291
4.30154
4.08451
3.83316
3.54912
3.23424
2.89064
2.52056
2.12658
1.71147
1.27831
0.830336
0.371124
-0.0954416
-0.565569
-1.03485
-1.4989
-1.95312
-2.39281
-2.81312
-3.20923
-3.5763
-3.90963
-4.20458
-4.4567
-4.66184
-4.8162
-4.91645
-4.95976
-4.94392
-4.86732
-4.72923
-4.52964
-4.26934
-3.95004
-3.5746
-3.1467
-2.67097
-2.15331
-1.60044
-1.01993
-0.420362
0.189056
0.798067
1.39631
1.97279
2.51641
3.01619
3.46146
3.84186
4.14799
4.37148
4.50532
4.54398
4.48507
4.32584
4.067
3.71165
3.26549
2.73665
2.13598
1.47656
0.773559
0.0441289
-0.692132
-1.41523
-2.10461
-2.73952
-3.29958
-3.7659
-4.12148
-4.35203
-4.4467
-4.39837
-4.2055
-3.87109
-3.40371
-2.81708
-2.12981
-1.36598
-0.552422
0.281229
1.09584
1.86046
2.54086
3.10516
3.52505
3.77797
3.84803
3.72798
3.41907
2.93258
2.2897
1.52084
0.661798
-0.274092
-1.16753
-1.99932
-2.72142
-3.2873
-3.65809
-3.80553
-3.71713
-3.39108
-2.845
-2.11224
-1.24117
-0.287469
0.675103
1.57476
2.34325
2.91674
3.24505
3.297
3.06325
2.56033
1.82995
0.936962
-0.0459328
-1.01204
-1.8725
-2.53944
-2.93985
-3.02812
-2.79197
-2.25625
-1.48242
-0.554775
0.435396
1.32354
2.02608
2.45185
2.54675
2.30246
1.76212
1.00858
-0.0682514
-0.91147
-1.62142
-2.08446
-2.22802
-2.03355
-1.54278
-0.83557
-0.0332858
0.717747
1.30288
1.62504
1.63882
1.35821
0.843294
0.196818
-0.45096
-0.991435
-1.33364
-1.43089
-1.28655
-0.942633
-0.473625
0.0372885
0.50356
0.856055
1.0459
3.91108
3.81262
3.61325
3.2813
2.82673
2.22635
1.51707
0.53551
4.46255
4.79176
5.09947
5.32916
5.50762
5.62353
5.66043
5.63559
5.55332
5.42081
5.24136
5.01871
4.75539
4.45379
4.11598
3.74408
3.34036
2.90732
2.44778
1.96481
1.46179
0.94246
0.410792
-0.128894
-0.672025
-1.21372
-1.74891
-2.27237
-2.77873
-3.26242
-3.71793
-4.13973
-4.52241
-4.86067
-5.14939
-5.38384
-5.55963
-5.67296
-5.72056
-5.69987
-5.60924
-5.44761
-5.21507
-4.91263
-4.54233
-4.1075
-3.61243
-3.06248
-2.46446
-1.82615
-1.15622
-0.464611
0.238126
0.940053
1.62927
2.29313
2.91883
3.49375
4.0056
4.4425
4.79369
5.04954
5.20202
5.24491
5.17469
4.98907
4.68882
4.27757
3.76195
3.15139
2.45843
1.6981
0.888024
0.0479678
-0.799398
-1.63119
-2.42373
-3.15304
-3.79577
-4.33021
-4.73693
-4.9995
-5.10529
-5.04622
-4.82057
-4.43214
-3.89082
-3.21281
-2.41926
-1.53804
-0.600738
0.359222
1.29674
2.17604
2.95778
3.60521
4.08596
4.37398
4.45123
4.3092
3.94979
3.38646
2.64428
1.75892
0.771392
-0.31846
-1.34353
-2.29822
-3.12717
-3.77641
-4.20076
-4.36779
-4.262
-3.88278
-3.25077
-2.40468
-1.40044
-0.302368
0.804629
1.83803
2.71949
3.37559
3.74886
3.80348
3.52928
2.94536
2.1004
1.06948
-0.063856
-1.17585
-2.1649
-2.92958
-3.38595
-3.48177
-3.20333
-2.57992
-1.68357
-0.612774
0.524059
1.54466
2.34935
2.83292
2.93348
2.64222
2.00992
1.13503
-0.0758965
-1.04779
-1.86355
-2.39188
-2.55038
-2.31926
-1.74789
-0.931766
-0.0095969
0.849817
1.51524
1.87656
1.88353
1.55389
0.959647
0.21922
-0.518674
-1.12983
-1.51193
-1.61417
-1.44273
-1.04871
-0.516378
0.0590142
0.580954
0.973687
1.18456
4.72365
4.68834
4.62533
4.53149
4.43352
4.33307
4.23678
4.18741
6.77414
6.73243
6.805
6.78732
6.77457
6.74047
6.67355
6.57533
6.43431
6.25036
6.02236
5.75135
5.438
5.08389
4.69065
4.26033
3.79522
3.298
2.77169
2.21968
1.64573
1.05395
0.448705
-0.164998
-0.782066
-1.39703
-2.00422
-2.5977
-3.17145
-3.7192
-4.23472
-4.71177
-5.14426
-5.52619
-5.8518
-6.11572
-6.31301
-6.43936
-6.49108
-6.4653
-6.36006
-6.1743
-5.90815
-5.56279
-5.14062
-4.64545
-4.08219
-3.45693
-2.77741
-2.05246
-1.29194
-0.507115
0.290165
1.08615
1.86744
2.61967
3.32835
3.97918
4.55823
5.05211
5.44859
5.73689
5.9079
5.95467
5.87276
5.66008
5.31762
4.84951
4.26329
3.56974
2.78305
1.92037
1.00183
0.0497304
-0.91008
-1.85188
-2.74869
-3.57339
-4.29958
-4.90271
-5.36093
-5.65573
-5.77259
-5.70206
-5.44264
-4.99911
-4.38263
-3.61179
-2.7105
-1.71034
-0.647448
0.440246
1.50208
2.49732
3.3814
4.11265
4.65465
4.97777
5.06175
4.89697
4.48587
3.84421
3.00102
1.99776
0.882479
-0.367415
-1.52329
-2.60185
-3.53888
-4.27231
-4.75052
-4.93689
-4.8131
-4.37969
-3.66025
-2.69906
-1.55988
-0.315458
0.937459
2.106
3.10146
3.84077
4.25905
4.31587
4.0002
3.33367
2.37221
1.20155
-0.0843558
-1.34386
-2.46295
-3.32623
-3.8387
-3.94145
-3.61943
-2.90647
-1.88519
-0.669283
0.616283
1.7708
2.67838
3.21969
3.32489
2.98471
2.25757
1.25865
-0.084547
-1.18705
-2.10996
-2.70377
-2.87649
-2.60727
-1.95316
-1.02649
0.0167221
0.985217
1.73085
2.13053
2.12947
1.74919
1.07438
0.239371
-0.588824
-1.27014
-1.69113
-1.79718
-1.59749
-1.15297
-0.55735
0.0817734
0.658269
1.09014
1.32136
5.65819
5.64151
5.60957
5.55619
5.49668
5.41468
5.3361
5.26941
7.76354
7.78302
7.84531
7.84566
7.81715
7.75329
7.644
7.4986
7.30989
7.07849
6.80245
6.48234
6.11807
5.71084
5.26184
4.77297
4.24652
3.68521
3.09231
2.47146
1.82677
1.16279
0.484073
-0.203341
-0.894066
-1.58202
-2.26089
-2.92408
-3.5649
-4.17636
-4.75157
-5.28357
-5.76557
-6.19089
-6.55312
-6.84627
-7.06482
-7.20396
-7.25959
-7.22849
-7.10844
-6.89836
-6.59844
-6.21007
-5.73596
-5.18043
-4.54899
-3.8485
-3.08762
-2.27622
-1.42534
-0.547542
0.344057
1.23381
2.10685
2.94711
3.73843
4.46478
5.11066
5.66112
6.10251
6.42287
6.61207
6.66236
6.56859
6.32868
5.94385
5.41877
4.76192
3.98537
3.10503
2.14017
1.11337
0.0496379
-1.02233
-2.07373
-3.07438
-3.994
-4.80315
-5.47451
-5.98384
-6.31067
-6.43876
-6.35589
-6.06226
-5.56347
-4.87181
-4.00809
-2.9993
-1.8805
-0.692079
0.522782
1.70847
2.81915
3.80502
4.61959
5.22232
5.58008
5.67032
5.48238
5.01925
4.2989
3.35432
2.23317
0.993366
-0.4198
-1.70319
-2.90512
-3.95006
-4.76735
-5.299
-5.50425
-5.36212
-4.87432
-4.06731
-2.99102
-1.71711
-0.326914
1.07132
2.37439
3.4832
4.30506
4.76776
4.82642
4.46892
3.71961
2.64133
1.33053
-0.106053
-1.51318
-2.76187
-3.72316
-4.29108
-4.40015
-4.03402
-3.23105
-2.08424
-0.723607
0.710263
1.9982
3.00801
3.60618
3.71513
3.32502
2.50168
1.37767
-0.0936907
-1.32706
-2.3569
-3.01541
-3.20145
-2.89336
-2.15568
-1.11848
0.0449685
1.1217
1.94637
2.38314
2.37308
1.94143
1.18598
0.257274
-0.660187
-1.41023
-1.86865
-1.97741
-1.74886
-1.25409
-0.596155
0.105138
0.734437
1.20393
1.4546
6.54171
6.53111
6.51075
6.47591
6.44164
6.39295
6.36007
6.33455
8.98385
8.92531
8.93476
8.88994
8.81791
8.71597
8.56967
8.38512
8.15555
7.8816
7.56115
7.19456
6.78145
6.3228
5.81957
5.27358
4.68706
4.06294
3.40468
2.71624
2.00206
1.26703
0.516406
-0.243511
-1.00662
-1.76627
-2.51551
-3.24711
-3.95374
-4.62773
-5.26149
-5.84739
-6.37794
-6.84581
-7.24391
-7.56567
-7.805
-7.95658
-8.01588
-7.97935
-7.8445
-7.61024
-7.27687
-6.84595
-6.32055
-5.70546
-5.00682
-4.23223
-3.39123
-2.49474
-1.55494
-0.585692
0.39876
1.38072
2.34397
3.27077
4.14326
4.94378
5.65525
6.26114
6.74648
7.09814
7.30499
7.35849
7.2528
6.98589
6.55918
5.97783
5.25126
4.39286
3.42026
2.35477
1.22132
0.0479227
-1.13444
-2.29357
-3.39623
-4.40904
-5.29954
-6.03777
-6.59712
-6.95536
-7.09508
-6.99892
-6.67114
-6.11776
-5.35196
-4.3966
-3.28196
-2.04635
-0.734442
0.605447
1.91286
3.13698
4.22277
5.11907
5.78125
6.17277
6.26881
6.05768
5.54296
4.74465
3.69943
2.4613
1.10116
-0.473067
-1.87977
-3.20364
-4.35509
-5.25481
-5.83885
-6.06237
-5.90176
-5.36015
-4.46668
-3.27683
-1.87015
-0.336896
1.20414
2.63938
3.85945
4.76216
5.26817
5.3283
4.92925
4.09823
2.90456
1.45495
-0.128531
-1.68131
-3.05744
-4.11487
-4.7369
-4.85172
-4.44162
-3.54948
-2.27846
-0.774966
0.80433
2.22353
3.33364
3.98714
4.09905
3.65889
2.73943
1.49054
-0.102692
-1.46589
-2.60101
-3.32258
-3.52096
-3.17389
-2.35306
-1.20669
0.0744043
1.25726
2.15882
2.63108
2.6113
2.12837
1.29319
0.27304
-0.731633
-1.54821
-2.04226
-2.15277
-1.89519
-1.35113
-0.632547
0.128704
0.808559
1.31382
1.58291
7.35421
7.34722
7.33402
7.31202
7.29356
7.2647
7.25135
7.237
10.0169
9.94977
9.93169
9.86178
9.75898
9.6255
9.44684
9.22797
8.9621
8.64966
8.28845
7.87852
7.41945
6.912
6.35694
5.75606
5.11163
4.42676
3.70523
2.95126
2.16971
1.3658
0.545337
-0.28492
-1.11828
-1.94748
-2.76498
-3.56291
-4.33332
-5.06793
-5.75847
-6.39661
-6.97422
-7.48331
-7.91617
-8.26563
-8.52503
-8.68859
-8.75134
-8.70939
-8.5599
-8.30191
-7.93581
-7.46333
-6.88788
-6.21476
-5.45068
-4.60397
-3.68504
-2.7058
-1.67957
-0.62147
0.453357
1.52489
2.57579
3.58665
4.53798
5.41046
6.18553
6.84514
7.37298
7.75485
7.97865
8.03515
7.91759
7.62423
7.15663
6.5204
5.72588
4.78777
3.72535
2.56196
1.32491
0.0446421
-1.24491
-2.50865
-3.71036
-4.81356
-5.78293
-6.5859
-7.19359
-7.58213
-7.73454
-7.6236
-7.26236
-6.65575
-5.81776
-4.77315
-3.55547
-2.20621
-0.774347
0.686983
2.11264
3.44692
4.62967
5.60522
6.32494
6.74901
6.85042
6.61641
6.05117
5.1766
4.03259
2.67912
1.2002
-0.521772
-2.05007
-3.49385
-4.7493
-5.72912
-6.36387
-6.60496
-6.42595
-5.83174
-4.85394
-3.55343
-2.01745
-0.345543
1.3342
2.89776
4.22576
5.20677
5.75455
5.8158
5.37607
4.46539
3.15922
1.57434
-0.151932
-1.8461
-3.34603
-4.49669
-5.17094
-5.29095
-4.83764
-3.85829
-2.46583
-0.822932
0.896942
2.44394
3.65133
4.35812
4.4723
3.98274
2.96859
1.59608
-0.110971
-1.60186
-2.83943
-3.62173
-3.8314
-3.44583
-2.54336
-1.2903
0.104321
1.39013
2.36572
2.87159
2.84161
2.30822
1.39509
0.286855
-0.80217
-1.6825
-2.21015
-2.32155
-2.03521
-1.44335
-0.666391
0.152111
0.879911
1.41888
1.70525
8.08862
8.08359
8.07443
8.05835
8.04607
8.02536
8.01775
8.00533
10.9561
10.8803
10.845
10.7581
10.6331
10.475
10.2697
10.0214
9.72355
9.37648
8.97801
8.5281
8.02626
7.47307
6.8692
6.2162
5.51655
4.77357
3.99135
3.17458
2.32843
1.45839
0.570874
-0.326907
-1.22773
-2.12372
-3.00671
-3.86824
-4.69983
-5.49259
-6.2376
-6.92588
-7.54862
-8.09724
-8.56343
-8.93945
-9.21806
-9.39306
-9.45904
-9.41182
-9.24793
-8.96691
-8.56912
-8.05649
-7.43273
-6.70366
-5.87657
-4.96044
-3.96651
-2.90766
-1.7983
-0.65482
0.507082
1.66467
2.79985
3.89154
4.91861
5.86019
6.6963
7.40742
7.97594
8.38664
8.62654
8.68594
8.55664
8.23768
7.73061
7.04146
6.18141
5.16652
4.01763
2.75994
1.42323
0.040173
-1.35245
-2.71674
-4.01358
-5.20361
-6.24861
-7.11362
-7.76744
-8.18462
-8.35207
-8.22364
-7.83034
-7.17246
-6.26497
-5.13439
-3.81744
-2.35878
-0.811603
0.766343
2.3057
3.74586
5.02172
6.07329
6.84812
7.30331
7.40969
7.15335
6.53925
5.59095
4.35101
2.88464
1.28575
-0.561289
-2.21221
-3.77306
-5.12894
-6.18578
-6.86908
-7.12695
-6.92978
-6.28476
-5.22562
-3.81842
-2.15782
-0.352959
1.46002
3.14694
4.57855
5.63458
6.22228
6.28433
5.80526
4.81775
3.40314
1.68792
-0.175888
-2.00574
-3.6247
-4.86483
-5.58901
-5.71365
-5.21837
-4.15469
-2.64482
-0.867189
0.986799
2.65711
3.95787
4.71549
4.83136
4.29369
3.18748
1.69345
-0.118062
-1.73364
-3.06979
-3.90996
-4.12988
-3.70676
-2.72506
-1.36875
0.134081
1.51888
2.56503
3.10248
3.06206
2.47964
1.49099
0.298937
-0.87096
-1.8118
-2.37087
-2.48244
-2.16804
-1.53021
-0.697639
0.175048
0.947942
1.51842
1.82087
8.74895
8.74478
8.7372
8.72304
8.71191
8.69332
8.68606
8.67328
11.8152
11.7308
11.683
11.5835
11.441
11.2636
11.0362
10.7626
10.4368
10.0586
9.6261
9.13955
8.59834
8.0028
7.35325
6.65127
5.89935
5.10122
4.26136
3.38491
2.4774
1.5446
0.593239
-0.368762
-1.33382
-2.29335
-3.23857
-4.1605
-5.0502
-5.89823
-6.69503
-7.43097
-8.0966
-8.68277
-9.18065
-9.58193
-9.87876
-10.0646
-10.1335
-10.081
-9.90325
-9.60018
-9.17208