/*--------------------------------*- C++ -*----------------------------------*\
  =========                 |
  \\      /  F ield         | OpenFOAM: The Open Source CFD Toolbox
   \\    /   O peration     | Website:  https://openfoam.org
    \\  /    A nd           | Version:  12
     \\/     M anipulation  |
\*---------------------------------------------------------------------------*/
FoamFile
{
    format      ascii;
    class       volVectorField;
    location    "17.28";
    object      zeta;
}
// * * * * * * * * * * * * * * * * * * * * * * * * * * * * * * * * * * * * * //

dimensions      [0 1 0 0 0 0 0];

internalField   uniform (0 0 0);

boundaryField
{
    freeSurface
    {
        type            calculated;
        value           nonuniform List<vector> 
181
(
(0 -0.00116981 0)
(0 -0.00117068 0)
(0 -0.00117042 0)
(0 -0.00117014 0)
(0 -0.00116944 0)
(0 -0.00116918 0)
(0 -0.00116832 0)
(0 -0.00116807 0)
(0 -0.00143966 0)
(0 -0.00142926 0)
(0 -0.00142337 0)
(0 -0.00140971 0)
(0 -0.00139185 0)
(0 -0.00137136 0)
(0 -0.00134252 0)
(0 -0.00131031 0)
(0 -0.00126984 0)
(0 -0.00122383 0)
(0 -0.00117099 0)
(0 -0.0011121 0)
(0 -0.00104708 0)
(0 -0.000975822 0)
(0 -0.000898421 0)
(0 -0.000814814 0)
(0 -0.000725347 0)
(0 -0.000630499 0)
(0 -0.000531055 0)
(0 -0.00042751 0)
(0 -0.000320374 0)
(0 -0.000210317 0)
(0 -9.79033e-05 0)
(0 1.59651e-05 0)
(0 0.000130357 0)
(0 0.000244165 0)
(0 0.000356375 0)
(0 0.000465975 0)
(0 0.000571768 0)
(0 0.000672671 0)
(0 0.0007675 0)
(0 0.000855015 0)
(0 0.000934097 0)
(0 0.00100368 0)
(0 0.00106272 0)
(0 0.00111035 0)
(0 0.00114566 0)
(0 0.00116811 0)
(0 0.00117684 0)
(0 0.00117138 0)
(0 0.00115149 0)
(0 0.00111691 0)
(0 0.00106764 0)
(0 0.00100389 0)
(0 0.000926089 0)
(0 0.000834965 0)
(0 0.00073136 0)
(0 0.000616425 0)
(0 0.000491661 0)
(0 0.000358727 0)
(0 0.000219439 0)
(0 7.58753e-05 0)
(0 -6.95577e-05 0)
(0 -0.00021449 0)
(0 -0.000356539 0)
(0 -0.000493144 0)
(0 -0.000621626 0)
(0 -0.000739546 0)
(0 -0.000844395 0)
(0 -0.000933545 0)
(0 -0.00100497 0)
(0 -0.0010566 0)
(0 -0.00108674 0)
(0 -0.00109429 0)
(0 -0.00107828 0)
(0 -0.00103856 0)
(0 -0.00097543 0)
(0 -0.000889665 0)
(0 -0.000782746 0)
(0 -0.000656716 0)
(0 -0.000514081 0)
(0 -0.000358022 0)
(0 -0.00019206 0)
(0 -2.06813e-05 0)
(0 0.000151705 0)
(0 0.000320217 0)
(0 0.000480181 0)
(0 0.000626508 0)
(0 0.000754381 0)
(0 0.000859428 0)
(0 0.00093772 0)
(0 0.000986 0)
(0 0.00100183 0)
(0 0.000983642 0)
(0 0.000931184 0)
(0 0.000845423 0)
(0 0.000728474 0)
(0 0.000583695 0)
(0 0.000415911 0)
(0 0.000230644 0)
(0 3.51117e-05 0)
(0 -0.000163383 0)
(0 -0.000357029 0)
(0 -0.000537549 0)
(0 -0.000696855 0)
(0 -0.000827391 0)
(0 -0.000922385 0)
(0 -0.000976855 0)
(0 -0.00098691 0)
(0 -0.000950978 0)
(0 -0.000869826 0)
(0 -0.000746339 0)
(0 -0.000585841 0)
(0 -0.000395906 0)
(0 -0.000186043 0)
(0 3.2532e-05 0)
(0 0.000248431 0)
(0 0.000449389 0)
(0 0.000623416 0)
(0 0.000759375 0)
(0 0.00084821 0)
(0 0.000883668 0)
(0 0.000861423 0)
(0 0.000782473 0)
(0 0.000650537 0)
(0 0.000474343 0)
(0 0.000265453 0)
(0 3.91317e-05 0)
(0 -0.000187737 0)
(0 -0.000398576 0)
(0 -0.000575789 0)
(0 -0.000704528 0)
(0 -0.000773138 0)
(0 -0.000774999 0)
(0 -0.000709079 0)
(0 -0.000580873 0)
(0 -0.000401574 0)
(0 -0.00018802 0)
(0 3.82298e-05 0)
(0 0.000256616 0)
(0 0.0004449 0)
(0 0.000582901 0)
(0 0.000655748 0)
(0 0.000655283 0)
(0 0.000581346 0)
(0 0.000442091 0)
(0 0.000253795 0)
(0 3.95457e-05 0)
(0 -0.000175233 0)
(0 -0.000365809 0)
(0 -0.000507577 0)
(0 -0.000582267 0)
(0 -0.000580462 0)
(0 -0.000502739 0)
(0 -0.000360118 0)
(0 -0.000173303 0)
(0 2.91771e-05 0)
(0 0.000220795 0)
(0 0.000373251 0)
(0 0.00046393 0)
(0 0.00048031 0)
(0 0.000421422 0)
(0 0.000298303 0)
(0 0.000132971 0)
(0 -4.45446e-05 0)
(0 -0.000207634 0)
(0 -0.000328437 0)
(0 -0.000388315 0)
(0 -0.000380351 0)
(0 -0.000310022 0)
(0 -0.000194535 0)
(0 -6.05e-05 0)
(0 6.9551e-05 0)
(0 0.000171349 0)
(0 0.000229603 0)
(0 0.000239522 0)
(0 0.000205023 0)
(0 0.000139576 0)
(0 5.9012e-05 0)
(0 -2.08442e-05 0)
(0 -8.8253e-05 0)
(0 -0.000136046 0)
(0 -0.000160682 0)
)
;
    }
    walls
    {
        type            calculated;
        value           uniform (0 0 0);
    }
    floatingObject
    {
        type            calculated;
        value           uniform (0 0 0);
    }
    frontAndBack
    {
        type            empty;
    }
}


// ************************************************************************* //
