/*--------------------------------*- C++ -*----------------------------------*\
  =========                 |
  \\      /  F ield         | OpenFOAM: The Open Source CFD Toolbox
   \\    /   O peration     | Website:  https://openfoam.org
    \\  /    A nd           | Version:  12
     \\/     M anipulation  |
\*---------------------------------------------------------------------------*/
FoamFile
{
    format      ascii;
    class       volScalarField;
    location    "11.7";
    object      p;
}
// * * * * * * * * * * * * * * * * * * * * * * * * * * * * * * * * * * * * * //

dimensions      [1 -1 -2 0 0 0 0];

internalField   nonuniform List<scalar> 
3829
(
-611.287
-611.288
-611.29
-611.293
-611.297
-611.302
-611.308
-611.315
-611.324
-611.334
-611.345
-611.358
-611.373
-611.389
-611.407
-611.427
-611.449
-611.473
-611.498
-611.526
-611.557
-611.59
-611.625
-611.662
-611.703
-611.745
-611.791
-611.839
-611.89
-611.943
-611.999
-612.058
-612.119
-612.183
-612.249
-612.318
-612.388
-612.46
-612.534
-612.61
-612.687
-612.765
-612.844
-612.924
-613.004
-613.084
-613.164
-613.243
-613.321
-613.398
-613.473
-613.545
-613.616
-613.683
-613.748
-613.808
-613.865
-613.918
-613.966
-614.009
-614.045
-614.078
-614.106
-614.128
-614.145
-614.155
-614.159
-614.158
-614.152
-614.141
-614.126
-614.106
-614.083
-614.057
-614.029
-613.999
-613.969
-613.938
-613.907
-613.879
-613.852
-613.829
-613.809
-613.794
-613.785
-613.782
-613.785
-613.795
-613.814
-613.839
-613.872
-613.912
-613.959
-614.011
-614.069
-614.131
-614.197
-614.264
-614.332
-614.4
-614.465
-614.526
-614.582
-614.632
-614.674
-614.707
-614.73
-614.743
-614.742
-614.731
-614.709
-614.678
-614.637
-614.589
-614.536
-614.478
-614.419
-614.359
-614.303
-614.251
-614.206
-614.17
-614.144
-614.13
-614.127
-614.136
-614.157
-614.187
-614.225
-614.27
-614.317
-614.369
-614.415
-614.455
-614.487
-614.509
-614.519
-614.516
-614.499
-614.469
-614.429
-614.38
-614.325
-614.267
-614.212
-614.162
-614.12
-614.091
-614.075
-614.075
-614.09
-614.118
-614.158
-614.206
-614.259
-614.312
-614.36
-614.4
-614.429
-614.445
-614.447
-614.437
-614.416
-614.388
-614.347
-614.315
-614.286
-614.265
-614.253
-614.25
-614.256
-614.269
-614.286
-614.304
-614.319
-614.329
-614.332
-614.328
-614.317
-614.302
-614.285
-614.27
-614.26
-614.256
-614.261
-614.273
-614.292
-614.314
-614.335
-614.353
-614.365
-614.368
-614.363
-614.349
-614.328
-614.304
-614.278
-614.254
-614.236
-614.227
-1769.57
-1769.57
-1769.57
-1769.57
-1769.57
-1769.58
-1769.58
-1769.59
-1769.6
-1769.61
-1769.62
-1769.63
-1769.64
-1769.65
-1769.67
-1769.69
-1769.71
-1769.73
-1769.76
-1769.78
-1769.81
-1769.85
-1769.88
-1769.92
-1769.96
-1770.01
-1770.06
-1770.11
-1770.16
-1770.22
-1770.28
-1770.34
-1770.41
-1770.48
-1770.55
-1770.63
-1770.71
-1770.79
-1770.87
-1770.96
-1771.04
-1771.13
-1771.22
-1771.31
-1771.4
-1771.49
-1771.58
-1771.67
-1771.75
-1771.84
-1771.92
-1772
-1772.08
-1772.15
-1772.22
-1772.29
-1772.35
-1772.41
-1772.46
-1772.5
-1772.54
-1772.57
-1772.6
-1772.61
-1772.63
-1772.63
-1772.63
-1772.62
-1772.61
-1772.59
-1772.57
-1772.53
-1772.5
-1772.46
-1772.42
-1772.38
-1772.34
-1772.29
-1772.25
-1772.21
-1772.18
-1772.14
-1772.12
-1772.09
-1772.08
-1772.07
-1772.07
-1772.08
-1772.1
-1772.13
-1772.17
-1772.22
-1772.27
-1772.33
-1772.4
-1772.47
-1772.55
-1772.63
-1772.71
-1772.79
-1772.87
-1772.94
-1773.01
-1773.07
-1773.12
-1773.15
-1773.18
-1773.19
-1773.19
-1773.17
-1773.15
-1773.11
-1773.05
-1773
-1772.93
-1772.86
-1772.78
-1772.71
-1772.64
-1772.58
-1772.53
-1772.48
-1772.45
-1772.44
-1772.44
-1772.45
-1772.48
-1772.52
-1772.57
-1772.63
-1772.69
-1772.75
-1772.81
-1772.86
-1772.9
-1772.93
-1772.94
-1772.93
-1772.91
-1772.88
-1772.83
-1772.77
-1772.7
-1772.63
-1772.56
-1772.5
-1772.45
-1772.42
-1772.4
-1772.4
-1772.42
-1772.46
-1772.51
-1772.57
-1772.63
-1772.69
-1772.75
-1772.8
-1772.83
-1772.84
-1772.84
-1772.83
-1772.8
-1772.76
-1772.72
-1772.68
-1772.64
-1772.62
-1772.6
-1772.6
-1772.61
-1772.63
-1772.65
-1772.68
-1772.7
-1772.71
-1772.71
-1772.71
-1772.69
-1772.67
-1772.65
-1772.63
-1772.62
-1772.62
-1772.62
-1772.64
-1772.66
-1772.68
-1772.71
-1772.73
-1772.74
-1772.75
-1772.74
-1772.73
-1772.7
-1772.67
-1772.64
-1772.62
-1772.6
-1772.59
-2795.6
-2795.6
-2795.6
-2795.6
-2795.6
-2795.6
-2795.6
-2795.61
-2795.61
-2795.61
-2795.62
-2795.62
-2795.63
-2795.64
-2795.65
-2795.67
-2795.68
-2795.7
-2795.72
-2795.75
-2795.78
-2795.81
-2795.85
-2795.89
-2795.93
-2795.98
-2796.03
-2796.09
-2796.15
-2796.22
-2796.29
-2796.37
-2796.44
-2796.53
-2796.61
-2796.7
-2796.8
-2796.89
-2796.99
-2797.09
-2797.19
-2797.3
-2797.4
-2797.51
-2797.61
-2797.72
-2797.83
-2797.93
-2798.03
-2798.13
-2798.23
-2798.33
-2798.42
-2798.5
-2798.58
-2798.66
-2798.73
-2798.79
-2798.84
-2798.89
-2798.93
-2798.96
-2798.98
-2799
-2799
-2799
-2798.98
-2798.96
-2798.93
-2798.9
-2798.85
-2798.8
-2798.75
-2798.69
-2798.62
-2798.56
-2798.49
-2798.43
-2798.36
-2798.3
-2798.25
-2798.2
-2798.15
-2798.12
-2798.09
-2798.08
-2798.08
-2798.09
-2798.11
-2798.15
-2798.19
-2798.25
-2798.32
-2798.4
-2798.49
-2798.59
-2798.69
-2798.79
-2798.9
-2799
-2799.1
-2799.2
-2799.28
-2799.36
-2799.42
-2799.46
-2799.49
-2799.5
-2799.49
-2799.47
-2799.43
-2799.37
-2799.3
-2799.22
-2799.13
-2799.03
-2798.93
-2798.84
-2798.75
-2798.66
-2798.59
-2798.54
-2798.5
-2798.48
-2798.49
-2798.51
-2798.55
-2798.61
-2798.68
-2798.76
-2798.85
-2798.93
-2799.01
-2799.08
-2799.14
-2799.17
-2799.19
-2799.18
-2799.16
-2799.11
-2799.04
-2798.96
-2798.87
-2798.78
-2798.69
-2798.61
-2798.55
-2798.5
-2798.48
-2798.49
-2798.51
-2798.56
-2798.63
-2798.71
-2798.79
-2798.87
-2798.95
-2799.01
-2799.04
-2799.06
-2799.06
-2799.03
-2798.99
-2798.94
-2798.88
-2798.82
-2798.78
-2798.75
-2798.73
-2798.73
-2798.75
-2798.78
-2798.81
-2798.85
-2798.87
-2798.89
-2798.89
-2798.88
-2798.86
-2798.84
-2798.81
-2798.78
-2798.77
-2798.76
-2798.76
-2798.78
-2798.81
-2798.84
-2798.88
-2798.9
-2798.92
-2798.93
-2798.92
-2798.9
-2798.87
-2798.84
-2798.8
-2798.77
-2798.75
-2798.73
-3704.51
-3704.51
-3704.5
-3704.5
-3704.5
-3704.49
-3704.48
-3704.48
-3704.47
-3704.46
-3704.46
-3704.45
-3704.45
-3704.45
-3704.45
-3704.45
-3704.46
-3704.47
-3704.48
-3704.5
-3704.53
-3704.55
-3704.59
-3704.63
-3704.68
-3704.73
-3704.79
-3704.85
-3704.93
-3705
-3705.09
-3705.18
-3705.27
-3705.37
-3705.47
-3705.58
-3705.7
-3705.82
-3705.94
-3706.07
-3706.19
-3706.32
-3706.45
-3706.59
-3706.72
-3706.85
-3706.98
-3707.11
-3707.24
-3707.36
-3707.48
-3707.6
-3707.7
-3707.81
-3707.9
-3707.99
-3708.07
-3708.14
-3708.2
-3708.26
-3708.29
-3708.32
-3708.34
-3708.35
-3708.34
-3708.32
-3708.29
-3708.25
-3708.2
-3708.14
-3708.06
-3707.99
-3707.9
-3707.81
-3707.71
-3707.62
-3707.52
-3707.42
-3707.32
-3707.23
-3707.15
-3707.08
-3707.01
-3706.96
-3706.92
-3706.9
-3706.89
-3706.9
-3706.93
-3706.97
-3707.03
-3707.11
-3707.2
-3707.31
-3707.43
-3707.56
-3707.69
-3707.83
-3707.97
-3708.11
-3708.25
-3708.37
-3708.48
-3708.58
-3708.66
-3708.71
-3708.75
-3708.76
-3708.74
-3708.71
-3708.65
-3708.56
-3708.46
-3708.35
-3708.22
-3708.09
-3707.95
-3707.82
-3707.7
-3707.59
-3707.49
-3707.42
-3707.38
-3707.36
-3707.37
-3707.41
-3707.47
-3707.55
-3707.65
-3707.77
-3707.89
-3708.01
-3708.12
-3708.22
-3708.29
-3708.34
-3708.36
-3708.36
-3708.32
-3708.25
-3708.16
-3708.05
-3707.93
-3707.8
-3707.68
-3707.57
-3707.49
-3707.43
-3707.4
-3707.41
-3707.45
-3707.52
-3707.62
-3707.72
-3707.84
-3707.95
-3708.04
-3708.12
-3708.16
-3708.18
-3708.17
-3708.13
-3708.07
-3707.99
-3707.91
-3707.84
-3707.78
-3707.74
-3707.73
-3707.73
-3707.76
-3707.8
-3707.85
-3707.9
-3707.93
-3707.96
-3707.96
-3707.95
-3707.92
-3707.88
-3707.84
-3707.81
-3707.78
-3707.77
-3707.78
-3707.8
-3707.84
-3707.88
-3707.92
-3707.96
-3707.98
-3707.99
-3707.98
-3707.95
-3707.92
-3707.88
-3707.83
-3707.79
-3707.77
-3707.75
-4509.7
-4509.7
-4509.69
-4509.68
-4509.67
-4509.65
-4509.63
-4509.61
-4509.58
-4509.55
-4509.53
-4509.5
-4509.47
-4509.45
-4509.43
-4509.42
-4509.4
-4509.4
-4509.4
-4509.41
-4509.43
-4509.45
-4509.48
-4509.53
-4509.58
-4509.64
-4509.71
-4509.79
-4509.87
-4509.97
-4510.07
-4510.19
-4510.31
-4510.43
-4510.56
-4510.7
-4510.84
-4510.99
-4511.14
-4511.29
-4511.45
-4511.61
-4511.77
-4511.94
-4512.1
-4512.26
-4512.43
-4512.58
-4512.74
-4512.89
-4513.04
-4513.18
-4513.31
-4513.44
-4513.55
-4513.66
-4513.75
-4513.84
-4513.9
-4513.96
-4514
-4514.02
-4514.03
-4514.03
-4514.01
-4513.97
-4513.92
-4513.85
-4513.77
-4513.68
-4513.57
-4513.45
-4513.33
-4513.2
-4513.06
-4512.92
-4512.78
-4512.64
-4512.5
-4512.37
-4512.25
-4512.15
-4512.06
-4511.98
-4511.92
-4511.89
-4511.87
-4511.88
-4511.92
-4511.98
-4512.06
-4512.16
-4512.28
-4512.43
-4512.58
-4512.76
-4512.94
-4513.12
-4513.31
-4513.5
-4513.67
-4513.84
-4513.98
-4514.11
-4514.21
-4514.28
-4514.32
-4514.33
-4514.3
-4514.25
-4514.16
-4514.05
-4513.91
-4513.75
-4513.57
-4513.39
-4513.21
-4513.03
-4512.87
-4512.72
-4512.6
-4512.51
-4512.45
-4512.44
-4512.45
-4512.51
-4512.6
-4512.72
-4512.86
-4513.02
-4513.18
-4513.35
-4513.5
-4513.63
-4513.73
-4513.8
-4513.83
-4513.82
-4513.76
-4513.67
-4513.54
-4513.4
-4513.23
-4513.05
-4512.9
-4512.76
-4512.65
-4512.57
-4512.54
-4512.56
-4512.62
-4512.71
-4512.84
-4512.98
-4513.14
-4513.28
-4513.41
-4513.5
-4513.56
-4513.57
-4513.55
-4513.49
-4513.4
-4513.3
-4513.19
-4513.09
-4513.02
-4512.97
-4512.95
-4512.97
-4513.01
-4513.07
-4513.14
-4513.2
-4513.26
-4513.29
-4513.29
-4513.27
-4513.23
-4513.18
-4513.12
-4513.07
-4513.04
-4513.03
-4513.04
-4513.07
-4513.12
-4513.17
-4513.22
-4513.27
-4513.3
-4513.31
-4513.29
-4513.26
-4513.22
-4513.17
-4513.11
-4513.07
-4513.03
-4513.01
-5223.13
-5223.12
-5223.1
-5223.08
-5223.04
-5223
-5222.95
-5222.89
-5222.83
-5222.77
-5222.7
-5222.64
-5222.58
-5222.52
-5222.46
-5222.41
-5222.37
-5222.34
-5222.32
-5222.31
-5222.32
-5222.33
-5222.36
-5222.4
-5222.46
-5222.52
-5222.61
-5222.7
-5222.81
-5222.93
-5223.06
-5223.2
-5223.35
-5223.51
-5223.67
-5223.84
-5224.02
-5224.2
-5224.39
-5224.59
-5224.78
-5224.98
-5225.18
-5225.38
-5225.59
-5225.79
-5225.99
-5226.18
-5226.38
-5226.56
-5226.74
-5226.91
-5227.08
-5227.23
-5227.37
-5227.49
-5227.6
-5227.7
-5227.78
-5227.84
-5227.88
-5227.9
-5227.9
-5227.88
-5227.84
-5227.78
-5227.71
-5227.61
-5227.49
-5227.36
-5227.21
-5227.04
-5226.87
-5226.68
-5226.49
-5226.3
-5226.11
-5225.92
-5225.73
-5225.56
-5225.4
-5225.25
-5225.13
-5225.02
-5224.95
-5224.9
-5224.88
-5224.89
-5224.93
-5225.01
-5225.11
-5225.25
-5225.41
-5225.59
-5225.8
-5226.03
-5226.26
-5226.51
-5226.75
-5226.99
-5227.22
-5227.43
-5227.62
-5227.78
-5227.91
-5228
-5228.05
-5228.05
-5228.02
-5227.94
-5227.82
-5227.66
-5227.47
-5227.26
-5227.03
-5226.78
-5226.54
-5226.31
-5226.09
-5225.9
-5225.75
-5225.63
-5225.57
-5225.55
-5225.58
-5225.66
-5225.78
-5225.94
-5226.14
-5226.35
-5226.57
-5226.79
-5226.99
-5227.17
-5227.3
-5227.39
-5227.43
-5227.41
-5227.33
-5227.21
-5227.04
-5226.84
-5226.62
-5226.4
-5226.19
-5226.01
-5225.86
-5225.77
-5225.74
-5225.76
-5225.84
-5225.97
-5226.14
-5226.33
-5226.54
-5226.72
-5226.88
-5227
-5227.07
-5227.08
-5227.04
-5226.95
-5226.83
-5226.69
-5226.55
-5226.42
-5226.33
-5226.27
-5226.25
-5226.28
-5226.34
-5226.42
-5226.52
-5226.61
-5226.68
-5226.71
-5226.72
-5226.69
-5226.63
-5226.56
-5226.49
-5226.42
-5226.38
-5226.36
-5226.38
-5226.42
-5226.48
-5226.55
-5226.62
-5226.67
-5226.71
-5226.72
-5226.7
-5226.66
-5226.61
-5226.55
-5226.48
-5226.43
-5226.38
-5226.36
-5855.32
-5855.3
-5855.27
-5855.22
-5855.16
-5855.08
-5854.99
-5854.89
-5854.77
-5854.65
-5854.51
-5854.38
-5854.24
-5854.12
-5854
-5853.89
-5853.8
-5853.73
-5853.67
-5853.63
-5853.62
-5853.62
-5853.65
-5853.7
-5853.76
-5853.85
-5853.96
-5854.09
-5854.24
-5854.4
-5854.57
-5854.75
-5854.94
-5855.14
-5855.34
-5855.56
-5855.78
-5856
-5856.23
-5856.46
-5856.7
-5856.94
-5857.19
-5857.43
-5857.68
-5857.92
-5858.16
-5858.4
-5858.63
-5858.86
-5859.08
-5859.29
-5859.48
-5859.66
-5859.83
-5859.98
-5860.11
-5860.22
-5860.31
-5860.38
-5860.42
-5860.44
-5860.43
-5860.39
-5860.33
-5860.25
-5860.13
-5860
-5859.84
-5859.66
-5859.46
-5859.24
-5859.01
-5858.76
-5858.51
-5858.26
-5858
-5857.75
-5857.51
-5857.28
-5857.07
-5856.88
-5856.72
-5856.58
-5856.48
-5856.42
-5856.39
-5856.41
-5856.46
-5856.56
-5856.69
-5856.86
-5857.07
-5857.31
-5857.58
-5857.86
-5858.17
-5858.48
-5858.79
-5859.1
-5859.39
-5859.66
-5859.89
-5860.09
-5860.25
-5860.36
-5860.42
-5860.42
-5860.36
-5860.26
-5860.1
-5859.89
-5859.64
-5859.36
-5859.06
-5858.75
-5858.44
-5858.14
-5857.87
-5857.63
-5857.43
-5857.29
-5857.21
-5857.19
-5857.24
-5857.35
-5857.51
-5857.73
-5857.98
-5858.26
-5858.55
-5858.84
-5859.1
-5859.32
-5859.49
-5859.6
-5859.65
-5859.62
-5859.52
-5859.36
-5859.14
-5858.88
-5858.6
-5858.31
-5858.05
-5857.81
-5857.64
-5857.52
-5857.48
-5857.52
-5857.63
-5857.8
-5858.01
-5858.26
-5858.53
-5858.76
-5858.96
-5859.1
-5859.18
-5859.19
-5859.13
-5859.01
-5858.85
-5858.67
-5858.49
-5858.33
-5858.2
-5858.13
-5858.12
-5858.16
-5858.25
-5858.36
-5858.49
-5858.6
-5858.69
-5858.74
-5858.74
-5858.7
-5858.62
-5858.53
-5858.43
-5858.35
-5858.3
-5858.28
-5858.3
-5858.35
-5858.42
-5858.51
-5858.59
-5858.66
-5858.7
-5858.72
-5858.7
-5858.65
-5858.58
-5858.51
-5858.43
-5858.37
-5858.32
-5858.29
-6415.68
-6415.65
-6415.58
-6415.48
-6415.34
-6415.16
-6414.95
-6414.71
-6414.45
-6414.2
-6413.96
-6413.73
-6413.52
-6413.33
-6413.15
-6413
-6412.87
-6412.76
-6412.68
-6412.62
-6412.6
-6412.6
-6412.63
-6412.69
-6412.78
-6412.91
-6413.07
-6413.26
-6413.47
-6413.68
-6413.91
-6414.14
-6414.38
-6414.62
-6414.86
-6415.12
-6415.38
-6415.65
-6415.92
-6416.2
-6416.49
-6416.78
-6417.07
-6417.36
-6417.65
-6417.94
-6418.23
-6418.52
-6418.8
-6419.07
-6419.33
-6419.57
-6419.81
-6420.02
-6420.22
-6420.4
-6420.55
-6420.68
-6420.78
-6420.86
-6420.9
-6420.91
-6420.89
-6420.84
-6420.75
-6420.64
-6420.49
-6420.31
-6420.1
-6419.87
-6419.61
-6419.33
-6419.03
-6418.72
-6418.4
-6418.07
-6417.75
-6417.43
-6417.13
-6416.84
-6416.57
-6416.33
-6416.12
-6415.96
-6415.83
-6415.75
-6415.72
-6415.73
-6415.8
-6415.92
-6416.09
-6416.3
-6416.56
-6416.86
-6417.2
-6417.56
-6417.94
-6418.33
-6418.72
-6419.1
-6419.46
-6419.79
-6420.08
-6420.33
-6420.52
-6420.65
-6420.71
-6420.71
-6420.63
-6420.49
-6420.29
-6420.02
-6419.71
-6419.36
-6418.98
-6418.59
-6418.2
-6417.82
-6417.48
-6417.18
-6416.94
-6416.77
-6416.68
-6416.66
-6416.73
-6416.87
-6417.09
-6417.37
-6417.69
-6418.04
-6418.41
-6418.77
-6419.09
-6419.37
-6419.59
-6419.72
-6419.77
-6419.73
-6419.61
-6419.4
-6419.12
-6418.8
-6418.45
-6418.09
-6417.76
-6417.47
-6417.25
-6417.12
-6417.08
-6417.13
-6417.27
-6417.48
-6417.76
-6418.06
-6418.39
-6418.68
-6418.92
-6419.1
-6419.19
-6419.19
-6419.11
-6418.96
-6418.75
-6418.52
-6418.29
-6418.09
-6417.94
-6417.85
-6417.84
-6417.9
-6418.02
-6418.17
-6418.33
-6418.47
-6418.58
-6418.64
-6418.64
-6418.58
-6418.49
-6418.37
-6418.25
-6418.14
-6418.08
-6418.06
-6418.08
-6418.15
-6418.24
-6418.35
-6418.45
-6418.53
-6418.58
-6418.59
-6418.57
-6418.51
-6418.43
-6418.34
-6418.25
-6418.18
-6418.12
-6418.09
-6912.64
-6912.59
-6912.5
-6912.37
-6912.18
-6911.96
-6911.72
-6911.46
-6911.1
-6910.69
-6910.26
-6909.85
-6909.47
-6909.12
-6908.79
-6908.51
-6908.26
-6908.06
-6907.9
-6907.78
-6907.71
-6907.69
-6907.72
-6907.79
-6907.91
-6908.07
-6908.27
-6908.51
-6908.77
-6909.05
-6909.33
-6909.62
-6909.91
-6910.2
-6910.5
-6910.8
-6911.11
-6911.42
-6911.74
-6912.06
-6912.39
-6912.72
-6913.06
-6913.4
-6913.75
-6914.09
-6914.43
-6914.76
-6915.09
-6915.41
-6915.71
-6916
-6916.28
-6916.53
-6916.76
-6916.97
-6917.15
-6917.3
-6917.41
-6917.49
-6917.54
-6917.54
-6917.51
-6917.44
-6917.33
-6917.18
-6916.99
-6916.76
-6916.5
-6916.21
-6915.89
-6915.54
-6915.17
-6914.78
-6914.39
-6913.98
-6913.58
-6913.19
-6912.81
-6912.46
-6912.13
-6911.83
-6911.58
-6911.37
-6911.22
-6911.12
-6911.09
-6911.11
-6911.19
-6911.33
-6911.54
-6911.81
-6912.13
-6912.5
-6912.91
-6913.35
-6913.81
-6914.28
-6914.76
-6915.22
-6915.66
-6916.06
-6916.41
-6916.7
-6916.93
-6917.08
-6917.16
-6917.14
-6917.05
-6916.87
-6916.61
-6916.28
-6915.89
-6915.46
-6915
-6914.52
-6914.04
-6913.58
-6913.17
-6912.81
-6912.52
-6912.32
-6912.21
-6912.2
-6912.29
-6912.47
-6912.75
-6913.09
-6913.49
-6913.93
-6914.38
-6914.82
-6915.22
-6915.56
-6915.81
-6915.98
-6916.03
-6915.98
-6915.82
-6915.56
-6915.22
-6914.82
-6914.39
-6913.96
-6913.56
-6913.21
-6912.95
-6912.79
-6912.75
-6912.81
-6912.99
-6913.26
-6913.6
-6913.98
-6914.37
-6914.72
-6915.01
-6915.21
-6915.32
-6915.31
-6915.2
-6915.01
-6914.75
-6914.46
-6914.18
-6913.94
-6913.76
-6913.67
-6913.66
-6913.74
-6913.89
-6914.08
-6914.28
-6914.45
-6914.59
-6914.65
-6914.65
-6914.58
-6914.45
-6914.31
-6914.16
-6914.04
-6913.96
-6913.93
-6913.97
-6914.04
-6914.16
-6914.28
-6914.4
-6914.5
-6914.56
-6914.57
-6914.55
-6914.47
-6914.38
-6914.28
-6914.18
-6914.09
-6914.02
-6913.98
-7353.58
-7353.51
-7353.35
-7353.09
-7352.72
-7352.22
-7351.56
-7350.68
-7349.52
-7348.75
-7348.07
-7347.48
-7346.99
-7346.58
-7346.23
-7345.94
-7345.71
-7345.52
-7345.38
-7345.29
-7345.25
-7345.25
-7345.32
-7345.45
-7345.66
-7345.96
-7346.31
-7347.06
-7347.53
-7347.94
-7348.3
-7348.62
-7348.94
-7349.25
-7349.57
-7349.9
-7350.24
-7350.59
-7350.95
-7351.32
-7351.69
-7352.07
-7352.46
-7352.85
-7353.24
-7353.64
-7354.03
-7354.42
-7354.8
-7355.17
-7355.52
-7355.86
-7356.18
-7356.48
-7356.74
-7356.98
-7357.19
-7357.36
-7357.49
-7357.58
-7357.62
-7357.62
-7357.58
-7357.49
-7357.35
-7357.16
-7356.93
-7356.65
-7356.33
-7355.97
-7355.58
-7355.16
-7354.71
-7354.25
-7353.77
-7353.28
-7352.8
-7352.33
-7351.87
-7351.45
-7351.05
-7350.7
-7350.4
-7350.15
-7349.97
-7349.85
-7349.81
-7349.83
-7349.94
-7350.11
-7350.36
-7350.68
-7351.07
-7351.51
-7352
-7352.53
-7353.08
-7353.65
-7354.21
-7354.76
-7355.28
-7355.75
-7356.17
-7356.52
-7356.78
-7356.96
-7357.04
-7357.02
-7356.89
-7356.67
-7356.36
-7355.96
-7355.49
-7354.97
-7354.41
-7353.84
-7353.27
-7352.73
-7352.24
-7351.81
-7351.47
-7351.24
-7351.12
-7351.11
-7351.23
-7351.45
-7351.79
-7352.2
-7352.69
-7353.21
-7353.76
-7354.28
-7354.76
-7355.16
-7355.47
-7355.66
-7355.72
-7355.65
-7355.45
-7355.14
-7354.73
-7354.25
-7353.74
-7353.22
-7352.74
-7352.34
-7352.03
-7351.84
-7351.8
-7351.89
-7352.1
-7352.43
-7352.84
-7353.29
-7353.75
-7354.17
-7354.51
-7354.75
-7354.86
-7354.84
-7354.71
-7354.47
-7354.15
-7353.81
-7353.47
-7353.18
-7352.98
-7352.87
-7352.87
-7352.97
-7353.16
-7353.39
-7353.63
-7353.84
-7354
-7354.07
-7354.06
-7353.97
-7353.83
-7353.65
-7353.47
-7353.33
-7353.23
-7353.21
-7353.25
-7353.34
-7353.47
-7353.63
-7353.76
-7353.87
-7353.94
-7353.95
-7353.93
-7353.83
-7353.73
-7353.62
-7353.5
-7353.4
-7353.32
-7353.28
-7745.12
-7745.04
-7744.86
-7744.58
-7744.21
-7743.75
-7743.28
-7742.75
-7741.13
-7739.98
-7738.92
-7738
-7737.19
-7736.5
-7735.91
-7735.41
-7734.99
-7734.67
-7734.42
-7734.26
-7734.18
-7734.17
-7734.24
-7734.4
-7734.64
-7734.98
-7735.33
-7736.09
-7736.32
-7736.66
-7737.03
-7737.4
-7737.78
-7738.15
-7738.51
-7738.88
-7739.25
-7739.63
-7740.02
-7740.42
-7740.84
-7741.27
-7741.7
-7742.14
-7742.59
-7743.04
-7743.49
-7743.93
-7744.37
-7744.79
-7745.2
-7745.59
-7745.95
-7746.29
-7746.6
-7746.87
-7747.11
-7747.3
-7747.44
-7747.54
-7747.59
-7747.58
-7747.53
-7747.41
-7747.24
-7747.02
-7746.74
-7746.41
-7746.03
-7745.6
-7745.14
-7744.64
-7744.11
-7743.56
-7743
-7742.42
-7741.86
-7741.3
-7740.77
-7740.26
-7739.8
-7739.39
-7739.03
-7738.74
-7738.53
-7738.4
-7738.34
-7738.38
-7738.5
-7738.71
-7739.01
-7739.39
-7739.84
-7740.36
-7740.94
-7741.55
-7742.2
-7742.86
-7743.52
-7744.17
-7744.77
-7745.32
-7745.81
-7746.21
-7746.51
-7746.71
-7746.8
-7746.77
-7746.61
-7746.35
-7745.97
-7745.5
-7744.95
-7744.34
-7743.68
-7743.01
-7742.34
-7741.71
-7741.13
-7740.64
-7740.25
-7739.98
-7739.85
-7739.85
-7739.99
-7740.27
-7740.66
-7741.16
-7741.73
-7742.35
-7743
-7743.61
-7744.17
-7744.63
-7744.99
-7745.21
-7745.28
-7745.19
-7744.95
-7744.58
-7744.1
-7743.53
-7742.93
-7742.33
-7741.77
-7741.3
-7740.94
-7740.74
-7740.69
-7740.8
-7741.06
-7741.45
-7741.93
-7742.46
-7742.99
-7743.48
-7743.87
-7744.14
-7744.27
-7744.24
-7744.07
-7743.78
-7743.41
-7743
-7742.61
-7742.27
-7742.03
-7741.91
-7741.93
-7742.05
-7742.28
-7742.55
-7742.84
-7743.09
-7743.27
-7743.35
-7743.34
-7743.23
-7743.05
-7742.84
-7742.63
-7742.46
-7742.36
-7742.33
-7742.38
-7742.49
-7742.64
-7742.82
-7742.97
-7743.1
-7743.17
-7743.19
-7743.15
-7743.05
-7742.94
-7742.81
-7742.68
-7742.56
-7742.48
-7742.43
-8093.37
-8093.4
-8093.46
-8093.59
-8093.81
-8094.16
-8094.7
-8095.38
-8082.49
-8082.37
-8082.23
-8082.28
-8082.39
-8082.58
-8082.84
-8083.13
-8083.47
-8083.84
-8084.24
-8084.66
-8085.1
-8085.55
-8086.03
-8086.51
-8087.01
-8087.51
-8088.02
-8088.52
-8089.02
-8089.52
-8090
-8090.46
-8090.9
-8091.32
-8091.7
-8092.05
-8092.36
-8092.62
-8092.83
-8093
-8093.11
-8093.15
-8093.14
-8093.07
-8092.93
-8092.73
-8092.47
-8092.14
-8091.76
-8091.32
-8090.82
-8090.28
-8089.7
-8089.09
-8088.45
-8087.8
-8087.14
-8086.48
-8085.84
-8085.22
-8084.64
-8084.11
-8083.63
-8083.23
-8082.9
-8082.65
-8082.5
-8082.44
-8082.49
-8082.63
-8082.88
-8083.22
-8083.66
-8084.19
-8084.79
-8085.45
-8086.16
-8086.91
-8087.67
-8088.43
-8089.16
-8089.86
-8090.49
-8091.04
-8091.5
-8091.84
-8092.06
-8092.15
-8092.11
-8091.93
-8091.62
-8091.18
-8090.63
-8089.99
-8089.28
-8088.53
-8087.75
-8086.98
-8086.26
-8085.6
-8085.04
-8084.6
-8084.3
-8084.15
-8084.16
-8084.33
-8084.65
-8085.12
-8085.69
-8086.36
-8087.07
-8087.83
-8088.53
-8089.16
-8089.7
-8090.1
-8090.35
-8090.42
-8090.32
-8090.04
-8089.6
-8089.04
-8088.4
-8087.7
-8087.01
-8086.37
-8085.83
-8085.43
-8085.2
-8085.15
-8085.28
-8085.59
-8086.04
-8086.6
-8087.21
-8087.82
-8088.37
-8088.82
-8089.12
-8089.26
-8089.22
-8089.01
-8088.67
-8088.24
-8087.77
-8087.32
-8086.94
-8086.67
-8086.54
-8086.56
-8086.71
-8086.97
-8087.3
-8087.63
-8087.92
-8088.12
-8088.22
-8088.19
-8088.06
-8087.85
-8087.61
-8087.37
-8087.18
-8087.06
-8087.03
-8087.09
-8087.22
-8087.39
-8087.59
-8087.77
-8087.9
-8087.98
-8088
-8087.96
-8087.85
-8087.72
-8087.57
-8087.43
-8087.31
-8087.21
-8087.17
-8401.53
-8401.55
-8401.56
-8401.59
-8401.61
-8401.63
-8401.7
-8401.63
-8386.78
-8386.97
-8387.04
-8387.23
-8387.45
-8387.7
-8387.98
-8388.3
-8388.66
-8389.05
-8389.48
-8389.93
-8390.41
-8390.91
-8391.43
-8391.97
-8392.52
-8393.08
-8393.64
-8394.21
-8394.77
-8395.32
-8395.86
-8396.38
-8396.87
-8397.34
-8397.77
-8398.15
-8398.5
-8398.79
-8399.03
-8399.21
-8399.33
-8399.38
-8399.37
-8399.28
-8399.12
-8398.88
-8398.58
-8398.21
-8397.77
-8397.26
-8396.7
-8396.08
-8395.42
-8394.72
-8394
-8393.25
-8392.5
-8391.76
-8391.03
-8390.33
-8389.67
-8389.06
-8388.53
-8388.07
-8387.69
-8387.42
-8387.25
-8387.19
-8387.24
-8387.41
-8387.69
-8388.09
-8388.59
-8389.18
-8389.86
-8390.62
-8391.43
-8392.27
-8393.14
-8393.99
-8394.82
-8395.61
-8396.32
-8396.94
-8397.45
-8397.83
-8398.08
-8398.18
-8398.12
-8397.91
-8397.54
-8397.04
-8396.42
-8395.69
-8394.88
-8394.02
-8393.14
-8392.28
-8391.46
-8390.72
-8390.09
-8389.59
-8389.26
-8389.1
-8389.12
-8389.32
-8389.69
-8390.23
-8390.89
-8391.64
-8392.45
-8393.31
-8394.1
-8394.82
-8395.43
-8395.88
-8396.16
-8396.23
-8396.11
-8395.79
-8395.29
-8394.65
-8393.91
-8393.13
-8392.34
-8391.62
-8391.02
-8390.57
-8390.31
-8390.26
-8390.43
-8390.78
-8391.3
-8391.93
-8392.62
-8393.31
-8393.93
-8394.43
-8394.77
-8394.91
-8394.85
-8394.61
-8394.22
-8393.73
-8393.19
-8392.68
-8392.25
-8391.95
-8391.81
-8391.84
-8392.03
-8392.33
-8392.7
-8393.08
-8393.4
-8393.63
-8393.74
-8393.71
-8393.55
-8393.31
-8393.04
-8392.77
-8392.55
-8392.42
-8392.39
-8392.46
-8392.61
-8392.8
-8393.02
-8393.22
-8393.37
-8393.45
-8393.47
-8393.42
-8393.3
-8393.16
-8393
-8392.84
-8392.71
-8392.61
-8392.56
-8674.44
-8674.44
-8674.44
-8674.46
-8674.46
-8674.49
-8674.52
-8674.52
-8657.18
-8657.28
-8657.33
-8657.47
-8657.68
-8657.93
-8658.22
-8658.56
-8658.95
-8659.37
-8659.82
-8660.31
-8660.83
-8661.38
-8661.95
-8662.55
-8663.15
-8663.77
-8664.4
-8665.02
-8665.64
-8666.25
-8666.85
-8667.42
-8667.97
-8668.49
-8668.96
-8669.39
-8669.78
-8670.1
-8670.36
-8670.56
-8670.69
-8670.74
-8670.72
-8670.62
-8670.44
-8670.17
-8669.83
-8669.41
-8668.91
-8668.34
-8667.71
-8667.02
-8666.27
-8665.49
-8664.68
-8663.84
-8663
-8662.17
-8661.35
-8660.57
-8659.83
-8659.16
-8658.56
-8658.05
-8657.63
-8657.33
-8657.14
-8657.07
-8657.14
-8657.33
-8657.65
-8658.09
-8658.65
-8659.32
-8660.09
-8660.93
-8661.83
-8662.78
-8663.75
-8664.7
-8665.63
-8666.5
-8667.29
-8667.98
-8668.54
-8668.97
-8669.23
-8669.33
-8669.26
-8669.02
-8668.61
-8668.04
-8667.34
-8666.52
-8665.62
-8664.66
-8663.67
-8662.71
-8661.79
-8660.97
-8660.27
-8659.72
-8659.36
-8659.18
-8659.22
-8659.45
-8659.88
-8660.48
-8661.22
-8662.07
-8662.98
-8663.94
-8664.82
-8665.62
-8666.3
-8666.8
-8667.1
-8667.18
-8667.03
-8666.67
-8666.11
-8665.39
-8664.57
-8663.69
-8662.82
-8662.02
-8661.34
-8660.85
-8660.57
-8660.52
-8660.71
-8661.11
-8661.7
-8662.4
-8663.18
-8663.94
-8664.63
-8665.18
-8665.55
-8665.7
-8665.63
-8665.35
-8664.91
-8664.35
-8663.75
-8663.18
-8662.7
-8662.37
-8662.23
-8662.27
-8662.48
-8662.83
-8663.25
-8663.67
-8664.03
-8664.29
-8664.4
-8664.36
-8664.18
-8663.91
-8663.6
-8663.3
-8663.06
-8662.92
-8662.89
-8662.97
-8663.13
-8663.35
-8663.59
-8663.81
-8663.97
-8664.06
-8664.08
-8664.02
-8663.89
-8663.74
-8663.56
-8663.39
-8663.25
-8663.14
-8663.09
-8916.18
-8916.18
-8916.19
-8916.2
-8916.2
-8916.22
-8916.23
-8916.23
-8896.43
-8896.54
-8896.61
-8896.77
-8896.98
-8897.24
-8897.55
-8897.91
-8898.32
-8898.77
-8899.27
-8899.8
-8900.36
-8900.96
-8901.58
-8902.23
-8902.9
-8903.57
-8904.26
-8904.94
-8905.62
-8906.29
-8906.95
-8907.58
-8908.18
-8908.74
-8909.27
-8909.74
-8910.15
-8910.51
-8910.8
-8911.01
-8911.15
-8911.21
-8911.18
-8911.06
-8910.86
-8910.56
-8910.18
-8909.71
-8909.16
-8908.53
-8907.83
-8907.06
-8906.24
-8905.37
-8904.47
-8903.55
-8902.62
-8901.69
-8900.79
-8899.93
-8899.12
-8898.37
-8897.71
-8897.15
-8896.69
-8896.36
-8896.15
-8896.09
-8896.16
-8896.38
-8896.73
-8897.23
-8897.85
-8898.59
-8899.44
-8900.37
-8901.37
-8902.41
-8903.48
-8904.53
-8905.55
-8906.51
-8907.37
-8908.13
-8908.75
-8909.21
-8909.5
-8909.6
-8909.52
-8909.24
-8908.78
-8908.15
-8907.37
-8906.47
-8905.47
-8904.4
-8903.32
-8902.25
-8901.25
-8900.34
-8899.58
-8898.98
-8898.58
-8898.4
-8898.44
-8898.71
-8899.19
-8899.86
-8900.68
-8901.62
-8902.63
-8903.68
-8904.66
-8905.54
-8906.28
-8906.83
-8907.16
-8907.24
-8907.07
-8906.67
-8906.04
-8905.25
-8904.34
-8903.37
-8902.41
-8901.53
-8900.79
-8900.25
-8899.95
-8899.9
-8900.12
-8900.57
-8901.22
-8902
-8902.85
-8903.7
-8904.45
-8905.05
-8905.45
-8905.61
-8905.52
-8905.21
-8904.71
-8904.09
-8903.43
-8902.8
-8902.28
-8901.92
-8901.76
-8901.81
-8902.06
-8902.45
-8902.91
-8903.38
-8903.78
-8904.06
-8904.18
-8904.13
-8903.93
-8903.63
-8903.29
-8902.95
-8902.69
-8902.54
-8902.51
-8902.6
-8902.78
-8903.02
-8903.28
-8903.52
-8903.69
-8903.79
-8903.81
-8903.74
-8903.6
-8903.43
-8903.25
-8903.07
-8902.91
-8902.8
-8902.74
-9130.33
-9130.33
-9130.33
-9130.34
-9130.34
-9130.35
-9130.35
-9130.35
-9108.3
-9108.4
-9108.5
-9108.66
-9108.89
-9109.16
-9109.5
-9109.89
-9110.32
-9110.81
-9111.34
-9111.91
-9112.52
-9113.17
-9113.85
-9114.55
-9115.27
-9116
-9116.75
-9117.49
-9118.23
-9118.96
-9119.67
-9120.36
-9121.01
-9121.62
-9122.19
-9122.7
-9123.16
-9123.54
-9123.85
-9124.09
-9124.23
-9124.29
-9124.26
-9124.13
-9123.9
-9123.58
-9123.16
-9122.64
-9122.04
-9121.35
-9120.58
-9119.74
-9118.84
-9117.89
-9116.9
-9115.89
-9114.88
-9113.87
-9112.88
-9111.94
-9111.05
-9110.24
-9109.52
-9108.91
-9108.42
-9108.05
-9107.83
-9107.76
-9107.85
-9108.09
-9108.48
-9109.02
-9109.71
-9110.52
-9111.44
-9112.46
-9113.55
-9114.68
-9115.86
-9117
-9118.11
-9119.15
-9120.09
-9120.91
-9121.58
-9122.08
-9122.39
-9122.5
-9122.4
-9122.09
-9121.58
-9120.89
-9120.04
-9119.04
-9117.95
-9116.79
-9115.6
-9114.44
-9113.35
-9112.37
-9111.54
-9110.89
-9110.46
-9110.27
-9110.33
-9110.62
-9111.15
-9111.89
-9112.8
-9113.83
-9114.93
-9116.07
-9117.14
-9118.1
-9118.91
-9119.5
-9119.85
-9119.94
-9119.75
-9119.3
-9118.62
-9117.74
-9116.75
-9115.69
-9114.64
-9113.69
-9112.89
-9112.3
-9111.98
-9111.94
-9112.18
-9112.68
-9113.39
-9114.25
-9115.18
-9116.09
-9116.91
-9117.56
-9117.99
-9118.15
-9118.05
-9117.7
-9117.15
-9116.47
-9115.75
-9115.06
-9114.49
-9114.11
-9113.94
-9114.01
-9114.28
-9114.71
-9115.22
-9115.74
-9116.18
-9116.48
-9116.6
-9116.54
-9116.32
-9115.99
-9115.61
-9115.25
-9114.97
-9114.8
-9114.77
-9114.87
-9115.07
-9115.34
-9115.62
-9115.87
-9116.06
-9116.16
-9116.17
-9116.1
-9115.96
-9115.77
-9115.57
-9115.38
-9115.22
-9115.1
-9115.03
-9320.02
-9320.03
-9320.03
-9320.03
-9320.03
-9320.04
-9320.04
-9320.04
-9295.92
-9296.02
-9296.13
-9296.31
-9296.55
-9296.84
-9297.2
-9297.61
-9298.08
-9298.6
-9299.17
-9299.79
-9300.44
-9301.14
-9301.86
-9302.62
-9303.4
-9304.19
-9304.99
-9305.79
-9306.59
-9307.37
-9308.14
-9308.88
-9309.58
-9310.24
-9310.85
-9311.41
-9311.89
-9312.31
-9312.64
-9312.89
-9313.05
-9313.11
-9313.07
-9312.93
-9312.68
-9312.33
-9311.87
-9311.31
-9310.65
-9309.9
-9309.07
-9308.16
-9307.19
-9306.16
-9305.09
-9304
-9302.9
-9301.81
-9300.74
-9299.72
-9298.77
-9297.89
-9297.12
-9296.46
-9295.93
-9295.54
-9295.3
-9295.23
-9295.32
-9295.58
-9296.01
-9296.6
-9297.34
-9298.22
-9299.23
-9300.33
-9301.51
-9302.73
-9303.99
-9305.23
-9306.43
-9307.55
-9308.56
-9309.45
-9310.16
-9310.7
-9311.02
-9311.14
-9311.02
-9310.68
-9310.13
-9309.38
-9308.45
-9307.37
-9306.19
-9304.94
-9303.65
-9302.4
-9301.22
-9300.17
-9299.27
-9298.58
-9298.13
-9297.93
-9297.99
-9298.32
-9298.9
-9299.7
-9300.68
-9301.8
-9303
-9304.22
-9305.38
-9306.42
-9307.28
-9307.92
-9308.3
-9308.38
-9308.17
-9307.68
-9306.94
-9306
-9304.92
-9303.77
-9302.64
-9301.62
-9300.76
-9300.13
-9299.79
-9299.75
-9300.01
-9300.56
-9301.33
-9302.26
-9303.27
-9304.25
-9305.13
-9305.83
-9306.28
-9306.46
-9306.33
-9305.95
-9305.35
-9304.61
-9303.83
-9303.09
-9302.48
-9302.07
-9301.9
-9301.97
-9302.28
-9302.75
-9303.3
-9303.86
-9304.33
-9304.66
-9304.79
-9304.72
-9304.47
-9304.11
-9303.7
-9303.32
-9303.01
-9302.83
-9302.8
-9302.91
-9303.13
-9303.42
-9303.72
-9303.98
-9304.18
-9304.29
-9304.3
-9304.23
-9304.07
-9303.88
-9303.67
-9303.46
-9303.29
-9303.16
-9303.1
-9488.07
-9488.07
-9488.07
-9488.07
-9488.07
-9488.08
-9488.08
-9488.08
-9462.06
-9462.17
-9462.29
-9462.48
-9462.74
-9463.05
-9463.43
-9463.87
-9464.37
-9464.93
-9465.53
-9466.19