/*--------------------------------*- C++ -*----------------------------------*\
  =========                 |
  \\      /  F ield         | OpenFOAM: The Open Source CFD Toolbox
   \\    /   O peration     | Website:  https://openfoam.org
    \\  /    A nd           | Version:  12
     \\/     M anipulation  |
\*---------------------------------------------------------------------------*/
FoamFile
{
    format      ascii;
    class       volScalarField;
    location    "50";
    object      p;
}
// * * * * * * * * * * * * * * * * * * * * * * * * * * * * * * * * * * * * * //

dimensions      [0 2 -2 0 0 0 0];

internalField   nonuniform List<scalar> 
10720
(
70.7989
9.91969
-62.7618
-136.979
-208.883
-283.608
-352.516
-413.362
-468.315
-514.066
-551.781
-582.267
-605.869
-623.161
-634.522
-639.89
-640.341
-634.494
-623.131
-604.997
-580.983
-550.441
-515.415
-476.821
-437.798
-402.813
-370.99
-339.171
-307.094
-275.053
-243.086
-211.251
-179.609
-147.991
-116.112
-82.9058
-48.2376
-7.09726
30.8745
129.141
181.075
233.195
279.186
313.908
333.047
338.562
333.437
316.99
292.527
264.974
237.68
211.909
188.378
167.45
148.276
130.7
114.124
98.2165
82.3436
66.4582
50.2056
33.756
17.6143
3.94155
-6.18496
-14.1279
-20.3738
-24.8754
-27.5209
-28.3218
-27.3539
-24.7571
-20.6475
-15.1823
-8.08306
1.08483
16.1752
40.8582
127.994
81.9841
29.3527
-27.9041
-88.06
-150.871
-213.309
-273.349
-330.132
-381.909
-428.078
-468.289
-502.309
-530.162
-551.846
-567.167
-576.189
-578.458
-574.418
-563.528
-546.25
-522.376
-493.406
-460.403
-426.088
-394.188
-364.296
-333.964
-303.035
-271.891
-240.646
-209.392
-178.209
-146.949
-115.34
-82.3355
-47.8228
-6.72145
30.3899
168.56
206.294
242.625
275.855
302.319
319.15
325.583
321.953
309.271
290.114
267.429
243.569
219.901
197.301
176.274
156.637
138.302
120.954
104.308
87.9188
71.655
55.2728
38.9043
23.0466
9.36514
-1.22253
-9.68476
-16.4397
-21.4336
-24.5474
-25.7793
-25.2131
-22.9843
-19.2018
-14.0056
-7.10788
1.9178
16.9513
40.6294
133.124
92.2021
45.1745
-7.43779
-63.2592
-121.842
-181.574
-240.159
-296.129
-348.302
-395.403
-436.887
-472.409
-501.785
-524.846
-541.53
-551.852
-555.804
-553.483
-544.617
-529.435
-508.005
-481.475
-451.038
-418.973
-388.349
-359.25
-329.781
-299.656
-269.208
-238.561
-207.794
-176.993
-146.024
-114.632
-81.7974
-47.4257
-6.46314
30.3274
169.218
203.056
235.382
264.463
287.334
302.421
309.263
307.761
298.469
283.055
263.589
242.081
219.984
198.293
177.649
158.193
139.885
122.536
105.893
89.608
73.4939
57.3755
41.3424
25.8369
12.1723
1.26883
-7.46118
-14.4258
-19.6061
-22.9022
-24.3223
-23.9509
-21.9143
-18.3082
-13.2527
-6.45043
2.52807
17.4794
40.3069
138.856
104.194
63.978
19.0206
-29.0653
-80.354
-133.346
-186.422
-238.407
-288.123
-334.422
-376.555
-413.923
-446.087
-472.647
-493.355
-508.135
-516.752
-519.059
-514.806
-504.079
-487.036
-464.577
-437.899
-408.962
-380.404
-352.727
-324.537
-295.504
-265.958
-236.061
-205.899
-175.569
-144.958
-113.834
-81.2143
-47.0321
-6.30851
30.2654
169.358
197.835
225.374
250.563
270.694
284.657
291.88
292.017
285.431
273.301
257.182
238.672
219.005
199.11
179.646
160.902
142.949
125.733
109.1
92.8121
76.7131
60.6886
44.8164
29.4981
15.8068
4.62269
-4.39089
-11.6205
-17.071
-20.6567
-22.3813
-22.3176
-20.5729
-17.2243
-12.3702
-5.70577
3.19038
18.0001
40.006
136.674
105.965
70.1709
30.0016
-13.0347
-59.3837
-107.784
-156.848
-205.689
-253.18
-298.234
-340.037
-377.848
-411.061
-439.174
-461.816
-478.69
-489.49
-494.041
-492.194
-484.006
-469.706
-450.028
-426.1
-399.614
-372.786
-346.318
-319.23
-291.189
-262.498
-233.34
-203.795
-173.959
-143.735
-112.915
-80.5519
-46.6144
-6.2099
29.981
163.742
188.89
213.341
235.823
253.962
267.078
274.573
275.981
271.575
262.181
248.957
233.165
215.81
197.728
179.568
161.702
144.306
127.429
111.011
94.9078
78.9974
63.2049
47.6049
32.5604
18.9549
7.60148
-1.63624
-9.08404
-14.7609
-18.5931
-20.5779
-20.7796
-19.2893
-16.1667
-11.4889
-4.94398
3.87582
18.5277
39.6964
132.465
105.156
73.2212
37.3971
-0.936582
-42.4708
-86.0696
-130.616
-175.472
-219.646
-262.212
-302.419
-339.501
-372.783
-401.696
-425.751
-444.503
-457.653
-464.933
-466.131
-461.179
-450.227
-433.848
-413.049
-389.297
-364.476
-339.434
-313.577
-286.622
-258.852
-230.468
-201.559
-172.231
-142.408
-111.91
-79.8357
-46.19
-6.19619
29.4813
156.573
178.929
200.853
221.182
237.764
250.196
257.859
260.221
257.515
250.344
239.598
226.28
211.192
195.041
178.419
161.71
145.145
128.846
112.828
97.0299
81.3803
65.8473
50.5165
35.7236
22.2121
10.7228
1.27299
-6.39027
-12.298
-16.3872
-18.649
-19.136
-17.9203
-15.0406
-10.552
-4.1377
4.59217
19.0462
39.3613
126.572
101.929
73.0528
40.6649
6.10404
-31.4921
-71.11
-111.788
-153.104
-194.186
-234.255
-272.65
-308.619
-341.477
-370.614
-395.458
-415.491
-430.305
-439.545
-442.946
-440.396
-432.035
-418.341
-400.203
-378.885
-355.966
-332.344
-307.721
-281.872
-255.044
-227.452
-199.194
-170.388
-140.984
-110.831
-79.0752
-45.7713
-6.28558
28.7897
148.367
168.545
188.476
207.078
222.409
234.256
241.998
245.071
243.685
238.306
229.632
218.47
205.457
191.169
176.123
160.677
145.082
129.509
114.032
98.6543
83.3607
68.1604
53.1534
38.6507
25.2866
13.7327
4.1166
-3.7369
-9.85933
-14.1932
-16.7206
-17.4803
-16.5273
-13.8815
-9.57771
-3.29695
5.33066
19.5437
38.9995
120.007
97.5886
71.2923
41.8292
10.4987
-23.6554
-59.7093
-96.8243
-134.731
-172.693
-210.044
-246.24
-280.598
-312.467
-341.228
-366.283
-387.061
-403.08
-413.957
-419.394
-419.182
-413.389
-402.377
-386.888
-368.005
-347.054
-324.937
-301.602
-276.896
-251.042
-224.267
-196.683
-168.424
-139.46
-109.677
-78.2725
-45.3602
-6.47626
27.9104
139.877
158.256
176.536
193.702
208.003
219.334
227.075
230.676
230.312
226.367
219.406
210.095
198.94
186.405
172.923
158.805
144.294
129.582
114.779
99.9405
85.0966
70.2957
55.6542
41.4636
28.2786
16.7082
6.95789
-1.06907
-7.39431
-11.9617
-14.7441
-15.7677
-15.0725
-12.6608
-8.54855
-2.41569
6.08647
20.0087
38.6008
113.146
92.5907
68.467
41.4713
12.873
-18.3276
-51.2913
-85.2639
-120.099
-155.156
-189.885
-223.848
-256.436
-287.051
-315.107
-339.999
-361.129
-377.983
-390.104
-397.168
-398.887
-395.28
-386.62
-373.527
-356.91
-337.875
-317.276
-295.24
-271.691
-246.833
-220.9
-194.019
-166.333
-137.839
-108.456
-77.4368
-44.9613
-6.76506
26.8438
131.404
148.285
165.18
181.132
194.556
205.418
213.103
217.089
217.515
214.716
209.166
201.423
191.899
180.963
168.972
156.179
142.805
129.039
115.009
100.804
86.4941
72.1587
57.9287
44.0831
31.1161
19.5835
9.74369
1.57314
-4.93176
-9.71312
-12.7344
-14.0092
-13.5645
-11.3861
-7.47263
-1.5046
6.84537
20.4261
38.1489
106.271
87.3078
65.0503
40.1817
13.9364
-14.6987
-44.944
-76.117
-108.158
-140.506
-172.712
-204.429
-235.123
-264.277
-291.342
-315.728
-336.852
-354.175
-367.199
-375.584
-378.986
-377.353
-370.863
-360.015
-345.562
-328.408
-309.344
-288.622
-266.245
-242.405
-217.34
-191.194
-164.118
-136.128
-107.179
-76.5812
-44.5833
-7.15297
25.6067
123.153
138.756
154.467
169.376
182.039
192.461
200.054
204.31
205.346
203.464
199.072
192.649
184.538
175.037
164.433
152.926
140.704
127.937
114.755
101.265
87.5635
73.7544
59.9821
46.5147
33.8038
22.361
12.4781
4.19587
-2.46494
-7.4416
-10.6875
-12.2032
-12.0043
-10.061
-6.35617
-0.572417
7.59704
20.7868
37.6352
99.5352
81.949
61.3099
38.2867
14.0869
-12.3081
-40.1646
-68.8599
-98.384
-128.25
-158.093
-187.645
-216.441
-244.036
-269.939
-293.599
-314.45
-331.956
-345.591
-354.995
-359.791
-359.852
-355.285
-346.476
-334.034
-318.692
-301.154
-281.751
-260.556
-237.756
-213.588
-188.21
-161.781
-134.335
-105.858
-75.7209
-44.241
-7.64572
24.2139
115.225
129.726
144.408
158.408
170.394
180.405
187.874
192.314
193.82
192.672
189.228
183.913
177.018
168.785
159.449
149.161
138.069
126.319
114.03
101.316
88.285
75.0588
61.7887
48.735
36.3199
25.0185
15.1414
6.78343
-0.00683569
-5.15832
-8.61368
-10.36
-10.4013
-8.69424
-5.2067
0.374337
8.33538
21.0889
37.0601
93.0291
76.6505
57.433
36.0311
13.6222
-10.8002
-36.5425
-63.0276
-90.2874
-117.889
-145.534
-173.021
-199.952
-225.953
-250.586
-273.35
-293.713
-311.154
-325.143
-335.298
-341.233
-342.75
-339.887
-332.93
-322.359
-308.753
-292.723
-274.64
-254.635
-232.893
-209.65
-185.074
-159.328
-132.465
-104.5
-74.8666
-43.9437
-8.24421
22.6825
107.678
121.216
134.99
148.183
159.563
169.185
176.509
181.063
182.928
182.367
179.702
175.314
169.459
162.338
154.145
144.99
134.983
124.242
112.869
100.971
88.6606
76.066
63.34
50.7366
38.6561
27.5448
17.7217
9.32545
2.43361
-2.87135
-6.52034
-8.48635
-8.7619
-7.2912
-4.02832
1.33302
9.0597
21.337
36.4312
86.8074
71.4954
53.5382
33.5724
12.7474
-9.92646
-33.7889
-58.2985
-83.5195
-109.066
-134.684
-160.232
-185.368
-209.781
-233.094
-254.855
-274.575
-291.756
-305.883
-316.553
-323.39
-326.127
-324.748
-319.448
-310.593
-298.633
-284.078
-267.308
-248.497
-227.828
-205.535
-181.791
-156.765
-130.524
-103.11
-74.0242
-43.697
-8.9451
21.0217
100.531
113.221
126.182
138.653
149.484
158.738
165.899
170.513
172.651
172.559
170.532
166.919
161.951
155.801
148.627
140.509
131.526
121.766
111.311
100.25
88.6944
76.7688
64.6247
52.5074
40.7995
29.9242
20.2028
11.8075
4.84424
-0.590681
-4.41577
-6.58925
-7.09163
-5.85594
-2.82329
2.30356
9.77135
21.5371
35.7592
80.8953
66.5353
49.705
31.0225
11.6088
-9.5039
-31.6871
-54.4252
-77.809
-101.488
-125.245
-148.983
-172.414
-195.278
-217.258
-237.953
-256.916
-273.684
-287.765
-298.742
-306.262
-310.006
-309.902
-306.074
-298.786
-288.372
-275.248
-259.776
-242.155
-222.571
-201.248
-178.364
-154.092
-128.51
-101.687
-73.1915
-43.4967
-9.73751
19.2456
93.7909
105.721
117.951
129.769
140.097
148.999
155.987
160.621
162.96
163.244
161.742
158.777
154.564
149.254
142.982
135.805
127.774
118.952
109.397
99.1797
88.3978
77.1696
65.6391
54.0405
42.7406
32.1447
22.5713
14.2171
7.21419
1.67458
-2.30737
-4.6748
-5.39525
-4.39216
-1.59393
3.28503
10.4715
21.6957
35.0541
75.3029
61.7999
45.9846
28.4578
10.3104
-9.40207
-30.0739
-51.219
-72.941
-94.918
-116.969
-139.029
-160.856
-182.235
-202.898
-222.495
-240.626
-256.865
-270.752
-281.868
-289.873
-294.424
-295.402
-292.862
-286.988
-278.014
-266.263
-252.064
-235.625
-217.13
-196.794
-174.794
-151.307
-126.422
-100.228
-72.3633
-43.3355
-10.6121
17.3701
87.4524
98.6957
110.262
121.487
131.348
139.911
146.72
151.34
153.826
154.409
153.338
150.916
147.345
142.763
137.285
130.954
123.799
115.86
107.172
97.7877
87.7866
77.2745
66.3828
55.3307
44.4713
34.1949
24.8136
16.541
9.532
3.91474
-0.203209
-2.74949
-3.6782
-2.90408
-0.34331
4.27596
11.1597
21.8166
34.323
70.0298
57.3054
42.4103
25.9315
8.92608
-9.51989
-28.8262
-48.5313
-68.7464
-89.1747
-109.664
-130.175
-150.498
-170.464
-189.846
-208.341
-225.595
-241.221
-254.793
-265.903
-274.222
-279.403
-281.28
-279.855
-275.244
-267.599
-257.154
-244.194
-228.922
-211.515
-192.175
-171.081
-148.407
-124.252
-98.7266
-71.5307
-43.2036
-11.5538
15.42
81.5021
92.1217
103.081
113.761
123.187
131.426
138.05
142.631
145.22
146.04
145.324
143.356
140.332
136.376
131.596
126.02
119.663
112.545
104.683
96.1087
86.8827
77.0938
66.8574
56.3758
45.9868
36.0661
26.9181
18.7668
11.7859
6.11931
1.88794
-0.820665
-1.94654
-1.39675
0.924399
5.27329
11.8349
21.9036
33.5717
65.0714
53.0568
39.0013
23.4789
7.51029
-9.7852
-27.8531
-46.2499
-65.0949
-84.1134
-103.172
-122.25
-141.174
-159.803
-177.954
-195.363
-211.718
-226.675
-239.839
-250.826
-259.311
-264.961
-267.569
-267.095
-263.602
-257.17
-247.956
-236.191
-222.062
-205.736
-187.401
-167.229
-145.393
-122
-97.1782
-70.6881
-43.0959
-12.5508
13.4201
75.9236
85.9736
96.3748
106.549
115.568
123.495
129.93
134.453
137.11
138.116
137.692
136.106
133.546
130.133
125.963
121.057
115.421
109.062
101.976
94.1789
85.7117
76.6435
67.0711
57.177
47.283
37.7505
28.8741
20.8825
13.9644
8.27799
3.95716
1.10422
-0.206627
0.124643
2.20499
6.27418
12.4956
21.9597
32.8041
60.4176
49.0543
35.7713
21.1232
6.10282
-10.1441
-27.0813
-44.2876
-61.8824
-79.6118
-97.3573
-115.117
-132.74
-150.117
-167.093
-183.444
-198.899
-213.148
-225.835
-236.601
-245.128
-251.106
-254.294
-254.62
-252.103
-246.769
-238.703
-228.081
-215.066
-199.807
-182.477
-163.239
-142.264
-119.663
-95.5794
-69.8301
-43.0073
-13.5884
11.3976
70.6985
80.2245
90.1101
99.8137
108.448
116.077
122.321
126.771
129.467
130.619
130.434
129.169
127.006
124.06
120.422
116.111
111.123
105.456
99.0936
92.0341
84.3004
75.9417
67.0344
57.739
48.3594
39.243
30.6725
22.8772
16.056
10.3798
5.99465
3.01677
1.53446
1.65415
3.49349
7.27497
13.1405
21.9886
32.026
56.0557
45.2938
32.7226
18.8817
4.72977
-10.5547
-26.4573
-42.5729
-59.0258
-75.5744
-92.1157
-108.66
-125.077
-141.28
-157.143
-172.473
-187.038
-200.562
-212.725
-223.195
-231.661
-237.841
-241.474
-242.46
-240.786
-236.434
-229.43
-219.893
-207.955
-193.745
-177.416
-159.122
-139.026
-117.244
-93.9298
-68.9565
-42.9378
-14.6567
9.36806
65.8085
74.8497
84.257
93.5197
101.79
109.132
115.184
119.55
122.262
123.527
123.539
122.543
120.719
118.177
115.004
111.217
106.81
101.772
96.0771
89.7105
82.6777
75.0089
66.7593
58.0679
49.2181
40.5407
32.3063
24.7411
18.0502
12.4144
7.99083
4.90858
3.26941
3.18577
4.78515
8.27247
13.7683
21.9941
31.2426
51.973
41.7691
29.857
16.7621
3.41131
-10.9877
-25.9382
-41.0544
-56.4588
-71.9239
-87.3568
-102.78
-118.078
-133.184
-147.998
-162.354
-176.05
-188.846
-200.453
-210.566
-218.889
-225.166
-229.122
-230.642
-229.686
-226.204
-220.172
-211.655
-200.751
-187.565
-172.229
-154.883
-135.682
-114.743
-92.229
-68.0662
-42.8841
-15.7455
7.34067
61.2347
69.8262
78.7868
87.6355
95.5601
102.625
108.487
112.759
115.47
116.82
116.994
116.226
114.691
112.498
109.732
106.407
102.518
98.0469
92.9643
87.2426
80.8732
73.8686
66.2637
58.1747
49.8629
41.6422
33.7698
26.4654
19.9364
14.371
9.93539
6.77032
4.99015
4.71269
6.07424
9.26264
14.3778
21.9797
30.4595
48.1554
38.4705
27.1724
14.7705
2.16054
-11.4202
-25.493
-39.6883
-54.128
-68.5959
-83.0098
-97.3974
-111.66
-125.745
-139.571
-153
-165.857
-177.93
-188.96
-198.676
-206.789
-213.072
-217.248
-219.188
-218.835
-216.115
-210.963
-203.398
-193.48
-181.288
-166.93
-150.533
-132.238
-112.164
-90.4788
-67.1594
-42.8456
-16.8498
5.31496
56.9601
65.1309
73.673
82.1312
89.7275
96.5262
102.2
106.371
109.067
110.478
110.785
110.21
108.923
107.033
104.62
101.703
98.2743
94.3148
89.7896
84.6635
78.9164
72.5452
65.5659
58.0711
50.3001
42.5488
35.0596
28.0431
21.7056
16.2395
11.8185
8.59284
6.68847
6.2281
7.35541
10.2421
14.968
21.9491
29.6823
44.5893
35.3894
24.6635
12.908
0.986101
-11.8358
-25.0958
-38.4412
-51.9891
-65.538
-79.0115
-92.4441
-105.747
-118.882
-131.784
-144.334
-156.383
-167.747
-178.195
-187.482
-195.335
-201.548
-205.855
-208.113
-208.258
-206.197
-201.836
-195.152
-186.167
-174.933
-161.536
-146.081
-128.701
-109.508
-88.6792
-66.2345
-42.8167
-17.9622
3.29171
52.9659
60.7424
68.8902
76.9806
84.264
90.806
96.2934
100.36
103.028
104.484
104.9
104.487
103.413
101.785
99.6827
97.1246
94.1044
90.603
86.5828
82.0038
76.8361
71.0634
64.6847
57.7708
50.5386
43.2642
36.1743
29.4687
23.3495
18.0103
13.6298
10.3663
8.35539
7.7244
8.62232
11.2064
15.5378
21.9057
28.917
41.2609
32.5147
22.3256
11.1746
-0.107473
-12.2228
-24.7285
-37.2857
-50.0101
-62.7081
-75.313
-87.861
-100.275
-112.525
-124.563
-136.284
-147.563
-158.238
-168.105
-176.943
-184.5
-190.582
-194.942
-197.433
-197.978
-196.481
-192.823
-186.946
-178.838
-168.523
-156.063
-141.542
-125.078
-106.782
-86.8324
-65.29
-42.7946
-19.0785
1.27125
49.2347
56.6411
64.4176
72.1592
79.1448
85.4392
90.7433
94.7012
97.3319
98.8183
99.3222
99.0473
98.1579
96.7581
94.9266
92.6843
90.0267
86.9346
83.3703
79.2907
74.659
69.4477
63.6411
57.2903
50.589
43.7937
37.1145
30.7384
24.8611
19.6748
15.3601
12.0814
9.98226
9.19426
9.86918
12.1519
16.0861
21.8526
28.1685
38.1566
29.837
20.1516
9.56771
-1.11654
-12.5726
-24.3762
-36.2018
-48.1612
-60.0727
-71.873
-83.6023
-95.1909
-106.619
-117.847
-128.789
-139.336
-149.346
-158.64
-167.018
-174.251
-180.155
-184.506
-187.151
-188.012
-186.99
-183.952
-178.81
-171.52
-162.08
-150.527
-136.926
-121.378
-103.989
-84.9388
-64.3227
-42.7706
-20.1878
-0.736959
45.7512
52.8085
60.2347
67.6461
74.3464
80.4011
85.5254
89.3727
91.9602
93.4643
94.04
93.8819
93.1512
91.95
90.3562
88.3926
86.0561
83.3293
80.1754
76.5494
72.4103
67.7221
62.4565
56.6465
50.4638
44.1444
37.8821
31.8504
26.2352
21.2246
17
13.7285
11.5597
10.6294
11.0893
13.0741
16.6122
21.7926
27.442
35.2631
27.3456
18.1348
8.08356
-2.03984
-12.8802
-24.0278
-35.1716
-46.4207
-57.6014
-68.6556
-79.6251
-90.4482
-101.112
-111.585
-121.795
-131.648
-141.021
-149.755
-157.67
-164.561
-170.249
-174.538
-177.272
-178.374
-177.749
-175.251
-170.771
-164.24
-155.628
-144.949
-132.249
-117.612
-101.136
-83.0013
-63.3297
-42.7397
-21.2806
-2.72094
42.5001
49.2281
56.3227
63.419
69.8462
75.6699
80.6184
84.3549
86.8935
88.4052
89.0386
88.9802
88.3871
87.3596
85.9743
84.2561
82.204
79.8027
77.0166
73.8013
70.1126
65.9084
61.1506
55.8564
50.1759
44.3256
38.4818
32.8042
27.4676
22.6536
18.5411
15.2986
13.0793
12.022
12.2768
13.9693
17.1149
21.7282
26.7417
32.5684
25.0309
16.2675
6.71803
-2.87918
-13.1416
-23.6757
-34.1835
-44.7705
-55.2712
-65.6326
-75.8962
-86.0076
-95.9597
-105.728
-115.251
-124.449
-133.214
-141.405
-148.862
-155.398
-160.846
-165.03
-167.798
-169.077
-168.774
-166.743
-162.855
-157.021
-149.188
-139.349
-127.526
-113.789
-98.2299
-81.0198
-62.3077
-42.6913
-22.3427
-4.66377
39.4671
45.8836
52.6631
59.459
65.6247
71.2256
76.0024
79.6283
82.114
83.6257
84.3053
84.3317
83.858
82.9825
81.7807
80.2788
78.4785
76.3666
73.91
71.0652
67.7866
64.0278
59.7435
54.937
49.7395
44.347
38.9193
33.6013
28.5557
23.9559
19.9759
16.783
14.5323
13.3638
13.4246
14.833
17.5933
21.6614
26.0713
30.0606
22.882
14.5424
5.46623
-3.63525
-13.3551
-23.3141
-33.2266
-43.1956
-53.0623
-62.779
-72.3866
-81.8369
-91.1261
-100.237
-109.117
-117.697
-125.883
-133.551
-140.559
-146.734
-151.923
-155.969
-158.725
-160.125
-160.081
-158.449
-155.087
-149.889
-142.785
-133.745
-122.774
-109.923
-95.2764
-78.9987
-61.2536
-42.6194
-23.3637
-6.55025
36.6386
42.7597
49.2398
55.749
61.6639
67.0504
71.6595
75.1751
77.6052
79.1106
79.827
79.9256
79.5558
78.8137
77.7736
76.4631
74.8859
73.0315
70.869
68.3571
65.4502
62.0995
58.2542
53.9068
49.1697
44.2202
39.2016
34.2448
29.499
25.1275
21.2978
18.174
15.9104
14.6473
14.5269
15.6614
18.0464
21.5938
25.4337
27.7282
20.8903
12.9511
4.32333
-4.3116
-13.52
-22.9386
-32.2943
-41.6846
-50.9598
-60.0754
-69.0727
-77.9068
-86.5793
-95.0766
-103.354
-111.352
-118.99
-126.157
-132.725
-138.542
-143.458
-147.341
-150.05
-151.522
-151.682
-150.386
-147.487
-142.867
-136.44
-128.157
-118.007
-106.026
-92.2829
-76.9377
-60.164
-42.5151
-24.3298
-8.36602
34.0015
39.8428
46.0377
52.2727
57.947
63.1266
67.5727
70.9792
73.3516
74.8458
75.5912
75.7517
75.4728
74.8481
73.9506
72.8091
71.4296
69.8037
67.9038
65.6903
63.1192
60.141
56.7008
52.782
48.4808
43.9567
39.3372
34.7389
30.2978
26.1656
22.5015
19.4642
17.2057
15.8646
15.5772
16.4502
18.4732
21.5267
24.8311
25.5604
19.0456
11.4867
3.28346
-4.91043
-13.6376
-22.5472
-31.3794
-40.228
-48.9503
-57.5042
-65.9323
-74.1931
-82.2899
-90.2147
-97.9285
-105.381
-112.5
-119.189
-125.332
-130.792
-135.432
-139.132
-141.764
-143.271
-143.585
-142.57
-140.076
-135.978
-130.176
-122.607
-113.245
-102.108
-89.2585
-74.8407
-59.0366
-42.3703
-25.2323
-10.0993
31.5445
37.1194
43.0425
49.0146
54.4585
59.4385
63.7261
67.0248
69.3386
70.8176
71.5855
71.7991
71.5998
71.0789
70.3072
69.3155
68.1113
66.6884
65.0223
63.0762
60.8079
58.1677
55.0991
51.5786
47.6875
43.5686
39.3352
35.0896
30.9543
27.0689
23.5828
20.6479
18.4113
17.0088
16.5697
17.1958
18.8727
21.4607
24.2653
23.5474
17.3396
10.1418
2.34106
-5.43606
-13.7076
-22.1379
-30.4782
-38.818
-47.0221
-55.0516
-62.9479
-70.6737
-78.2342
-85.6246
-92.8112
-99.7514
-106.381
-112.615
-118.349
-123.461
-127.821
-131.328
-133.86
-135.368
-135.796
-135.013
-132.871
-129.239
-124.012
-117.114
-108.503
-98.1851
-86.2092
-72.7102
-57.8682
-42.1784
-26.0601
-11.7388
29.256
34.5774
40.2408
45.9618
51.1839
55.9711
60.1053
63.298
65.5524
67.013
67.7981
68.0575
67.9278
67.4989
66.8391
65.9802
64.9316
63.6889
62.2308
60.5237
58.5273
56.193
53.464
50.3116
46.804
43.0687
39.2056
35.3035
31.4718
27.8373
24.539
21.7197
19.5207
18.073
17.4985
17.8941
19.2433
21.3958
23.7363
21.6796
15.7636
8.90917
1.49069
-5.89149
-13.733
-21.7107
-29.5874
-37.4494
-45.1678
-52.7061
-60.1054
-67.3316
-74.3913
-81.2825
-87.9764
-94.4362
-100.605
-106.407
-111.75
-116.524
-120.607
-123.912
-126.327
-127.812
-128.317
-127.724
-125.885
-122.671
-117.969
-111.695
-103.798
-94.2687
-83.1457
-70.5498
-56.6585
-41.9334
-26.8062
-13.2762
27.1259
32.2057
37.6211
43.1009
48.11
52.7114
56.696
59.7854
61.9802
63.4201
64.2176
64.5163
64.4484
64.1009
63.5405
62.7996
61.8892
60.8067
59.5337
58.04
56.2871
54.229
51.8089
48.9947
45.8438
42.4693
38.9585
35.3883
31.8549
28.4725
25.3684
22.6761
20.5289
19.0517
18.3587
18.5418
19.584
21.332
23.2446
19.9482
14.3102
7.78224
0.72697
-6.28139
-13.7151
-21.2655
-28.7057
-36.1181
-43.3801
-50.4583
-57.3924
-64.1515
-70.7432
-77.1683
-83.4015
-89.4108
-95.1465
-100.54
-105.51
-109.957
-113.77
-116.868
-119.155
-120.596
-121.151
-120.708
-119.13
-116.286
-112.062
-106.369
-99.1454
-90.3717
-80.0754
-68.3634
-55.4059
-41.6287
-27.4625
-14.703
25.1444
29.994
35.1718
40.4204
45.2246
49.6465
53.4862
56.4743
58.6094
60.0268
60.8332
61.1661
61.1527
60.8774
60.4056
59.7699
58.9821
58.0422
56.934
55.63
54.0952
52.2853
50.1455
47.6409
44.8197
41.7823
38.6045
35.3521
32.1089
28.9767
26.0709
23.5143
21.4314
19.9399
19.1453
19.1351
19.8929
21.2683
22.7886
18.3448
12.9714
6.75467
0.0446568
-6.60863
-13.6567
-20.8026
-27.8304
-34.8196
-41.6526
-48.2993
-54.7978
-61.1201
-67.2748
-73.264
-79.0663
-84.6536
-89.9824
-94.9915
-99.6072
-103.74
-107.289
-110.182
-112.334
-113.715
-114.295
-113.972
-112.615
-110.099
-106.309
-101.152
-94.5611
-86.5078
-77.0085
-66.1561
-54.11
-41.2605
-28.0231
-16.0117
23.3024
27.9322
32.8829
37.9092
42.5164
46.7651
50.4642
53.3529
55.429
56.8222
57.6343
57.9963
58.0312
57.8209
57.4281
56.886
56.2077
55.3942
54.4325
53.2976
51.9574
50.3703
48.4836
46.2614
43.7435
41.0191
38.1541
35.2037
32.2404
29.3539
26.6476
24.2331
22.2253
20.7335
19.8547
19.6712
20.1684
21.2035
22.3672
16.8615
11.7407
5.82023
-0.561101
-6.87767
-13.5597
-20.3229
-26.9619
-33.5513
-39.981
-46.2224
-52.3125
-58.2256
-63.9717
-69.5538
-74.9532
-80.1457
-85.0929
-89.7393
-94.0195
-97.8524
-101.147
-103.837
-105.849
-107.16
-107.746
-107.516
-106.347
-104.119
-100.721
-96.0582
-90.0595
-82.6887
-73.9534
-63.9322
-52.7714
-40.8233
-28.4817
-17.1963
21.5913
26.0112
30.7442
35.5575
39.975
44.0564
47.619
50.4108
52.428
53.7956
54.6107
54.9978
55.0755
54.923
54.6011
54.1427
53.5617
52.861
52.0294
51.045
49.8782
48.4906
46.8318
44.866
42.6261
40.191
37.6175
34.952
32.2564
29.6086
27.1005
24.8324
22.9085
21.4294
20.4834
20.1471
20.4087
21.1357
21.9773
15.4908
10.6107
4.97317
-1.09533
-7.09167
-13.427
-19.8279
-26.0987
-32.3119
-38.3617
-44.2222
-49.9293
-55.4595
-60.823
-66.024
-71.0467
-75.8696
-80.4588
-84.7647
-88.7282
-92.2761
-95.3265
-97.8189
-99.6907
-100.924
-101.501
-101.341
-100.331
-98.3561
-95.3105
-91.1009
-85.6537
-78.9269
-70.9199
-61.6975
-51.391
-40.3156
-28.8353
-18.2522
20.0029
24.2221
28.7469
33.3552
37.5902
41.5104
44.9405
47.6377
49.5965
50.9374
51.7529
52.1612
52.2771
52.1763
51.918
51.5341
51.0402
50.4396
49.7239
48.8729
47.8609
46.6515
45.1977
43.4638
41.4774
39.3081
37.0049
34.6063
32.1644
29.7466
27.4333
25.3133
23.4806
22.0257
21.0292
20.5607
20.612
21.0631
21.6165
14.2255
9.57552
4.20762
-1.56266
-7.25491
-13.2604
-19.318
-25.2412
-31.0992
-36.7911
-42.2937
-47.6413
-52.8125
-57.818
-62.6629
-67.3333
-71.8103
-76.0642
-80.0504
-83.7155
-86.9938
-89.8109
-92.1124
-93.8449
-94.9952
-95.5526
-95.4454
-94.5684
-92.8156
-90.0865
-86.2911
-81.3552
-75.2329
-67.9161
-59.457
-49.9703
-39.7351
-29.0806
-19.1762
18.5295
22.5568
26.8818
31.2937
35.3531
39.1174
42.4193
45.0239
46.9252
48.2384
49.0521
49.4784
49.6274
49.5729
49.3709
49.0544
48.6378
48.1269
47.5136
46.782
45.9071
44.8569
43.5869
42.0624
40.3062
38.38
36.3259
34.1755
31.9725
29.7741
27.6501
25.6783
23.9417
22.5216
21.4902
20.9099
20.7765
20.983
21.2806
13.0587
8.62836
3.51814
-1.96794
-7.37047
-13.0634
-18.7953
-24.3895
-29.912
-35.2669
-40.4326
-45.4429
-50.2775
-54.9477
-59.4595
-63.8005
-67.9543
-71.8944
-75.5808
-78.9658
-81.9894
-84.5849
-86.7033
-88.2998
-89.3654
-89.8948
-89.8248
-89.0596
-87.5013
-85.0561
-81.6382
-77.1744
-71.6166
-64.9508
-57.2165
-48.5124
-39.0814
-29.2168
-19.9668
17.1639
21.0074
25.1411
29.364
33.2546
36.8688
40.0465
42.561
44.4053
45.6901
46.4997
46.9407
47.1189
47.1053
46.954
46.697
46.3498
45.9183
45.3969
44.7707
44.0183
43.1098
42.0041
40.6681
39.1202
37.4152
35.5895
33.6687
31.6887
29.6981
27.7562
25.9307
24.2939
22.9174
21.8657
21.1936
20.9007
20.8933
20.9665
11.9839
7.76375
2.89933
-2.31545
-7.44272
-12.8379
-18.2612
-23.5441
-28.7492
-33.7865
-38.6356
-43.329
-47.8481
-52.2045
-56.4047
-60.4376
-64.2894
-67.9361
-71.3419
-74.4638
-77.2481
-79.6342
-81.5783
-83.0431
-84.0234
-84.5194
-84.4751
-83.8034
-82.4152
-80.2242
-77.1492
-73.1199
-68.0869
-62.0313
-54.9816
-47.0202
-38.3556
-29.244
-20.6239
15.8987
19.5667
23.5166
27.5583
31.2865
34.756
37.8135
40.2405
42.0286
43.2844
44.0879
44.5405
44.744
44.7664
44.6602
44.4564
44.1709
43.8101
43.37
42.8377
42.1941
41.4117
40.4529
39.286
37.9261
36.4218
34.8043
33.0944
31.3215
29.5258
27.7578
26.075
24.5398
23.2144
22.1555
21.4108
20.9828
20.7907
20.669
10.9951
6.97544
2.34627
-2.60974
-7.47465
-12.5871
-17.7173
-22.7051
-27.6109
-32.3485
-36.8996
-41.2952
-45.5185
-49.5813
-53.49
-57.2352
-60.8049
-64.1775
-67.3211
-70.1966
-72.7561
-74.9449
-76.724
-78.0625
-78.9592
-79.4182
-79.3901
-78.7969
-77.5577
-75.5937
-72.8295
-69.1988
-64.6516
-59.1652
-52.7585
-45.498
-37.5601
-29.1643
-21.1492
14.7276
18.2275
22.0015
25.8688
29.441
32.771
35.7124
38.0542
39.7874
41.0137
41.8095
42.2709
42.4959
42.5499
42.4834
42.3267
42.0959
41.7979
41.4299
40.9809
40.4336
39.7635
38.9358
37.9202
36.7294
35.4063
33.978
32.4609
30.8788
29.265
27.6615
26.1165
24.6833
23.415
22.3607
21.5614
21.0218
20.673
20.3847
10.0863
6.25873
1.85403
-2.85488
-7.47015
-12.3133
-17.1653
-21.8739
-26.4962
-30.9512
-35.2215
-39.3376
-43.2836
-47.0714
-50.7077
-54.1843
-57.4907
-60.6076
-63.5062
-66.1518
-68.5007
-70.5046
-72.1282
-73.3466
-74.1621
-74.5818
-74.5631
-74.0357
-72.9271
-71.166
-68.6832
-65.4162
-61.3166
-56.3586
-50.5524
-43.9501
-36.6981
-28.9806
-21.5453
13.6444
16.9834
20.5885
24.2884
27.7104
30.9061
33.7354
35.9946
37.674
38.8706
39.6572
40.1252
40.3682
40.4497
40.4179
40.3027
40.1201
39.8774
39.5731
39.1977
38.7357
38.1653
37.4541
36.5738
35.5346
34.3748
33.1176
31.7759
30.3688
28.9234
27.4741
26.0612
24.7288
23.5221
22.4828
21.6454
21.0162
20.537
20.108
9.25212
5.60804
1.41824
-3.05486
-7.43205
-12.0194
-16.6071
-21.051
-25.4054
-29.5937
-33.5999
-37.4532
-41.1391
-44.6695
-48.0511
-51.2768
-54.3377
-57.2163
-59.8868
-62.3178
-64.4704
-66.3011
-67.7789
-68.8838
-69.6213
-70.0012
-69.9865
-69.5144
-68.5205
-66.9405
-64.7118
-61.7764
-58.0874
-53.6174
-48.3694
-42.3819
-35.7742
-28.6973
-21.816
12.6432
15.8277
19.2711
22.8099
26.0875
29.1538
31.8747
34.0541
35.6809
36.8481
37.6245
38.0968
38.3549
38.4601
38.4584
38.3793
38.2388
38.0447
37.7963
37.4855
37.0989
36.6165
36.0086
35.2491
34.3456
33.3323
32.2293
31.0466
29.7991
28.5086
27.2031
25.9154
24.682
23.5401
22.5246
21.6642
20.9659
20.3806
19.8356
8.48695
5.01882
1.03441
-3.21336
-7.36386
-11.7075
-16.0442
-20.2374
-24.3385
-28.275
-32.0325
-35.6388
-39.0809
-42.3702
-45.5139
-48.5058
-51.3377
-53.9943
-56.4526
-58.684
-60.6538
-62.323
-63.6648
-64.6632
-65.3266
-65.6669
-65.6523
-65.2268
-64.3336
-62.9155
-60.9159
-58.2815
-54.9679
-50.9465
-46.2145
-40.7987
-34.7936
-28.3196
-21.9668
11.7178
14.7543
18.0421
21.4264
24.565
27.5066
30.1231
32.2252
33.8008
34.9388
35.7043
36.1793
36.4501
36.5754
36.5998
36.5519
36.4479
36.2959
36.0962
35.8419
35.5213
35.1163
34.5999
33.9474
33.1652
32.2832
31.3188
30.2795
29.1769
28.0281
26.8557
25.686
24.5486
23.4735
22.4893
21.6192
20.8704
20.2013
19.5624
7.78543
4.4857
0.698277
-3.33424
-7.26812
-11.3801
-15.4784
-19.4338
-23.2952
-26.9942
-30.5175
-33.8918
-37.1052
-40.1692
-43.0906
-45.8642
-48.4831
-50.9335
-53.1943
-55.2404
-57.0403
-58.5597
-59.7748
-60.674
-61.2675
-61.569
-61.5518
-61.1659
-60.3614
-59.0879
-57.2946
-54.9329
-51.9609
-48.3503
-44.0933
-39.2064
-33.7624
-27.8541
-22.0038
10.8625
13.7569
16.8953
20.1309
23.1357
25.9572
28.4729
30.5001
32.0262
33.1356
33.8897
34.3661
34.6476
34.7902
34.8371
34.8161
34.7435
34.6278
34.47
34.2647
34.0015
33.6642
33.2283
32.6707
31.9963
31.2314
30.391
29.4806
28.5089
27.4892
26.4393
25.3801
24.3349
23.3277
22.3808
21.5128
20.7303
19.9979
19.2858
7.14228
4.00422
0.405288
-3.4212
-7.14874
-11.0396
-14.9112
-18.6411
-22.2758
-25.7506
-29.0534
-32.2098
-35.2091
-38.062
-40.776
-43.3462
-45.7668
-48.0253
-50.1032
-51.9774
-53.62
-55.0007
-56.0986
-56.9057
-57.4338
-57.6984
-57.6765
-57.3245
-56.5984
-55.454
-53.846
-51.7305
-49.0684
-45.8321
-42.0104
-37.611
-32.6874
-27.308
-21.934
10.0716
12.8296
15.8245
18.9168
21.7927
24.4984
26.9167
28.8716
30.3496
31.4309
32.1736
32.6507
32.9411
33.0989
33.1652
33.1674
33.1218
33.037
32.9151
32.7518
32.5381
32.2596
31.8941
31.4202
30.8411
30.1803
29.4505
28.6555
27.8015
26.8988
25.9611
25.0047
24.0475
23.1081
22.2034
21.3475
20.5462
19.7687
19.0016
6.55265
3.56947
0.151217
-3.4782
-7.00847
-10.6887
-14.3446
-17.8604
-21.2806
-24.5436
-27.6387
-30.5904
-33.3889
-36.0447
-38.5651
-40.9459
-43.1822
-45.2628
-47.1709
-48.8862
-50.3835
-51.6361
-52.6259
-53.3479
-53.8155
-54.0453
-54.0178
-53.6949
-53.0382
-52.0088
-50.5672
-48.6732
-46.2914
-43.3952
-39.9708
-36.0186
-31.5758
-26.6892
-21.7653
9.34026
11.9674
14.8242
17.7786
20.5301
23.1239
25.4479
27.3327
28.7638
29.8178
30.5489
31.0259
31.3242
31.4954
31.5787
31.6012
31.5787
31.5203
31.429
31.3015
31.1302
30.9024
30.5979
30.1971
29.7021
29.1333
28.5016
27.8094
27.0609