/*--------------------------------*- C++ -*----------------------------------*\
  =========                 |
  \\      /  F ield         | OpenFOAM: The Open Source CFD Toolbox
   \\    /   O peration     | Website:  https://openfoam.org
    \\  /    A nd           | Version:  12
     \\/     M anipulation  |
\*---------------------------------------------------------------------------*/
FoamFile
{
    format      ascii;
    class       surfaceScalarField;
    location    "50";
    object      phi;
}
// * * * * * * * * * * * * * * * * * * * * * * * * * * * * * * * * * * * * * //

dimensions      [0 3 -1 0 0 0 0];

internalField   nonuniform List<scalar> 
21254
(
-0.186945
0.207107
-0.020161
0.229488
-0.0223807
0.249616
-0.020128
0.268041
-0.0184245
0.285714
-0.0176727
0.300589
-0.0148743
0.312989
-0.0123999
0.323568
-0.0105788
0.331472
-0.00790372
0.337598
-0.00612594
0.342156
-0.00455764
0.345048
-0.00289177
0.346776
-0.00172692
0.347333
-0.000556542
0.346388
0.00094539
0.343995
0.00239307
0.339889
0.00410657
0.334179
0.00571015
0.32679
0.00739038
0.318014
0.00877631
0.307653
0.0103615
0.296341
0.0113128
0.284424
0.0119169
0.273187
0.0112351
0.263789
0.00939616
0.255613
0.008175
0.247603
0.00800981
0.239446
0.00815697
0.230806
0.00863906
0.221576
0.00922977
0.211715
0.00987383
0.201166
0.0105441
0.18985
0.0113207
0.177489
0.0123625
0.163532
0.0139719
0.146923
0.0166112
0.125505
0.0214604
0.0947955
0.0307381
0.0924913
0.00269462
-0.164005
-0.0229398
-0.139978
-0.0240267
-0.111155
-0.0288224
-0.080003
-0.0311518
-0.0474824
-0.0325209
-0.0144382
-0.0330449
0.0175642
-0.0320024
0.0476153
-0.0300503
0.0746388
-0.0270229
0.0979624
-0.0233227
0.117455
-0.019492
0.133608
-0.0161521
0.146939
-0.0133308
0.157896
-0.0109564
0.167232
-0.00933573
0.175222
-0.00798891
0.182342
-0.00711919
0.188796
-0.00645293
0.194881
-0.0060845
0.200692
-0.00580937
0.206382
-0.00568984
0.211916
-0.00553355
0.217201
-0.00528732
0.221551
-0.0043546
0.224769
-0.00322299
0.227154
-0.00238924
0.228697
-0.00154579
0.229542
-0.000846654
0.229613
-6.72316e-05
0.228828
0.000776242
0.227265
0.00155844
0.225086
0.00217313
0.222397
0.00268259
0.219237
0.00315174
0.215463
0.0037661
0.21067
0.00478059
0.203837
0.00681963
0.190036
0.0139179
0.172061
0.0177988
-0.170626
0.191806
-0.0413403
0.213582
-0.044157
0.236516
-0.0430607
0.258071
-0.039979
0.279208
-0.03881
0.299015
-0.0346813
0.317025
-0.0304097
0.333458
-0.0270117
0.347932
-0.0223766
0.360473
-0.0186668
0.371105
-0.0151889
0.37985
-0.0116367
0.3868
-0.00867647
0.392138
-0.00589369
0.396132
-0.00304871
0.398699
-0.000172753
0.39978
0.00302602
0.399407
0.00608339
0.397021
0.00977666
0.392783
0.0130159
0.38621
0.016935
0.377467
0.0200568
0.36646
0.0229235
0.353725
0.0239688
0.340429
0.0226908
0.327017
0.021586
0.313628
0.0213981
0.30052
0.0212644
0.287572
0.0215879
0.274676
0.0221271
0.261659
0.022902
0.248354
0.0238475
0.234525
0.0251559
0.219935
0.0269564
0.204161
0.0297599
0.186161
0.0346168
0.164713
0.0429427
0.131092
0.0643747
0.0980645
0.0359271
-0.149089
-0.0444766
-0.125982
-0.0471329
-0.098967
-0.0558373
-0.0704933
-0.0596254
-0.0403621
-0.0626528
-0.00891117
-0.064496
0.0222253
-0.0631385
0.050908
-0.0587325
0.0768201
-0.0529342
0.0998523
-0.0463542
0.119814
-0.0394527
0.137024
-0.0333615
0.151852
-0.0281591
0.164519
-0.023622
0.17551
-0.0203262
0.185123
-0.017601
0.193647
-0.015642
0.201396
-0.0142005
0.208619
-0.0133071
0.215415
-0.0126034
0.221936
-0.0122102
0.228244
-0.0118408
0.234246
-0.0112913
0.239441
-0.0095538
0.243539
-0.00732579
0.24676
-0.00561424
0.249102
-0.00389134
0.250607
-0.00235407
0.251425
-0.000881956
0.251702
0.000490627
0.251396
0.00185895
0.250438
0.00312475
0.248738
0.0043761
0.246292
0.00558887
0.243088
0.00695931
0.23889
0.00896515
0.233815
0.0118814
0.223181
0.0246542
0.204704
0.0361172
-0.16612
0.187827
-0.0630476
0.209857
-0.0661858
0.233711
-0.0669148
0.255678
-0.0619458
0.276789
-0.0599206
0.297142
-0.0550342
0.315479
-0.0487467
0.332173
-0.0437055
0.346798
-0.0370011
0.35956
-0.031428
0.370478
-0.0261071
0.379697
-0.0208551
0.387054
-0.0160327
0.392924
-0.0117627
0.396992
-0.00711716
0.399807
-0.00298725
0.401185
0.0016488
0.401521
0.00574812
0.400593
0.0107052
0.398425
0.0151848
0.394973
0.020388
0.390132
0.0248987
0.383893
0.0291618
0.376328
0.0315333
0.367868
0.0311494
0.358505
0.0309471
0.348072
0.0318301
0.336646
0.0326902
0.324343
0.0338903
0.311223
0.0352464
0.297414
0.0367186
0.282924
0.0383341
0.267704
0.0403785
0.251569
0.0430913
0.234123
0.0472148
0.214366
0.0543728
0.191207
0.0661273
0.157502
0.0980993
0.111577
0.0820413
-0.144356
-0.0662402
-0.120762
-0.0707263
-0.0926642
-0.0839354
-0.0635813
-0.088709
-0.0333637
-0.0928708
-0.00210472
-0.0957552
0.0285774
-0.0938201
0.0568647
-0.0870191
0.0826286
-0.0786974
0.105747
-0.069472
0.125951
-0.0596563
0.143463
-0.0508724
0.158654
-0.0433496
0.171817
-0.0367843
0.183285
-0.0317937
0.193426
-0.0277417
0.20251
-0.0247248
0.210809
-0.0224985
0.218527
-0.0210242
0.225823
-0.0198985
0.232878
-0.0192652
0.23969
-0.0186527
0.246143
-0.0177455
0.251908
-0.0153231
0.256682
-0.0121039
0.260576
-0.00951181
0.263647
-0.00696645
0.265928
-0.00463695
0.267495
-0.00244627
0.268341
-0.000362015
0.268547
0.00164928
0.268094
0.00357227
0.267006
0.00545931
0.265209
0.00737868
0.262622
0.00953984
0.258877
0.0126998
0.253654
0.0170919
0.243365
0.0350206
0.2249
0.0544686
-0.161089
0.183635
-0.0855927
0.206376
-0.0889269
0.231457
-0.0919951
0.254418
-0.0849068
0.276804
-0.0823058
0.298386
-0.0766161
0.31828
-0.0686412
0.336376
-0.0618016
0.352827
-0.0534511
0.367401
-0.0460021
0.380212
-0.0389169
0.391243
-0.0318862
0.40051
-0.0252992
0.408025
-0.019277
0.414049
-0.0131408
0.418331
-0.00726834
0.420995
-0.00101499
0.421791
0.00495259
0.420961
0.0115369
0.418358
0.017788
0.414101
0.0246468
0.408429
0.0305715
0.401497
0.0360936
0.393832
0.0391972
0.385893
0.0390874
0.377766
0.039073
0.369117
0.0404779
0.359803
0.0420044
0.349627
0.0440664
0.338375
0.0465005
0.325982
0.0491202
0.312354
0.0519616
0.297441
0.0552978
0.281064
0.0594724
0.26293
0.0653606
0.242093
0.0752145
0.217365
0.0908834
0.182769
0.132709
0.13266
0.132271
-0.138794
-0.0885358
-0.115
-0.0945198
-0.0861864
-0.11275
-0.0567201
-0.118176
-0.026137
-0.123454
0.00546085
-0.127353
0.03624
-0.124599
0.0645028
-0.115281
0.0901071
-0.104301
0.113117
-0.0924815
0.133272
-0.0798104
0.150869
-0.0684688
0.16632
-0.0587995
0.179874
-0.0503382
0.191877
-0.0437955
0.202551
-0.0384145
0.212222
-0.0343953
0.221066
-0.0313414
0.229323
-0.0292793
0.237126
-0.0277004
0.244586
-0.0267242
0.251762
-0.0258282
0.258577
-0.0245621
0.264688
-0.0214363
0.269842
-0.017262
0.274108
-0.013782
0.277531
-0.0103938
0.280163
-0.00727179
0.282042
-0.00432444
0.283221
-0.00154817
0.283743
0.0011229
0.283626
0.00368251
0.282875
0.00620353
0.281476
0.00876858
0.279321
0.0116829
0.276049
0.015957
0.271139
0.0219884
0.261523
0.0447127
0.243065
0.0727995
-0.158458
0.181886
-0.109019
0.205558
-0.112599
0.232048
-0.118485
0.2558
-0.108659
0.279175
-0.10568
0.30181
-0.0992508
0.322558
-0.0893895
0.341577
-0.0808206
0.359104
-0.0709775
0.374532
-0.0614292
0.388221
-0.0526056
0.400102
-0.0437671
0.410415
-0.0356113
0.41885
-0.0277119
0.425549
-0.0198387
0.43053
-0.012249
0.433856
-0.00434061
0.435575
0.00323501
0.435453
0.0116593
0.433736
0.019506
0.430282
0.0281012
0.425218
0.0356368
0.41876
0.0425518
0.411294
0.0466624
0.403385
0.0469954
0.395246
0.0472099
0.386761
0.048962
0.377891
0.0508726
0.368527
0.0534298
0.358521
0.0565051
0.347638
0.0600085
0.335614
0.0639837
0.322192
0.0687216
0.307004
0.0746587
0.289559
0.0828119
0.268919
0.0958524
0.243634
0.116188
0.208385
0.167977
0.157492
0.183302
-0.135134
-0.11186
-0.110628
-0.119027
-0.0805878
-0.142791
-0.0502517
-0.148513
-0.0188925
-0.154814
0.013418
-0.159663
0.044751
-0.155931
0.0732822
-0.143811
0.0989578
-0.129976
0.121991
-0.115514
0.142115
-0.0999336
0.159733
-0.0860862
0.175324
-0.07439
0.189102
-0.0641155
0.201408
-0.0561006
0.212518
-0.0495239
0.222619
-0.044495
0.231905
-0.0406271
0.240587
-0.0379599
0.248806
-0.0359182
0.256652
-0.0345706
0.264166
-0.0333413
0.2713
-0.0316976
0.277761
-0.0278993
0.283277
-0.022783
0.287891
-0.0183993
0.291635
-0.014142
0.294564
-0.010203
0.296711
-0.00647119
0.298104
-0.00294503
0.298796
0.000426898
0.298843
0.00363093
0.298242
0.00680004
0.296959
0.0100453
0.29496
0.0136769
0.291873
0.0190349
0.287141
0.0267078
0.278172
0.0537279
0.26017
0.090731
-0.156572
0.181016
-0.133464
0.205936
-0.137519
0.23377
-0.146319
0.258646
-0.133535
0.282972
-0.130006
0.306845
-0.123123
0.32845
-0.110994
0.348577
-0.100948
0.366941
-0.0893414
0.383403
-0.0778906
0.398195
-0.067397
0.411138
-0.0567095
0.422423
-0.0468952
0.432023
-0.0373116
0.439797
-0.0276122
0.446021
-0.0184719
0.450355
-0.00867482
0.452873
0.000718868
0.453679
0.010854
0.452584
0.0206016
0.449619
0.0310675
0.444979
0.0402786
0.438795
0.0487358
0.431463
0.0539945
0.423473
0.0549841
0.415076
0.0556064
0.40623
0.0578065
0.396956
0.0601459
0.387268
0.0631175
0.377114
0.0666602
0.366446
0.0706832
0.355038
0.075393
0.342633
0.0811327
0.328778
0.0885177
0.312808
0.0987929
0.293482
0.115184
0.269061
0.140633
0.234176
0.202878
0.183764
0.233804
-0.132264
-0.136168
-0.106897
-0.144394
-0.0754962
-0.174192
-0.0439772
-0.180032
-0.0115545
-0.187237
0.0217762
-0.192994
0.0539616
-0.188116
0.0830074
-0.172856
0.108953
-0.15592
0.13211
-0.138669
0.152269
-0.120092
0.169865
-0.103682
0.185488
-0.0900123
0.199405
-0.0780319
0.211925
-0.0686194
0.223315
-0.0609133
0.233748
-0.0549264
0.243438
-0.0503167
0.252517
-0.0470377
0.261125
-0.0445248
0.269358
-0.0428021
0.277232
-0.0412154
0.284687
-0.0391532
0.29153
-0.0347443
0.29742
-0.028676
0.302357
-0.02334
0.306431
-0.0182205
0.309637
-0.0134133
0.312031
-0.00886446
0.313634
-0.00455427
0.314498
-0.000442577
0.314653
0.00346943
0.314109
0.00733746
0.31289
0.0112543
0.310862
0.0156933
0.307765
0.0221178
0.302942
0.0315161
0.294293
0.062423
0.276859
0.108072
-0.155619
0.181371
-0.159216
0.207356
-0.163504
0.236736
-0.175698
0.262849
-0.159647
0.288379
-0.155536
0.313293
-0.148037
0.335987
-0.133688
0.356907
-0.121867
0.376222
-0.108656
0.39353
-0.0951977
0.409069
-0.0829354
0.422957
-0.0705973
0.435072
-0.0590091
0.44547
-0.0477093
0.454192
-0.0363342
0.461069
-0.025348
0.466243
-0.0138481
0.46958
-0.00261732
0.471105
0.00933005
0.470739
0.0209685
0.468512
0.0332956
0.46448
0.0443112
0.458947
0.0542687
0.452093
0.0608485
0.444402
0.0626748
0.436092
0.0639148
0.427162
0.0667351
0.417636
0.0696702
0.407587
0.0731638
0.396983
0.0772625
0.385837
0.0818337
0.374095
0.0871333
0.361641
0.0935876
0.348141
0.102016
0.33307
0.113867
0.315209
0.133041
0.29258
0.163279
0.259458
0.236019
0.210468
0.282905
-0.130111
-0.161675
-0.103641
-0.170865
-0.0707608
-0.207073
-0.0379002
-0.212893
-0.00422005
-0.220917
0.0304154
-0.227628
0.0636742
-0.221374
0.0934884
-0.202669
0.119912
-0.182343
0.143361
-0.162117
0.163627
-0.140357
0.181245
-0.121299
0.196888
-0.105654
0.210858
-0.092002
0.22349
-0.0812505
0.235065
-0.0724872
0.245778
-0.065639
0.255776
-0.0603136
0.265205
-0.0564654
0.274166
-0.0534853
0.282741
-0.0513764
0.290943
-0.0494177
0.298749
-0.0469589
0.3059
-0.0418977
0.312172
-0.0349505
0.317488
-0.0286611
0.321874
-0.0226105
0.325383
-0.0169267
0.328022
-0.0115009
0.329846
-0.00638304
0.330867
-0.001466
0.331149
0.00318224
0.330703
0.00777958
0.329485
0.0124669
0.32746
0.0177139
0.324277
0.0252932
0.319285
0.0364955
0.310713
0.0710169
0.293812
0.124935
-0.155244
0.182327
-0.186298
0.209715
-0.190891
0.240752
-0.206735
0.268053
-0.186948
0.294831
-0.182315
0.320947
-0.174152
0.344606
-0.157348
0.36664
-0.143901
0.386707
-0.128722
0.40485
-0.11334
0.421318
-0.0994027
0.435963
-0.0852414
0.448848
-0.0718943
0.460085
-0.0589455
0.469602
-0.0458503
0.477351
-0.0330967
0.483346
-0.0198426
0.487516
-0.00678614
0.48976
0.00708732
0.490074
0.020656
0.48852
0.0348507
0.485091
0.0477415
0.480007
0.0593536
0.473604
0.067252
0.466195
0.0700836
0.458022
0.0720868
0.449132
0.0756242
0.439522
0.0792796
0.429224
0.083461
0.418288
0.0881982
0.406665
0.0934621
0.394376
0.0994239
0.381332
0.106636
0.367421
0.11593
0.352247
0.129051
0.334957
0.150335
0.313901
0.184355
0.283402
0.266534
0.236877
0.329507
-0.128495
-0.188425
-0.100846
-0.198514
-0.0662441
-0.241676
-0.0318373
-0.247301
0.00330731
-0.256062
0.0393792
-0.2637
0.0739375
-0.255931
0.104698
-0.233429
0.131769
-0.209412
0.155645
-0.185993
0.176118
-0.160828
0.193802
-0.138982
0.209465
-0.121316
0.223455
-0.105991
0.236132
-0.0939267
0.247858
-0.0842124
0.258745
-0.0765258
0.268991
-0.0705584
0.2787
-0.0661728
0.287977
-0.0627615
0.29686
-0.0602582
0.305401
-0.0579581
0.313531
-0.0550899
0.321046
-0.0494128
0.327677
-0.0415843
0.333349
-0.0343369
0.338079
-0.0273441
0.341897
-0.0207491
0.344801
-0.0144059
0.34683
-0.00841759
0.348041
-0.00268364
0.348445
0.00277144
0.348077
0.00814053
0.346902
0.0136327
0.344824
0.019779
0.341552
0.02855
0.3364
0.0416327
0.327806
0.0796338
0.311449
0.141223
-0.155519
0.183979
-0.214758
0.212805
-0.219716
0.245533
-0.239462
0.274202
-0.215617
0.302406
-0.210519
0.329839
-0.201585
0.354666
-0.182175
0.377554
-0.166788
0.398653
-0.149821
0.417565
-0.132252
0.434678
-0.116515
0.450058
-0.100621
0.463717
-0.0855524
0.475674
-0.0709022
0.485923
-0.0560991
0.494478
-0.0416509
0.501206
-0.0265702
0.506064
-0.0116429
0.509007
0.00414567
0.509986
0.0196776
0.509061
0.0357763
0.50626
0.0505436
0.501737
0.0638779
0.495789
0.0732004
0.488736
0.0771358
0.480771
0.0800515
0.471935
0.0844581
0.462292
0.0889213
0.451889
0.0938606
0.44071
0.0993749
0.428757
0.105417
0.416007
0.112174
0.402396
0.120246
0.387797
0.130526
0.37198
0.144871
0.354315
0.167994
0.333841
0.204843
0.305824
0.294571
0.262318
0.37311
-0.127299
-0.216646
-0.0982949
-0.227519
-0.0619
-0.278072
-0.0258851
-0.283316
0.0109272
-0.292874
0.048627
-0.3014
0.0847023
-0.292006
0.116589
-0.265314
0.144461
-0.237283
0.1689
-0.21043
0.189689
-0.181616
0.207517
-0.156809
0.22323
-0.137028
0.237232
-0.119992
0.249941
-0.106635
0.261709
-0.0959799
0.272744
-0.0875595
0.283163
-0.0809767
0.293094
-0.0761036
0.302639
-0.0723052
0.311841
-0.0694603
0.320666
-0.0667829
0.32911
-0.0635337
0.336973
-0.0572772
0.34399
-0.0486034
0.350006
-0.0403563
0.355083
-0.0324253
0.359191
-0.0248606
0.362385
-0.0175994
0.364655
-0.010691
0.366042
-0.00407487
0.366592
0.00221703
0.366298
0.00843064
0.365159
0.0147672
0.363077
0.0218563
0.35973
0.0318908
0.354392
0.0469582
0.345789
0.0882462
0.329975
0.157019
-0.156139
0.186195
-0.244814
0.21656
-0.25008
0.25116
-0.274062
0.281277
-0.245733
0.310766
-0.240009
0.339634
-0.230453
0.365597
-0.208138
0.389574
-0.190765
0.411608
-0.171854
0.431339
-0.151983
0.449238
-0.134414
0.46541
-0.116792
0.479703
-0.099845
0.492302
-0.0835008
0.503323
-0.0671194
0.512509
-0.0508362
0.519938
-0.0339976
0.525476
-0.0171805
0.529145
0.000477852
0.530853
0.0179709
0.530502
0.0361292
0.528313
0.0527337
0.524341
0.0678516
0.518875
0.0786667
0.512164
0.0838473
0.504368
0.087848
0.49564
0.0931848
0.486018
0.0985425
0.475487
0.10439
0.46414
0.110721
0.451925
0.117636
0.438793
0.125307
0.424694
0.134348
0.409489
0.145734
0.39295
0.161417
0.374476
0.186471
0.353604
0.22573
0.327129
0.321061
0.286506
0.413799
-0.126524
-0.246261
-0.0960514
-0.257992
-0.0576909
-0.316433
-0.0198135
-0.321194
0.0187281
-0.331416
0.0582899
-0.340961
0.0959608
-0.329676
0.129136
-0.298489
0.157974
-0.26612
0.183124
-0.235579
0.204328
-0.202819
0.222364
-0.174844
0.238179
-0.152842
0.252198
-0.13401
0.264913
-0.119349
0.276723
-0.10779
0.287814
-0.0986495
0.298356
-0.0915175
0.308488
-0.0862348
0.318255
-0.0820711
0.327676
-0.0788802
0.336806
-0.0759129
0.345567
-0.0722937
0.353763
-0.0654744
0.361127
-0.0559686
0.367524
-0.0467562
0.372925
-0.0378291
0.377368
-0.0293082
0.380834
-0.0210664
0.383345
-0.0132077
0.384945
-0.00568296
0.385625
0.0015296
0.38544
0.0086076
0.384348
0.0158495
0.382239
0.0239528
0.378798
0.0353158
0.373338
0.0524014
0.364743
0.0968491
0.349438
0.172272
-0.157252
0.188887
-0.276448
0.220833
-0.282026
0.257354
-0.310582
0.289119
-0.277499
0.320197
-0.271087
0.350514
-0.26077
0.377612
-0.235236
0.402771
-0.215923
0.425796
-0.194878
0.446416
-0.172602
0.465055
-0.153052
0.481814
-0.133551
0.496832
-0.114863
0.510192
-0.0968603
0.521742
-0.0786686
0.531627
-0.0607204
0.539705
-0.0420754
0.545957
-0.0234316
0.55023
-0.00379424
0.552555
0.0156476
0.552867
0.0358184
0.551215
0.054386
0.547785
0.0712836
0.542799
0.0836527
0.536469
0.0901786
0.528965
0.0953511
0.520358
0.101792
0.510713
0.108184
0.500141
0.11496
0.488591
0.122266
0.476119
0.130111
0.462673
0.138751
0.448159
0.148861
0.432423
0.161467
0.415206
0.178634
0.395931
0.205739
0.37414
0.247532
0.348211
0.347008
0.30973
0.452367
-0.125978
-0.277536
-0.0939823
-0.289988
-0.0535403
-0.356875
-0.0137146
-0.36102
0.026803
-0.371933
0.0682785
-0.382436
0.107752
-0.369149
0.142366
-0.333103
0.172317
-0.296069
0.198262
-0.261524
0.220004
-0.224559
0.23833
-0.193169
0.254303
-0.168813
0.268373
-0.14808
0.281097
-0.132072
0.292904
-0.119596
0.304033
-0.109779
0.314664
-0.102147
0.324901
-0.0964716
0.334843
-0.0920123
0.34452
-0.0885567
0.353906
-0.0852981
0.362937
-0.081325
0.371474
-0.0740118
0.379192
-0.0636876
0.38594
-0.0535071
0.391705
-0.0435963
0.396463
-0.03407
0.400236
-0.0248387
0.402998
-0.0159732
0.404786
-0.00747505
0.405647
0.000662767
0.405557
0.00869414
0.404519
0.0168826
0.402391
0.0260772
0.398893
0.0388072
0.393289
0.0579942
0.38471
0.105431
0.36997
0.187004
-0.158619
0.192039
-0.309868
0.225735
-0.315721
0.264285
-0.349132
0.297654
-0.310868
0.330327
-0.30376
0.362206
-0.292649
0.390765
-0.263795
0.417038
-0.242195
0.441103
-0.218942
0.462588
-0.194087
0.48207
-0.172534
0.499631
-0.151111
0.515217
-0.130449
0.529143
-0.110786
0.541391
-0.0909155
0.551893
-0.0712221
0.560564
-0.0507451
0.567381
-0.0302481
0.572277
-0.0086891
0.575228
0.0126981
0.576161
0.0348867
0.575125
0.0554239
0.572238
0.0741715
0.567721
0.0881709
0.561759
0.0961412
0.554521
0.10259
0.546064
0.110248
0.536496
0.117752
0.525841
0.125613
0.514157
0.133948
0.50144
0.14283
0.487657
0.152534
0.472762
0.163756
0.456536
0.177695
0.438727
0.196448
0.418747
0.22572
0.395952
0.270338
0.369806
0.373169
0.3327
0.489519
-0.125697
-0.310457
-0.0919815
-0.323704
-0.0493867
-0.399471
-0.0074621
-0.402945
0.0351249
-0.414521
0.0786843
-0.425996
0.120129
-0.410593
0.156289
-0.369261
0.187465
-0.327244
0.214362
-0.288419
0.236734
-0.246929
0.255443
-0.211877
0.271608
-0.184977
0.285764
-0.162235
0.298504
-0.144811
0.310317
-0.131408
0.321441
-0.120902
0.332112
-0.112817
0.342455
-0.106814
0.352526
-0.102083
0.362376
-0.098406
0.37198
-0.0949008
0.381314
-0.0906587
0.390165
-0.0828623
0.398231
-0.0717546
0.405336
-0.0606136
0.411438
-0.0497009
0.41654
-0.0391752
0.420588
-0.0288887
0.423625
-0.0190157
0.425638
-0.00949667
0.426654
-0.000362226
0.426698
0.00864054
0.4257
0.0178705
0.423578
0.0281864
0.420007
0.0423605
0.414283
0.0637002
0.405784
0.113927
0.391623
0.201121
-0.160394
0.195542
-0.345015
0.231089
-0.351268
0.271787
-0.389829
0.306988
-0.34607
0.341397
-0.338169
0.374901
-0.326153
0.404858
-0.293752
0.432433
-0.26977
0.457539
-0.244047
0.479974
-0.216522
0.500256
-0.192815
0.518513
-0.169368
0.534857
-0.146792
0.54943
-0.125358
0.562237
-0.103723
0.573277
-0.0822606
0.582552
-0.0600194
0.589989
-0.0376844
0.595484
-0.0141827
0.598951
0.00923166
0.600459
0.0333798
0.599958
0.0559265
0.597593
0.0765372
0.593587
0.0921788
0.588088
0.101641
0.581132
0.109547
0.572874
0.118506
0.563363
0.127262
0.552672
0.1363
0.540865
0.145752
0.527937
0.155759
0.513845
0.166625
0.498532
0.179067
0.481822
0.194401
0.463453
0.214816
0.442843
0.246323
0.419203
0.293986
0.392496
0.399893
0.356177
0.525903
-0.125576
-0.345275
-0.0901745
-0.359106
-0.0452147
-0.444431
-0.00108077
-0.44708
0.0437613
-0.459363
0.0896053
-0.471839
0.133061
-0.454048
0.170952
-0.407152
0.20347
-0.359761
0.231419
-0.316366
0.254521
-0.27003
0.273691
-0.231046
0.290137
-0.201422
0.304432
-0.176529
0.317203
-0.157582
0.329011
-0.143216
0.340131
-0.132021
0.350813
-0.123499
0.361196
-0.117196
0.371372
-0.112259
0.381362
-0.108396
0.391178
-0.104716
0.400753
-0.100234
0.409919
-0.0920276
0.418313
-0.0801492
0.425765
-0.0680669
0.432214
-0.0561513
0.437622
-0.0445862
0.441991
-0.0332572
0.445299
-0.0223265
0.44755
-0.0117523
0.448761
-0.00157867
0.448924
0.0084731
0.448004
0.018786
0.445874
0.0303127
0.442272
0.0459571
0.436453
0.0695074
0.427988
0.122394
0.414457
0.214651
-0.16237
0.199459
-0.382104
0.236962
-0.38877
0.279947
-0.432815
0.317027
-0.38315
0.353209
-0.374351
0.388456
-0.3614
0.419937
-0.325234
0.448811
-0.298643
0.475118
-0.270353
0.498523
-0.239926
0.51973
-0.214022
0.538735
-0.188373
0.555747
-0.163803
0.570944
-0.140555
0.58425
-0.117028
0.595907
-0.0939175
0.605743
-0.0698546
0.613713
-0.0456538
0.619792
-0.0202598
0.623862
0.00516257
0.625898
0.0313452
0.625957
0.0558695
0.624122
0.0783732
0.620584
0.095718
0.615477
0.10675
0.60883
0.116195
0.600798
0.126539
0.591407
0.136652
0.580713
0.146993
0.568793
0.15767
0.555649
0.168905
0.541267
0.181005
0.525546
0.194786
0.508379
0.211567
0.489454
0.233742
0.468248
0.26753
0.443841
0.318399
0.416562
0.427182
0.380737
0.561754
-0.125752
-0.381893
-0.0883314
-0.396527
-0.0409679
-0.491795
0.00554278
-0.493591
0.0527252
-0.506546
0.100932
-0.520046
0.146665
-0.499781
0.186383
-0.44687
0.2204
-0.393776
0.2495
-0.345465
0.273426
-0.293954
0.29312
-0.250739
0.309907
-0.218208
0.324367
-0.190989
0.337202
-0.170417
0.349031
-0.155045
0.360144
-0.143132
0.370796
-0.134151
0.381199
-0.127598
0.391446
-0.122505
0.401552
-0.118501
0.411529
-0.114692
0.421345
-0.110048
0.430789
-0.101471
0.439499
-0.088859
0.447285
-0.075854
0.454073
-0.0629409
0.459826
-0.0503416
0.464506
-0.0379385
0.468093
-0.0259193
0.470579
-0.0142463
0.471973
-0.00298215
0.472282
0.00815258
0.471443
0.0196136
0.469331
0.0324103
0.465688
0.0495827
0.459804
0.0753706
0.45146
0.130728
0.438539
0.227533
-0.164612
0.203794
-0.421286
0.24332
-0.428296
0.288706
-0.478201
0.327737
-0.422181
0.365839
-0.412453
0.403012
-0.398574
0.436013
-0.358235
0.466308
-0.328937
0.493941
-0.297985
0.518421
-0.264405
0.540492
-0.236092
0.56031
-0.20819
0.577926
-0.181419
0.593756
-0.156384
0.607756
-0.131027
0.619931
-0.106092
0.630313
-0.080235
0.638797
-0.0541368
0.645312
-0.026774
0.649893
0.000582246
0.652488
0.0287524
0.653019
0.0553393
0.651693
0.0797011
0.648637
0.0987748
0.643965
0.111424
0.637698
0.122463
0.629864
0.134373
0.620607
0.145908
0.609973
0.157626
0.597971
0.169668
0.584652
0.182227
0.569972
0.195683
0.553907
0.210848
0.536264
0.229205
0.516767
0.253237
0.494969
0.28932
0.469938
0.343438
0.442099
0.455037
0.40673
0.597169
-0.125991
-0.420513
-0.0866676
-0.435851
-0.0366486
-0.541815
0.012361
-0.542601
0.0620459
-0.556231
0.112837
-0.570836
0.160897
-0.547841
0.202614
-0.488587
0.238199
-0.42936
0.268594
-0.375859
0.293422
-0.318781
0.313759
-0.271075
0.330944
-0.235391
0.345637
-0.205681
0.358576
-0.183356
0.37042
-0.166888
0.381509
-0.15422
0.392158
-0.144799
0.402554
-0.137993
0.412823
-0.132774
0.423013
-0.128691
0.433147
-0.124825
0.443168
-0.120069
0.452868
-0.11117
0.461897
-0.0978882
0.470003
-0.0839591
0.477121
-0.0700602
0.483189
-0.05641
0.488182
-0.0429307
0.492042
-0.0297812
0.494786
-0.0169943
0.4964
-0.00460289
0.496843
0.00770469
0.496111
0.0203406
0.494036
0.0344825
0.490369
0.053244
0.484449
0.0812802
0.476188
0.13899
0.463934
0.23979
-0.167167
0.208506
-0.462624
0.25016
-0.46995
0.298055
-0.526096
0.339146
-0.463274
0.379344
-0.452651
0.41846
-0.43769
0.453149
-0.392924
0.484981
-0.360769
0.513893
-0.326896
0.53945
-0.289962
0.56249
-0.259131
0.583154
-0.228854
0.601597
-0.19986
0.618025
-0.172812
0.632571
-0.145573
0.645283
-0.118803
0.656163
-0.091115
0.66515
-0.0631222
0.672247
-0.0338704
0.677294
-0.00446384
0.680333
0.0257152
0.681395
0.0542784
0.680521
0.0805768
0.677921
0.101377
0.673652
0.115693
0.66773
0.128386
0.660185
0.141919
0.651089
0.155005
0.640495
0.168219
0.628442
0.18172
0.614977
0.195693
0.600057
0.2106
0.58361
0.22729
0.565512
0.247299
0.545487
0.27326
0.523121
0.311683
0.497481
0.369079
0.469177
0.483348
0.434297
0.632057
-0.12639
-0.46129
-0.0849227
-0.477319
-0.0321873
-0.594551
0.0194607
-0.59425
0.071807
-0.608578
0.125305
-0.624335
0.175888
-0.598424
0.219711
-0.532408
0.257022
-0.466671
0.288774
-0.407609
0.314628
-0.344634
0.335648
-0.292094
0.3533
-0.253043
0.368268
-0.220648
0.381352
-0.19644
0.393244
-0.178779
0.404326
-0.165303
0.414942
-0.155414
0.42532
-0.148371
0.435605
-0.143058
0.445843
-0.138928
0.456079
-0.13506
0.466286
-0.130275
0.476259
-0.121141
0.485559
-0.107188
0.493965
-0.0923647
0.501401
-0.0774974
0.50779
-0.0628001
0.513094
-0.0482368
0.517257
-0.0339476
0.520255
-0.0200005
0.522063
-0.0064202
0.522693
0.00706147
0.522057
0.0209632
0.520035
0.0364891
0.516368
0.0568926
0.510426
0.0872005
0.502312
0.147089
0.490753
0.251311
-0.169911
0.213475
-0.506188
0.257449
-0.513924
0.308011
-0.576658
0.351327
-0.50659
0.393671
-0.494995
0.434814
-0.478834
0.471338
-0.429447
0.50476
-0.394191
0.53504
-0.357175
0.561806
-0.316727
0.585946
-0.283271
0.607444
-0.250351
0.626624
-0.21904
0.643743
-0.189931
0.658852
-0.160681
0.672117
-0.132068
0.683491
-0.102488
0.692987
-0.0726175
0.700497
-0.0413799
0.706048
-0.0100136
0.709537
0.0222284
0.711017
0.0527991
0.710625
0.080971
0.708457
0.103546
0.70463
0.119522
0.699049
0.133969
0.691773
0.149196
0.682861
0.163917
0.672338
0.178742
0.660281
0.193776
0.646684
0.209291
0.631537
0.225747
0.614763
0.244059
0.596231
0.265826
0.575701
0.293784
0.552728
0.334649
0.526556
0.395257
0.497862
0.512055
0.463507
0.666444
-0.12691
-0.504292
-0.0832253
-0.521004
-0.0276148
-0.650162
0.0268716
-0.648737
0.0820113
-0.663718
0.138342
-0.680666
0.191646
-0.651727
0.23769
-0.578451
0.276857
-0.505837
0.310084
-0.440834
0.337019
-0.371568
0.358813
-0.313887
0.377007
-0.271235
0.392311
-0.235951
0.405566
-0.209694
0.417553
-0.190766
0.428643
-0.176393
0.43924
-0.16601
0.449586
-0.158717
0.459852
-0.153323
0.470134
-0.14921
0.480454
-0.145379
0.490819
-0.140639
0.500995
-0.131317
0.510558
-0.11675
0.519269
-0.101075
0.527008
-0.0852356
0.533722
-0.0695135
0.539321
-0.053835
0.543775
-0.0384028
0.547034
-0.0232624
0.549085
-0.00847628
0.549876
0.00626377
0.549353
0.0214816
0.547406
0.0384315
0.54375
0.0605446
0.537848
0.0930915
0.529869
0.155071
0.518982
0.262201
-0.172942
0.218905
-0.55215
0.265308
-0.560327
0.318564
-0.629914
0.36432
-0.552347
0.408837
-0.539513
0.452226
-0.522223
0.490588
-0.46781
0.525709
-0.429312
0.557507
-0.388972
0.585557
-0.344776
0.610672
-0.308385
0.633173
-0.272851
0.653095
-0.238961
0.670899
-0.207734
0.686697
-0.176478
0.700465
-0.145835
0.712367
-0.114389
0.722317
-0.0825674
0.730324
-0.0493848
0.736277
-0.0159658
0.740184
0.0183225
0.742133
0.0508515
0.742112
0.0809943
0.740363
0.105296
0.73691
0.122977
0.73168
0.139201
0.724703
0.156174
0.715999
0.172622
0.705622
0.189119
0.693559
0.205839
0.679862
0.222989
0.664501
0.241105
0.647416
0.261139
0.628491
0.284745
0.607428
0.314841
0.583933
0.358138
0.557228
0.42196
0.528151
0.541134
0.494409
0.70018
-0.127597
-0.549637
-0.0815312
-0.56707
-0.0228372
-0.708857
0.0345722
-0.706147
0.0927126
-0.721859
0.152076
-0.740029
0.208154
-0.707805
0.256636
-0.626932
0.297744
-0.546944
0.332588
-0.475677
0.360713
-0.399692
0.383359
-0.336532
0.402149
-0.290024
0.417831
-0.251633
0.43132
-0.223183
0.443397
-0.202842
0.454536
-0.187532
0.465102
-0.176576
0.475416
-0.16903
0.485657
-0.163564
0.495946
-0.159498
0.506333
-0.155764
0.51684
-0.151145
0.527222
-0.141698
0.537033
-0.12656
0.546002
-0.110043
0.554025
-0.0932584
0.561025
-0.0765143
0.566939
-0.0597497
0.571671
-0.043139
0.575209
-0.0268062
0.577473
-0.0107504
0.578467
0.00525731
0.578099
0.021834
0.576206
0.0403083
0.572626
0.0641043
0.566755
0.0989397
0.55899
0.162817
0.548792
0.272361
-0.176185
0.224673
-0.600638
0.273552
-0.609206
0.32985
-0.686212
0.377928
-0.600425
0.424939
-0.586525
0.470587
-0.567871
0.511031
-0.508254
0.547876
-0.466156
0.581237
-0.422332
0.610603
-0.374141
0.636965
-0.334746
0.66038
-0.296266
0.681206
-0.259787
0.699736
-0.226263
0.716132
-0.192874
0.730479
-0.160182
0.742858
-0.126767
0.753248
-0.0929562
0.761641
-0.057777
0.768023
-0.022346
0.772371
0.0139756
0.774646
0.048578
0.775024
0.0806182
0.773682
0.10664
0.770606
0.126055
0.76576
0.144048
0.759073
0.162862
0.750575
0.181123
0.740305
0.19939
0.728299
0.217845
0.714535
0.236755
0.698994
0.256645
0.681629
0.2785
0.662314
0.304053
0.640805
0.336344
0.616779
0.382153
0.58958
0.449165
0.560173
0.570552
0.527055
0.733322
-0.128369
-0.597453
-0.079799
-0.615641
-0.0178849
-0.770771
0.0426102
-0.766643
0.103903
-0.783152
0.166472
-0.802598
0.225574
-0.766905
0.276562
-0.67792
0.319768
-0.590148
0.356294
-0.512202
0.385711
-0.429108
0.409296
-0.360116
0.428745
-0.309473
0.44488
-0.267767
0.458634
-0.236937
0.470863
-0.21507
0.482043
-0.198711
0.49261
-0.187142
0.502888
-0.179308
0.513123
-0.173798
0.52339
-0.169764
0.533832
-0.166205
0.544443
-0.161755
0.555012
-0.152266
0.565048
-0.136594
0.574251
-0.119245
0.582564
-0.10157
0.589849
-0.083798
0.596029
-0.0659292
0.601075
-0.0481849
0.604868
-0.0306006
0.60738
-0.0132662
0.608547
0.00408485
0.608326
0.0220486
0.606563
0.0420668
0.603033
0.0676283
0.597273
0.104691
0.589694
0.1704
0.580203
0.281858
-0.179692
0.230802
-0.651747
0.282349
-0.660754
0.341696
-0.745559
0.392474
-0.651204
0.441928
-0.635979
0.490082
-0.616026
0.53254
-0.550713
0.571314
-0.504929
0.606355
-0.457372
0.63718
-0.404966
0.664703
-0.362267
0.689239
-0.320801
0.710925
-0.281473
0.73022
-0.245557
0.74723
-0.209884
0.76218
-0.175131
0.775033
-0.139619
0.785866
-0.103788
0.794715
-0.0666252
0.801457
-0.0290868
0.806144
0.00929018
0.808797
0.0459265
0.809528
0.0798883
0.80854
0.10763
0.805837
0.128759
0.801308
0.14858
0.794912
0.16926
0.786681
0.189355
0.776572
0.2095
0.764603
0.229815
0.750788
0.250569
0.735116
0.272315
0.717506
0.296104
0.697834
0.323718
0.67589
0.35828
0.651375
0.406657
0.623712
0.476821
0.593994
0.600268
0.561487
0.765815