/*--------------------------------*- C++ -*----------------------------------*\
  =========                 |
  \\      /  F ield         | OpenFOAM: The Open Source CFD Toolbox
   \\    /   O peration     | Website:  https://openfoam.org
    \\  /    A nd           | Version:  12
     \\/     M anipulation  |
\*---------------------------------------------------------------------------*/
FoamFile
{
    format      ascii;
    class       volVectorField;
    location    "50";
    object      U;
}
// * * * * * * * * * * * * * * * * * * * * * * * * * * * * * * * * * * * * * //

dimensions      [0 1 -1 0 0 0 0];

internalField   nonuniform List<vector> 
10720
(
(1.21821 22.3218 -7.09897e-18)
(2.63633 24.6051 6.45004e-18)
(4.48168 26.8473 0)
(6.65991 28.6858 -2.20022e-16)
(9.12391 30.1801 2.48675e-16)
(11.8164 31.2728 2.11116e-16)
(14.5966 31.8608 3.25133e-16)
(17.3745 31.9687 0)
(20.0733 31.6408 0)
(22.612 30.9065 0)
(24.9552 29.8372 1.00537e-16)
(27.084 28.5057 0)
(28.9791 26.951 2.00531e-15)
(30.6443 25.2297 0)
(32.0466 23.3549 0)
(33.1661 21.3496 0)
(33.9834 19.22 -3.48908e-15)
(34.4975 17.006 -5.26112e-15)
(34.688 14.7282 4.7087e-15)
(34.5646 12.4464 0)
(34.1139 10.2026 3.91624e-15)
(33.3743 8.0757 -7.72499e-15)
(32.3963 6.12602 3.87194e-15)
(31.2893 4.42461 -1.16508e-16)
(30.2437 3.02634 0)
(29.3427 1.88789 1.56033e-15)
(28.498 0.928552 2.42284e-17)
(27.6149 0.109146 -6.8957e-16)
(26.6549 -0.592437 -2.52384e-15)
(25.6125 -1.19057 -9.17818e-15)
(24.4908 -1.69187 4.09401e-15)
(23.293 -2.09964 7.46901e-15)
(22.018 -2.41515 6.4477e-15)
(20.6559 -2.63926 2.20628e-14)
(19.1552 -2.76761 -8.93031e-15)
(17.4786 -2.79929 -6.34975e-17)
(15.3127 -2.67976 1.93072e-17)
(12.8407 -2.40167 2.63054e-15)
(7.28002 -1.99796 1.42786e-14)
(0.157525 19.928 -1.21356e-17)
(-0.616979 17.2747 -3.87198e-17)
(-1.03085 14.3111 1.1668e-16)
(-0.967442 10.9452 -3.04528e-16)
(-0.296782 7.52986 -1.0182e-15)
(0.910184 4.33029 1.86143e-15)
(2.45831 1.54952 7.76526e-15)
(4.28537 -1.00542 1.73277e-15)
(6.43939 -3.20345 0)
(8.70528 -4.83686 0)
(10.8662 -5.88865 1.26052e-15)
(12.8189 -6.47235 4.74458e-16)
(14.538 -6.71434 -8.18794e-16)
(16.0234 -6.71838 6.79356e-16)
(17.3004 -6.57652 1.1292e-15)
(18.4112 -6.34738 7.28753e-16)
(19.3905 -6.07211 9.06159e-16)
(20.2708 -5.77326 5.90882e-16)
(21.0829 -5.46622 0)
(21.8487 -5.14971 0)
(22.5859 -4.82191 -7.21124e-16)
(23.3042 -4.46882 -2.78685e-17)
(24.0031 -4.0718 3.71914e-16)
(24.6474 -3.59679 -1.75346e-16)
(25.166 -3.03825 2.56876e-17)
(25.5412 -2.43626 0)
(25.8033 -1.81798 -6.64771e-17)
(25.9696 -1.19821 0)
(26.0518 -0.588501 0)
(26.0171 0.00354897 -1.18016e-16)
(25.8708 0.570322 0)
(25.6326 1.10383 4.90839e-16)
(25.3204 1.59652 8.28657e-16)
(24.948 2.04195 3.52007e-15)
(24.5111 2.43629 -9.9981e-16)
(24.0047 2.78167 3.13149e-18)
(23.3103 3.07451 0)
(22.3973 3.28601 2.16188e-15)
(19.7101 3.49151 5.74046e-15)
(6.55945 19.3898 -1.8838e-17)
(8.08032 21.1426 1.28415e-17)
(9.98697 22.7934 0)
(12.2268 24.2343 0)
(14.6926 25.3948 -7.25843e-17)
(17.385 26.2158 -2.00733e-16)
(20.1997 26.6455 0)
(23.0185 26.6899 0)
(25.784 26.3515 5.07974e-16)
(28.4108 25.6689 0)
(30.843 24.6907 2.01837e-15)
(33.0485 23.4611 0)
(35.0029 22.0282 7.60864e-16)
(36.6896 20.4297 -7.50102e-16)
(38.1189 18.7216 1.54748e-15)
(39.3046 16.9525 -3.14996e-15)
(40.2378 15.148 3.40545e-15)
(40.9018 13.3314 3.12994e-15)
(41.2904 11.5079 3.07804e-15)
(41.3768 9.70225 1.8803e-16)
(41.1522 7.93515 -3.23081e-15)
(40.5969 6.25391 3.07204e-15)
(39.7254 4.69461 -1.7278e-16)
(38.5628 3.30962 0)
(37.2055 2.1464 0)
(35.791 1.15726 0)
(34.3765 0.272329 1.31557e-16)
(32.9575 -0.515224 -2.94435e-17)
(31.5386 -1.20418 1.85399e-15)
(30.1196 -1.79669 3.54332e-17)
(28.6895 -2.29209 -2.77307e-17)
(27.2349 -2.69074 -8.0421e-17)
(25.74 -2.99428 4.41524e-15)
(24.1896 -3.20542 -7.39463e-15)
(22.5404 -3.32414 -3.98211e-17)
(20.7696 -3.35184 -8.45834e-15)
(18.6026 -3.24318 0)
(16.2959 -3.00794 -7.34571e-16)
(10.7241 -2.28095 7.55762e-15)
(5.33092 17.5547 2.62039e-17)
(4.3198 15.5507 -8.01412e-17)
(3.53347 13.2302 -8.64111e-16)
(3.06219 10.636 1.08981e-15)
(3.08588 7.89087 0)
(3.6462 5.1736 -2.14104e-15)
(4.66262 2.61314 -1.20117e-15)
(6.04096 0.291642 -5.81269e-15)
(7.72404 -1.627 1.56178e-15)
(9.58834 -3.05219 -1.19438e-15)
(11.4767 -4.00652 1.56583e-15)
(13.2738 -4.57722 -4.52591e-16)
(14.9249 -4.85847 0)
(16.4047 -4.93273 -2.92511e-16)
(17.7108 -4.8823 6.12635e-17)
(18.8657 -4.7537 -6.30469e-16)
(19.8928 -4.58367 0)
(20.8183 -4.38963 0)
(21.6682 -4.18411 -6.15923e-17)
(22.4666 -3.95875 5.95793e-17)
(23.2297 -3.70726 -6.55475e-16)
(23.9696 -3.40816 -6.44432e-17)
(24.6864 -3.03784 2.66564e-17)
(25.3536 -2.55635 2.13709e-16)
(25.9126 -1.97901 -5.75562e-17)
(26.3393 -1.37856 1.22918e-18)
(26.6527 -0.7843 0)
(26.8685 -0.205149 0)
(26.9853 0.354012 0)
(27.0331 0.884801 9.14286e-18)
(27.0129 1.38219 0)
(26.9153 1.84212 0)
(26.7335 2.26124 -1.3538e-15)
(26.4679 2.63705 -1.13585e-15)
(26.1167 2.9714 8.11215e-16)
(25.6969 3.27217 -3.67043e-16)
(25.1048 3.54221 -2.29159e-16)
(24.5639 3.79143 -1.73318e-15)
(22.4581 3.87637 -3.96215e-15)
(8.4713 17.9217 -4.86729e-18)
(9.57764 19.4491 -5.00323e-17)
(10.9585 20.9643 3.53578e-17)
(12.5808 22.3852 2.48471e-18)
(14.408 23.6066 -8.19971e-17)
(16.4405 24.6056 3.36664e-16)
(18.6132 25.3345 -2.48715e-16)
(20.859 25.7531 -3.41331e-16)
(23.1266 25.8545 1.16505e-17)
(25.3587 25.6428 -4.87424e-16)
(27.5034 25.1328 4.80415e-16)
(29.526 24.3496 -1.27558e-15)
(31.3957 23.3238 -6.29968e-16)
(33.0921 22.0827 0)
(34.5972 20.654 -1.54131e-15)
(35.8946 19.0689 3.16612e-15)
(36.995 17.3385 0)
(37.896 15.4931 -6.15548e-15)
(38.592 13.5615 -3.10222e-15)
(39.061 11.5965 3.65421e-16)
(39.2943 9.6377 -3.61723e-16)
(39.2752 7.75342 -1.65632e-16)
(39.0073 5.99365 -2.35706e-15)
(38.4971 4.41925 1.18721e-15)
(37.7875 3.07356 0)
(36.9432 1.90359 1.04375e-15)
(35.9766 0.844939 -1.23471e-16)
(34.8738 -0.101424 0)
(33.6446 -0.929534 1.64355e-15)
(32.3113 -1.63948 3.04683e-15)
(30.893 -2.23054 -5.36066e-15)
(29.4034 -2.70442 -4.60097e-15)
(27.8473 -3.06575 -9.72863e-17)
(26.2211 -3.32017 -6.49596e-15)
(24.4882 -3.47062 -5.17884e-15)
(22.6291 -3.51782 7.34089e-15)
(20.3928 -3.42558 0)
(18.0341 -3.15827 -5.4859e-16)
(13.0072 -2.58034 -1.12827e-14)
(7.60075 16.3354 -2.72544e-17)
(6.87144 14.6306 -8.13256e-17)
(6.32206 12.65 3.52548e-16)
(5.95543 10.4539 0)
(5.90575 8.14056 5.68767e-16)
(6.21267 5.80903 0)
(6.87743 3.55141 3.20038e-15)
(7.87763 1.47095 1.35421e-15)
(9.15397 -0.31831 1.15315e-15)
(10.6076 -1.76857 0)
(12.1295 -2.8743 -1.67283e-15)
(13.6311 -3.66295 -3.50661e-16)
(15.0597 -4.18395 1.6016e-15)
(16.3841 -4.49202 0)
(17.5912 -4.64132 -7.20474e-16)
(18.6872 -4.67353 -2.17447e-16)
(19.6852 -4.62306 8.72363e-16)
(20.6023 -4.51257 4.42861e-16)
(21.4571 -4.35798 1.15627e-16)
(22.2684 -4.16142 -6.54453e-17)
(23.0492 -3.92232 5.99983e-16)
(23.8081 -3.62877 0)
(24.5439 -3.26488 0)
(25.2343 -2.8073 2.65683e-17)
(25.8322 -2.27169 0)
(26.3141 -1.7103 2.24934e-17)
(26.6928 -1.1415 7.18446e-19)
(26.9817 -0.570043 2.5715e-17)
(27.1837 -0.000912949 0)
(27.3006 0.558188 9.19188e-17)
(27.3364 1.0994 -1.77908e-16)
(27.2953 1.61238 0)
(27.1794 2.08777 6.5757e-16)
(26.9907 2.51817 0)
(26.7201 2.9022 0)
(26.3735 3.24394 3.82417e-17)
(25.8409 3.55121 -6.34821e-17)
(25.2662 3.79558 1.7357e-15)
(23.4069 3.91015 7.71033e-15)
(10.7507 16.5131 -2.14455e-17)
(11.7578 17.8188 -2.67354e-17)
(13.0003 19.122 3.13723e-17)
(14.4586 20.3436 1.92816e-17)
(16.1002 21.3986 0)
(17.9329 22.2722 0)
(19.9074 22.9158 -4.34563e-16)
(21.9708 23.2911 5.60549e-16)
(24.0801 23.3875 0)
(26.183 23.2008 -7.78194e-16)
(28.23 22.7389 -1.03098e-15)
(30.1823 22.0198 -9.969e-16)
(32.0045 21.0677 1.21986e-15)
(33.6685 19.9084 1.16847e-15)
(35.1501 18.5701 0)
(36.4314 17.0835 1.90838e-15)
(37.4959 15.4812 6.75397e-16)
(38.3193 13.8091 5.53216e-15)
(38.8898 12.0986 3.38396e-16)
(39.2065 10.3784 -3.34691e-16)
(39.2732 8.67899 2.85528e-15)
(39.1036 7.04324 -4.68899e-16)
(38.7257 5.51061 2.56712e-15)
(38.1781 4.12358 1.07589e-15)
(37.5187 2.91145 -6.40533e-17)
(36.8043 1.83951 -9.41398e-16)
(36.039 0.857251 6.9742e-18)
(35.1912 -0.0389714 -7.00689e-18)
(34.2401 -0.843717 -1.57622e-15)
(33.1767 -1.55446 -4.16583e-17)
(31.9944 -2.16529 2.62472e-15)
(30.6912 -2.67097 -4.45543e-15)
(29.267 -3.06926 -3.58269e-15)
(27.7218 -3.36017 -4.79517e-18)
(26.0283 -3.5426 4.70339e-15)
(24.1741 -3.61216 0)
(21.9327 -3.53662 3.68236e-15)
(19.5129 -3.23397 4.68065e-16)
(14.8277 -2.72527 4.64216e-15)
(9.93803 15.1632 -3.62723e-17)
(9.24353 13.7226 1.18214e-16)
(8.69175 12.0427 4.53245e-16)
(8.29402 10.1694 0)
(8.15823 8.19388 -4.87043e-16)
(8.31222 6.17449 0)
(8.75751 4.17788 -2.26555e-15)
(9.47999 2.30265 -6.94496e-17)
(10.444 0.646022 8.98217e-16)
(11.5871 -0.749127 7.70978e-16)
(12.8316 -1.86119 2.0421e-17)
(14.1066 -2.69592 1.3064e-15)
(15.3629 -3.2856 -8.08127e-16)
(16.5651 -3.67096 2.60955e-16)
(17.6921 -3.89384 8.68799e-16)
(18.7383 -3.99333 9.37466e-16)
(19.7072 -4.00156 -8.20345e-16)
(20.6074 -3.94256 1.09718e-17)
(21.4515 -3.83294 0)
(22.2532 -3.67829 7.88627e-16)
(23.0234 -3.47818 3.52764e-17)
(23.769 -3.22334 -5.26616e-16)
(24.4888 -2.89991 0)
(25.1646 -2.48917 2.56692e-17)
(25.7577 -1.99938 0)
(26.2447 -1.47173 -2.15696e-17)
(26.6335 -0.928254 0)
(26.9359 -0.378046 -2.42956e-17)
(27.1559 0.171299 1.47094e-18)
(27.2951 0.710154 -1.06231e-18)
(27.3571 1.22772 1.62301e-16)
(27.3468 1.71458 4.91952e-18)
(27.2677 2.1638 0)
(27.1237 2.57064 -4.50325e-16)
(26.9075 2.93579 -6.2659e-18)
(26.6231 3.26274 3.19985e-16)
(26.1674 3.56244 6.51007e-16)
(25.6424 3.77803 3.87777e-18)
(23.9954 3.9014 0)
(12.404 15.4213 -2.80873e-17)
(13.2644 16.5737 -1.73652e-17)
(14.3278 17.7408 5.31034e-17)
(15.5682 18.8525 -9.71003e-17)
(16.9574 19.8331 7.18932e-18)
(18.5157 20.6802 -7.70666e-17)
(20.2027 21.3493 1.76472e-16)
(21.978 21.8037 0)
(23.814 22.0305 8.46771e-16)
(25.6677 22.0177 4.26937e-16)
(27.5001 21.7626 0)
(29.2777 21.2713 9.50604e-16)
(30.9664 20.5563 -5.167e-16)
(32.537 19.6332 1.44091e-15)
(33.9641 18.5219 0)
(35.2252 17.2457 -2.48357e-15)
(36.3004 15.8291 2.4096e-15)
(37.178 14.2893 -1.52032e-16)
(37.8462 12.6472 0)
(38.2888 10.9419 2.68787e-15)
(38.494 9.21725 -2.72325e-15)
(38.4584 7.53023 -1.3987e-16)
(38.1958 5.93352 -2.13346e-15)
(37.7386 4.47839 -1.96469e-15)
(37.1444 3.20026 0)
(36.4772 2.07534 0)
(35.7611 1.05689 -2.14417e-16)
(34.9863 0.134409 -2.40807e-17)
(34.1454 -0.690686 1.48751e-15)
(33.2346 -1.41933 -3.94573e-17)
(32.2433 -2.04992 3.94483e-17)
(31.1555 -2.5801 4.14772e-15)
(29.9512 -3.00842 0)
(28.6098 -3.33353 1.14581e-14)
(27.0894 -3.55115 -3.9333e-17)
(25.3686 -3.65097 0)
(23.2342 -3.60056 -3.06398e-17)
(20.8537 -3.28384 0)
(16.4179 -2.78225 -3.95925e-15)
(11.7014 14.2353 4.22077e-17)
(11.0954 12.9806 -2.37635e-16)
(10.5935 11.5155 2.49253e-16)
(10.2052 9.88088 3.58646e-16)
(10.024 8.16116 -1.49678e-15)
(10.0732 6.38563 -1.72732e-15)
(10.3655 4.60622 1.70881e-15)
(10.8928 2.91585 -1.59784e-15)
(11.6301 1.39515 -7.02352e-16)
(12.5353 0.0767333 -6.16845e-16)
(13.551 -1.01693 1.18917e-15)
(14.6217 -1.88146 -1.11941e-15)
(15.7069 -2.536 -4.79376e-16)
(16.7743 -3.00775 4.69159e-16)
(17.8007 -3.32441 -9.84463e-16)
(18.7752 -3.51617 1.86674e-16)
(19.695 -3.60847 0)
(20.5625 -3.62169 -6.43694e-16)
(21.3847 -3.57058 2.23239e-16)
(22.1707 -3.46255 -8.32651e-16)
(22.9283 -3.29884 0)
(23.6622 -3.07388 4.57429e-16)
(24.3703 -2.77767 3.35158e-16)
(25.0367 -2.39758 -2.01671e-16)
(25.6285 -1.94002 0)
(26.1227 -1.43905 -6.32164e-17)
(26.5222 -0.91796 0)
(26.8367 -0.386408 0)
(27.0698 0.14806 0)
(27.2234 0.675794 -5.91303e-17)
(27.3006 1.18693 0)
(27.3063 1.67201 0)
(27.2445 2.12263 4.82604e-16)
(27.1195 2.53256 4.26871e-16)
(26.9256 2.90146 0)
(26.6681 3.23123 2.25356e-16)
(26.2533 3.53318 6.7941e-17)
(25.7736 3.73682 0)
(24.3319 3.8562 -3.40209e-15)
(13.8505 14.4778 3.6633e-17)
(14.6249 15.4991 -2.62437e-17)
(15.579 16.5402 0)
(16.6868 17.536 1.13917e-17)
(17.9207 18.4187 1.73324e-17)
(19.3078 19.1926 7.2032e-17)
(20.8129 19.8163 3.95455e-17)
(22.4038 20.257 -4.6777e-16)
(24.0621 20.5007 -6.91664e-17)
(25.7523 20.5333 8.4394e-16)
(27.4415 20.3474 -3.05483e-16)
(29.1008 19.9434 7.25466e-16)
(30.6975 19.3273 3.66929e-16)
(32.202 18.5094 2.68491e-16)
(33.5876 17.5048 0)
(34.8286 16.3327 -5.39991e-16)
(35.9028 15.015 -1.2017e-15)
(36.7899 13.579 -4.57044e-15)
(37.4672 12.0621 1.35792e-15)
(37.9212 10.4974 -1.73149e-15)
(38.1441 8.91962 -2.71196e-16)
(38.1369 7.36912 0)
(37.9127 5.88768 1.90431e-15)
(37.4995 4.51628 1.21349e-16)
(36.945 3.28611 -5.4504e-17)
(36.3031 2.18602 -7.59997e-16)
(35.5999 1.18233 1.75637e-16)
(34.8343 0.267222 3.67981e-16)
(34.0068 -0.554926 -1.37818e-15)
(33.1236 -1.28321 -7.35636e-17)
(32.1865 -1.91693 2.34564e-15)
(31.1903 -2.45525 3.80321e-15)
(30.1206 -2.89839 0)
(28.9539 -3.24584 -1.42975e-17)
(27.6366 -3.4927 -4.20906e-15)
(26.1296 -3.62452 0)
(24.2093 -3.60628 -6.38011e-15)
(22.005 -3.29514 0)
(17.8414 -2.80087 3.54131e-15)
(13.2112 13.4292 -4.12324e-17)
(12.6557 12.3265 9.51861e-17)
(12.1817 11.0349 0)
(11.7985 9.591 0)
(11.5879 8.07432 6.29355e-16)
(11.5662 6.49571 2.72472e-15)
(11.7506 4.89719 0)
(12.1363 3.36647 -1.20465e-15)
(12.704 1.97147 -1.14045e-15)
(13.4252 0.737109 1.12865e-15)
(14.257 -0.315277 -4.17755e-17)
(15.1562 -1.17562 4.82629e-16)
(16.0908 -1.85507 3.27692e-17)
(17.0335 -2.37183 1.22306e-15)
(17.9619 -2.74402 1.07029e-15)
(18.8627 -2.99417 -9.88041e-16)
(19.7292 -3.14249 1.34555e-16)
(20.5592 -3.20646 -2.47645e-16)
(21.3547 -3.19957 1.13265e-16)
(22.1206 -3.12998 6.31549e-16)
(22.8614 -3.00035 7.94956e-17)
(23.5798 -2.80754 -5.0642e-17)
(24.2727 -2.54372 -2.81777e-16)
(24.9261 -2.19957 0)
(25.5119 -1.77973 6.88108e-18)
(26.008 -1.31165 1.32034e-16)
(26.4135 -0.81801 2.40605e-19)
(26.7356 -0.309557 -2.38895e-19)
(26.9776 0.205189 0)
(27.141 0.715907 5.5629e-17)
(27.2288 1.21198 0)
(27.2456 1.68337 0)
(27.1949 2.12198 -4.46741e-16)
(27.0809 2.52208 -3.52417e-16)
(26.8979 2.8834 0)
(26.651 3.20631 -2.10358e-16)
(26.2537 3.50169 -8.38766e-16)
(25.7914 3.68759 7.64839e-18)
(24.5055 3.78805 3.12236e-15)
(15.0631 13.6716 3.32133e-18)
(15.7616 14.587 -2.34316e-17)
(16.6206 15.5264 4.19985e-17)
(17.6131 16.4286 -4.07507e-17)
(18.7107 17.2333 -3.33073e-18)
(19.9448 17.9495 0)
(21.2839 18.5408 -1.83929e-16)
(22.701 18.9776 -8.80051e-18)
(24.1851 19.2479 -2.43527e-16)
(25.7065 19.3369 -5.05378e-16)
(27.2392 19.235 0)
(28.7599 18.9386 -1.31155e-15)
(30.2392 18.4484 -1.15874e-15)
(31.6501 17.7691 -2.86637e-15)
(32.9667 16.9103 0)
(34.1628 15.8858 -1.81426e-15)
(35.2146 14.7136 -1.9239e-15)
(36.1005 13.416 2.14512e-15)
(36.8028 12.0132 -2.13222e-15)
(37.3044 10.5357 1.98235e-15)
(37.5931 9.01944 2.44965e-16)
(37.664 7.50976 -2.10884e-15)
(37.524 6.05317 0)
(37.1949 4.69336 -1.81713e-15)
(36.7155 3.46208 1.06539e-16)
(36.1321 2.35478 7.93204e-16)
(35.471 1.34483 0)
(34.7355 0.424122 -2.71931e-17)
(33.9282 -0.403475 5.82615e-17)
(33.0575 -1.13693 2.23827e-15)
(32.1301 -1.77591 -2.06964e-15)
(31.1502 -2.32014 -3.58479e-15)
(30.1162 -2.77079 3.02709e-15)
(29.0199 -3.12905 -5.33364e-17)
(27.8223 -3.39177 3.98218e-15)
(26.4928 -3.54506 5.46868e-15)
(24.8115 -3.55451 3.05309e-15)
(22.8889 -3.25807 -7.61137e-18)
(19.0873 -2.78886 -4.52455e-18)
(14.4807 12.7333 1.63932e-17)
(13.971 11.752 1.7413e-16)
(13.5243 10.5998 2.16896e-16)
(13.1498 9.30958 -4.33224e-16)
(12.9211 7.95658 -1.62773e-15)
(12.8506 6.53935 4.69075e-16)
(12.9566 5.09367 1.01659e-15)
(13.2375 3.70172 2.52483e-15)
(13.6775 2.42154 9.9388e-16)
(14.256 1.27167 -9.28036e-16)
(14.9401 0.271286 -2.0007e-17)
(15.6957 -0.56789 -4.27448e-16)
(16.4982 -1.2531 0)
(17.3254 -1.79653 -1.64143e-17)
(18.1573 -2.20957 -6.68335e-16)
(18.9809 -2.50834 2.8456e-16)
(19.7879 -2.70783 -2.79669e-16)
(20.5728 -2.82153 0)
(21.3344 -2.86034 4.00553e-16)
(22.0741 -2.8317 -6.69117e-16)
(22.7936 -2.73835 0)
(23.4935 -2.57852 4.50515e-16)
(24.1697 -2.34645 0)
(24.8094 -2.03573 -1.26474e-17)
(25.3883 -1.65046 1.25383e-17)
(25.8852 -1.21322 -7.33442e-17)
(26.296 -0.745658 -1.71303e-18)
(26.6255 -0.259725 -3.5087e-20)
(26.8763 0.235301 -5.63467e-19)
(27.0498 0.728993 4.00186e-17)
(27.1482 1.21085 9.45461e-17)
(27.1758 1.67147 -1.89673e-16)
(27.1355 2.10272 -6.12854e-18)
(27.031 2.49839 2.68534e-17)
(26.8566 2.85725 0)
(26.6167 3.17728 5.50467e-19)
(26.2305 3.46771 4.105e-16)
(25.7762 3.63708 -1.0375e-17)
(24.6031 3.71297 2.88339e-15)
(16.1117 12.9641 6.35988e-18)
(16.7513 13.7899 3.61665e-17)
(17.5362 14.6409 0)
(18.439 15.4595 -2.01883e-17)
(19.4309 16.191 -3.38242e-17)
(20.5453 16.8483 0)
(21.7534 17.3978 -6.9718e-17)
(23.0317 17.8136 6.10169e-16)
(24.3744 18.0854 -9.21581e-16)
(25.757 18.1986 2.91845e-16)
(27.1581 18.1429 4.3596e-16)
(28.5593 17.9125 1.6603e-15)
(29.9352 17.5045 1.21787e-15)
(31.2615 16.9196 1.48113e-15)
(32.5136 16.163 4.0028e-16)
(33.6656 15.2444 1.3333e-15)
(34.693 14.1779 1.84277e-15)
(35.5733 12.982 1.81255e-15)
(36.2847 11.6816 -1.36175e-15)
(36.808 10.3069 -4.18761e-15)
(37.1301 8.89073 0)
(37.2459 7.4713 7.77949e-17)
(37.1611 6.0894 1.64481e-15)
(36.8938 4.78395 1.72722e-15)
(36.4766 3.58469 -9.80164e-17)
(35.948 2.49368 -7.14393e-16)
(35.3332 1.49293 5.1261e-18)
(34.6377 0.576394 -3.62797e-16)
(33.864 -0.251399 3.81174e-17)
(33.0192 -0.988075 -4.1761e-15)
(32.1096 -1.63243 -7.18695e-18)
(31.14 -2.1832 -5.60266e-17)
(30.1132 -2.64054 -2.88325e-15)
(29.0301 -3.00531 -5.3403e-17)
(27.8682 -3.27504 -3.67775e-15)
(26.6218 -3.43707 -1.03199e-14)
(25.1055 -3.46126 2.84593e-15)
(23.4703 -3.17584 3.75672e-16)
(20.1163 -2.74178 2.83807e-15)
(15.5737 12.1187 -6.57679e-17)
(15.1005 11.2378 -2.33787e-16)
(14.6768 10.2015 -1.59247e-16)
(14.3117 9.03926 -3.98705e-16)
(14.0718 7.82087 8.90974e-16)
(13.9673 6.5383 -5.92672e-17)
(14.0157 5.2235 -2.56045e-15)
(14.2175 3.95222 -8.65685e-16)
(14.5597 2.77511 2.24267e-17)
(15.0266 1.70603 0)
(15.5919 0.762144 -7.89819e-16)
(16.2283 -0.0448639 7.26572e-16)
(16.9169 -0.720411 -6.8945e-16)
(17.6402 -1.27305 -3.48213e-16)
(18.3814 -1.70964 2.83398e-16)
(19.1292 -2.04154 2.82286e-16)
(19.8745 -2.27917 9.82323e-16)
(20.6107 -2.43231 -2.30009e-16)
(21.3342 -2.50936 -3.75904e-16)
(22.0438 -2.51656 0)
(22.7387 -2.45647 -5.39042e-16)
(23.4173 -2.32817 -3.76337e-16)
(24.075 -2.12741 -1.08421e-17)
(24.6996 -1.84998 -3.62447e-17)
(25.2695 -1.4997 -8.37232e-18)
(25.7646 -1.09483 1.14187e-16)
(26.1786 -0.655573 -5.67971e-19)
(26.5139 -0.194467 8.76711e-19)
(26.7723 0.278815 -2.66064e-18)
(26.9547 0.753947 -3.7168e-17)
(27.0628 1.22059 -1.13971e-17)
(27.1002 1.66935 3.60504e-16)
(27.0697 2.09197 3.04935e-16)
(26.9741 2.48185 2.86524e-16)
(26.8078 2.83673 5.36202e-18)
(26.5746 3.15222 -1.80268e-18)
(26.1988 3.43528 -5.14501e-16)
(25.7533 3.58738 -1.50284e-15)
(24.6723 3.63729 -2.65614e-15)
(17.0226 12.3373 -1.97155e-17)
(17.6127 13.0867 -1.54015e-17)
(18.3354 13.8615 -6.92827e-17)
(19.1628 14.6077 2.05184e-16)
(20.0661 15.2749 -4.85577e-17)
(21.0792 15.8788 -3.79268e-17)
(22.1754 16.389 2.34154e-16)
(23.3339 16.7821 0)
(24.5523 17.0506 2.79571e-16)
(25.8097 17.1804 1.71641e-17)
(27.0891 17.1616 -3.72093e-16)
(28.3763 16.9873 -1.53165e-15)
(29.6496 16.6527 -6.41737e-16)
(30.8877 16.1558 0)
(32.0683 15.4982 0)
(33.167 14.6858 0)
(34.1596 13.7292 0)
(35.0229 12.644 -1.73775e-15)
(35.7358 11.4492 1.78339e-15)
(36.2788 10.1695 1.75246e-15)
(36.6362 8.83559 -1.41363e-15)
(36.8005 7.48472 1.244e-15)
(36.7735 6.15691 -1.28507e-15)
(36.5692 4.89074 -9.3937e-17)
(36.2141 3.71545 -4.29662e-17)
(35.7409 2.63703 7.21933e-16)
(35.1737 1.64368 1.55387e-16)
(34.5207 0.73081 0)
(33.7855 -0.0971271 0)
(32.9746 -0.836941 3.43597e-17)
(32.0932 -1.48685 0)
(31.1453 -2.04464 3.07267e-15)
(30.1327 -2.50934 -2.71147e-15)
(29.0575 -2.88043 -4.33694e-15)
(27.9028 -3.15472 6.80656e-15)
(26.6782 -3.3188 4.87034e-15)
(25.2323 -3.3464 -2.68982e-15)
(23.7948 -3.0598 -7.19336e-16)
(20.9044 -2.65607 -2.68126e-15)
(16.5224 11.5706 0)
(16.0802 10.7741 6.61931e-17)
(15.6773 9.83526 3.04445e-16)
(15.3223 8.78097 -1.28668e-15)
(15.0761 7.67551 1.06932e-15)
(14.9477 6.50728 -7.5606e-16)
(14.9531 5.3053 1.73075e-17)
(15.0944 4.13926 6.88625e-16)
(15.3609 3.05453 7.10562e-16)
(15.7397 2.06143 0)
(16.2092 1.17486 3.28319e-16)
(16.7468 0.405915 -9.97486e-16)
(17.3381 -0.250201 1.54971e-15)
(17.9692 -0.800044 2.76327e-16)
(18.6268 -1.24794 -5.55431e-16)
(19.3014 -1.60168 -5.07977e-16)
(19.9847 -1.86816 -4.57868e-16)
(20.6696 -2.05394 0)
(21.3515 -2.1648 0)
(22.0271 -2.20527 0)
(22.694 -2.17728 5.08349e-16)
(23.3488 -2.08015 0)
(23.986 -1.91068 -2.98599e-16)
(24.5941 -1.66623 -3.60441e-17)
(25.1534 -1.35024 -1.81092e-16)
(25.645 -0.977706 -1.00614e-16)
(26.0607 -0.566913 0)
(26.4007 -0.130679 -2.9713e-19)
(26.6658 0.321051 2.74803e-18)
(26.8564 0.777945 -6.17896e-19)
(26.9736 1.22967 -1.39555e-16)
(27.0205 1.66692 -1.92432e-17)
(26.9994 2.08122 -2.97715e-16)
(26.9126 2.46541 2.16632e-16)
(26.7544 2.81607 0)
(26.528 3.12641 -1.50764e-18)
(26.1631 3.40085 -5.56035e-17)
(25.7283 3.53576 1.43397e-15)
(24.7315 3.55984 -1.44185e-17)
(17.8224 11.7753 2.03725e-17)
(18.3709 12.4586 0)
(19.0411 13.1665 1.35477e-16)
(19.8053 13.8486 -1.0811e-16)
(20.6346 14.4581 1.48249e-17)
(21.5629 15.0123 3.54296e-17)
(22.5649 15.4834 -1.01915e-16)
(23.6218 15.8512 -1.51121e-16)
(24.7336 16.1094 0)
(25.8822 16.2454 -3.21077e-16)
(27.054 16.2498 -3.58105e-16)
(28.2384 16.1157 3.54069e-16)
(29.4167 15.8371 1.37337e-15)
(30.5711 15.4097 5.68637e-16)
(31.6818 14.8329 -1.7295e-15)
(32.7258 14.1096 -1.26628e-15)
(33.6803 13.2469 1.0064e-15)
(34.5222 12.2569 7.51204e-16)
(35.2305 11.1566 -3.87956e-16)
(35.7841 9.96883 3.91497e-16)
(36.1663 8.72187 9.94594e-16)
(36.368 7.44898 1.8482e-16)
(36.3887 6.1866 -1.74902e-16)
(36.2391 4.97061 -1.16334e-15)
(35.9403 3.82887 0)
(35.5193 2.77027 -6.10805e-16)
(34.9981 1.7889 -2.91662e-16)
(34.3867 0.882691 -2.68901e-16)
(33.6899 0.0566227 -9.93249e-16)
(32.914 -0.685027 3.70844e-15)
(32.0643 -1.33952 1.521e-15)
(31.1444 -1.90375 4.4977e-18)
(30.1549 -2.37553 3.41641e-17)
(29.097 -2.753 0)
(27.9534 -3.0317 -3.19653e-15)
(26.7372 -3.19629 0)
(25.3128 -3.22298 0)
(23.9627 -2.92571 3.43641e-16)
(21.4704 -2.5374 6.12104e-18)
(17.3543 11.0764 -6.71754e-17)
(16.9388 10.352 2.14683e-16)
(16.5544 9.49664 1.57316e-17)
(16.2098 8.53488 2.8963e-16)
(15.9608 7.5259 -9.36588e-16)
(15.8155 6.45609 6.12076e-16)
(15.7885 5.35212 1.74399e-17)
(15.8831 4.27866 -5.79068e-16)
(16.0903 3.27661 -5.58151e-16)
(16.399 2.35374 -5.86786e-16)
(16.7908 1.52317 -1.13664e-15)
(17.2466 0.795079 0)
(17.7551 0.164569 -5.6535e-16)
(18.3054 -0.373939 -1.83901e-17)
(18.8871 -0.823134 0)
(19.4927 -1.1887 -4.55129e-16)
(20.1153 -1.47479 -2.15501e-16)
(20.7481 -1.68546 -1.985e-16)
(21.3862 -1.82424 6.64556e-16)
(22.0253 -1.89387 5.77926e-16)
(22.6614 -1.89524 -5.66234e-17)
(23.2902 -1.82766 4.17346e-16)
(23.9053 -1.68856 7.08603e-17)
(24.4954 -1.47615 -3.5654e-17)
(25.0427 -1.19361 1.62536e-16)
(25.5288 -0.853233 9.35887e-18)
(25.9444 -0.471205 0)
(26.2877 -0.0602473 0)
(26.5585 0.36945 3.97246e-19)
(26.7564 0.807558 -1.87092e-18)
(26.8822 1.24372 1.13779e-16)
(26.9381 1.66852 -1.89633e-17)
(26.926 2.07331 -2.30575e-16)
(26.8479 2.45039 -2.08307e-16)
(26.6979 2.79528 -2.16084e-18)
(26.4789 3.09897 4.03163e-18)
(26.1256 3.36335 1.08951e-15)
(25.7027 3.48114 -1.40917e-15)
(24.7862 3.48033 1.3534e-17)
(18.5294 11.267 7.94685e-18)
(19.0419 11.8925 0)
(19.6671 12.5415 -6.87055e-17)
(20.377 13.1666 0)
(21.1428 13.7246 2.49503e-18)
(21.9983 14.2334 -2.40833e-18)
(22.9193 14.6679 7.61261e-17)
(23.8884 15.01 1.42039e-16)
(24.907 15.255 0)
(25.9595 15.3917 -2.00985e-16)
(27.0348 15.4118 3.64716e-16)
(28.1251 15.3084 -7.60715e-16)
(29.2148 15.075 -4.31782e-16)
(30.2888 14.7066 -4.48168e-16)
(31.3297 14.2006 1.10301e-15)
(32.3171 13.5574 1.20815e-15)
(33.2294 12.7815 -1.30776e-15)
(34.0445 11.882 -1.31146e-15)
(34.7414 10.8731 0)
(35.2996 9.77363 3.59208e-16)
(35.7014 8.60866 -6.9527e-16)
(35.9358 7.40884 1.70339e-16)
(36 6.20828 3.03885e-18)
(35.901 5.04102 2.7473e-15)
(35.6553 3.9337 -1.50364e-16)
(35.2849 2.897 9.11927e-17)
(34.8092 1.92958 2.70416e-16)
(34.2391 1.03179 2.86167e-16)
(33.5802 0.209219 8.5718e-16)
(32.8392 -0.532782 -1.71212e-15)
(32.0216 -1.1905 -1.39843e-15)
(31.131 -1.75993 -5.45391e-15)
(30.1683 -2.2378 4.66113e-15)
(29.1339 -2.62093 -6.55948e-17)
(28.0104 -2.90379 2.97801e-15)
(26.8095 -3.0687 -9.09251e-17)
(25.4014 -3.0941 4.992e-17)
(24.0698 -2.7842 5.62624e-18)
(21.8714 -2.39472 -2.07599e-15)
(18.0893 10.6273 3.45452e-17)
(17.6974 9.96526 -1.08453e-16)
(17.3297 9.18217 2.07449e-16)
(16.9954 8.30046 0)
(16.7463 7.37521 5.35383e-16)
(16.5893 6.39105 0)
(16.5377 5.37324 0)
(16.5959 4.38164 0)
(16.7562 3.45377 1.03678e-15)
(17.0086 2.59546 -5.00297e-16)
(17.3371 1.81841 5.64814e-16)
(17.725 1.13192 0)
(18.1632 0.530695 0)
(18.6432 0.00939206 -4.83722e-16)
(19.1568 -0.433812 0)
(19.6985 -0.803184 4.25815e-16)
(20.2628 -1.10135 7.9921e-18)
(20.8441 -1.33029 0)
(21.4373 -1.49155 -4.78062e-16)
(22.0379 -1.58634 -6.90181e-16)
(22.6411 -1.61454 -4.67411e-16)
(23.2417 -1.57498 -3.85797e-16)
(23.833 -1.46519 6.29192e-16)
(24.4039 -1.2838 0)
(24.9376 -1.03373 1.78887e-16)
(25.4164 -0.724918 1.41665e-16)
(25.8302 -0.371609 4.11739e-17)
(26.1755 0.0138631 0)
(26.4509 0.421177 -3.70185e-19)
(26.6555 0.840009 1.01632e-17)
(26.7892 1.25997 -8.68652e-17)
(26.8537 1.67156 -1.86173e-17)
(26.8506 2.06591 2.12749e-16)
(26.7811 2.43482 -1.41981e-16)
(26.6396 2.77282 -2.58416e-18)
(26.4283 3.06891 -1.42217e-18)
(26.0875 3.32239 -1.13678e-15)
(25.6777 3.42423 1.32169e-15)
(24.8377 3.40016 4.17804e-15)
(19.1586 10.804 4.87067e-18)
(19.6397 11.3784 -2.41561e-17)
(20.2254 11.9751 0)
(20.8882 12.5491 -7.0318e-17)
(21.5992 13.0606 0)
(22.3916 13.5278 0)
(23.2423 13.9278 2.0866e-17)
(24.1349 14.2445 1.3212e-16)
(25.0721 14.4743 3.18499e-16)
(26.0397 14.6076 8.67961e-16)
(27.029 14.6369 5.13904e-16)
(28.0341 14.5561 6.12672e-16)
(29.042 14.3584 0)
(30.0403 14.0383 1.24978e-15)
(31.0141 13.5919 -4.44671e-16)
(31.945 13.0181 0)
(32.8133 12.319 1.08942e-15)
(33.5982 11.5011 1.25392e-15)
(34.2792 10.5759 0)
(34.8365 9.5593 1.27131e-15)
(35.2515 8.47404 -1.24645e-15)
(35.5119 7.34739 0)
(35.6131 6.21042 -1.48647e-16)
(35.559 5.09477 2.80097e-17)
(35.3622 4.02559 7.07241e-17)
(35.0399 3.01468 1.06226e-15)
(34.6086 2.06433 -3.6541e-18)
(34.0795 1.17747 -2.82897e-17)
(33.4586 0.360627 -2.37828e-17)
(32.7526 -0.379881 5.18742e-17)
(31.9671 -1.0392 1.40778e-15)
(31.1061 -1.61239 4.93144e-15)
(30.171 -2.09513 3.8949e-17)
(29.1624 -2.48293 -3.51607e-15)
(28.0637 -2.76934 -2.70356e-15)
(26.8856 -2.93429 -3.91373e-15)
(25.5052 -2.95863 -2.19351e-15)
(24.1726 -2.64023 1.42875e-17)
(22.1739 -2.23834 1.92233e-15)
(18.7432 10.2163 -7.32161e-17)
(18.3721 9.60889 -2.55708e-16)
(18.0199 8.88913 4.95441e-16)
(17.6959 8.0775 0)
(17.4485 7.22541 8.48169e-16)
(17.2834 6.31686 0)
(17.2132 5.37528 -4.17847e-16)
(17.2429 4.45657 1.66649e-15)
(17.3658 3.5954 -1.2727e-15)
(17.5726 2.79643 0)
(17.8492 2.0699 9.13826e-16)
(18.1807 1.42431 8.70477e-16)
(18.5592 0.854037 0)
(18.9783 0.353834 -8.34638e-16)
(19.4313 -0.0778758 1.975e-16)
(19.9145 -0.444849 -1.976e-16)
(20.424 -0.748599 1.88496e-16)
(20.955 -0.989715 3.24104e-16)
(21.5033 -1.16828 -1.49475e-17)
(22.0643 -1.28409 3.74847e-16)
(22.633 -1.33598 1.02116e-16)
(23.2038 -1.32217 -1.01407e-16)
(23.7699 -1.24009 -3.02127e-16)
(24.3202 -1.08841 2.47099e-16)
(24.8388 -0.869552 -1.59206e-16)
(25.3087 -0.591649 -1.45445e-16)
(25.719 -0.267002 -3.92285e-17)
(26.0649 0.092685 -2.25751e-19)
(26.3438 0.4771 5.80005e-19)
(26.5542 0.876015 -9.73087e-18)
(26.6954 1.27903 1.01215e-17)
(26.7681 1.67651 -1.82068e-17)
(26.7737 2.05943 -1.49143e-16)
(26.713 2.41908 1.46119e-16)
(26.5802 2.74913 -8.16009e-19)
(26.3771 3.03686 -6.11367e-17)
(26.0496 3.27912 5.72152e-16)
(25.6538 3.36649 0)
(24.8866 3.32091 -4.01324e-15)
(19.7215 10.3795 1.28419e-17)
(20.1747 10.9085 0)
(20.7256 11.4582 0)
(21.3467 11.9864 1.09651e-16)
(22.0096 12.456 -2.01517e-17)
(22.7468 12.8851 0)
(23.5359 13.2529 0)
(24.3613 13.545 -4.05308e-16)
(25.2267 13.759 -2.15862e-17)
(26.1191 13.8863 -2.84587e-17)
(27.0311 13.9205 -1.19245e-15)
(27.9591 13.856 -3.24427e-16)
(28.8918 13.6866 6.26955e-16)
(29.8191 13.4065 -5.4143e-17)
(30.7284 13.0112 0)
(31.6036 12.4981 0)
(32.427 11.8678 -2.98416e-15)
(33.179 11.1243 -5.55684e-16)
(33.8401 10.277 5.68613e-16)
(34.3915 9.33884 -1.23233e-15)
(34.8145 8.32946 2.34719e-15)
(35.0955 7.27333 1.11405e-15)
(35.2282 6.1988 -1.08002e-15)
(35.2141 5.13523 -1.22072e-15)
(35.062 4.10623 1.93358e-16)
(34.7851 3.12394 -1.04547e-15)
(34.3972 2.19339 -1.1796e-16)
(33.9086 1.3199 2.62883e-17)
(33.3259 0.510955 -2.61905e-17)
(32.6552 -0.226061 8.77783e-17)
(31.9023 -0.88526 -3.632e-17)
(31.0715 -1.46078 -2.43432e-15)
(30.1643 -1.94716 -9.10405e-17)
(29.1822 -2.33869 1.07277e-16)
(28.1099 -2.62791 0)
(26.9582 -2.7926 3.63546e-15)
(25.6151 -2.81554 2.05328e-15)
(24.29 -2.49446 0)
(22.4303 -2.07541 0)
(19.3282 9.83798 0)
(18.9757 9.27885 2.26935e-16)
(18.6381 8.61524 -7.33139e-16)
(18.3243 7.86539 -3.43111e-16)
(18.0799 7.078 -7.69854e-16)
(17.9094 6.23665 0)
(17.8252 5.36304 0)
(17.8325 4.5097 -7.49309e-16)
(17.9254 3.70887 7.71033e-16)
(18.0951 2.96421 0)
(18.3288 2.28487 -3.85877e-16)
(18.6131 1.67878 -4.10035e-16)
(18.9411 1.14012 3.82574e-16)
(19.3075 0.663299 3.90494e-16)
(19.707 0.246698 -7.21055e-16)
(20.1373 -0.113082 0)
(20.5956 -0.417101 -1.56709e-16)
(21.0785 -0.665096 1.23642e-17)
(21.5825 -0.856168 6.77986e-16)
(22.1036 -0.98898 -1.17779e-16)
(22.6369 -1.06135 1.12368e-16)
(23.1768 -1.0709 -8.24461e-17)
(23.7162 -1.01474 1.14924e-16)
(24.2448 -0.891332 -5.09731e-16)
(24.7468 -0.702437 -1.69395e-16)
(25.2061 -0.454597 1.27961e-16)
(25.6113 -0.158358 -7.19938e-18)
(25.9563 0.175401 0)
(26.2378 0.536571 -1.71861e-18)
(26.4531 0.915058 1.5234e-18)
(26.601 1.30052 2.50646e-17)
(26.6817 1.68318 -7.02653e-17)
(26.6958 2.05389 2.57002e-16)
(26.6438 2.40346 -1.83059e-16)
(26.5199 2.72477 2.3495e-18)
(26.3256 3.00366 5.94911e-17)
(26.0121 3.23452 1.51645e-17)
(25.6314 3.30934 -3.9685e-17)
(24.933 3.24491 -3.58861e-15)
(20.2274 9.98841 -1.16123e-17)
(20.6558 10.4767 0)
(21.1754 10.9841 0)
(21.7595 11.4708 -3.78248e-17)