/*--------------------------------*- C++ -*----------------------------------*\
  =========                 |
  \\      /  F ield         | OpenFOAM: The Open Source CFD Toolbox
   \\    /   O peration     | Website:  https://openfoam.org
    \\  /    A nd           | Version:  12
     \\/     M anipulation  |
\*---------------------------------------------------------------------------*/
FoamFile
{
    format      ascii;
    class       volScalarField;
    location    "300";
    object      epsilon;
}
// * * * * * * * * * * * * * * * * * * * * * * * * * * * * * * * * * * * * * //

dimensions      [0 2 -3 0 0 0 0];

internalField   nonuniform List<scalar> 
80
(
0.344288
4.96233
28.1774
112.29
340.705
472.642
435.468
365.176
301.352
248.992
206.595
172.058
143.665
120.13
100.494
84.0375
70.2056
58.5643
48.7656
40.5245
33.6036
27.8026
22.9509
18.9025
15.5321
12.7321
10.4103
8.4879
6.89796
5.58357
4.49673
3.59707
2.8509
2.23033
1.71286
1.28136
0.92498
0.64115
0.437063
0.326672
0.329465
0.445008
0.653066
0.93962
1.29795
1.73111
2.25022
2.87255
3.62065
4.5224
5.61145
6.92812
8.52031
10.4448
12.7683
15.5695
18.9402
22.9876
27.8366
33.6328
40.5459
48.7758
58.5591
70.1798
83.9855
100.409
120.004
143.489
171.822
206.286
248.6
300.881
364.675
435.198
473.924
346.75
115.776
29.2249
5.20491
0.365709
)
;

boundaryField
{
    lowerWall
    {
        type            fixedValue;
        value           uniform 1e-08;
    }
    upperWall
    {
        type            fixedValue;
        value           uniform 1e-08;
    }
    front
    {
        type            cyclic;
    }
    back
    {
        type            cyclic;
    }
    defaultFaces
    {
        type            empty;
    }
}


// ************************************************************************* //
