/*--------------------------------*- C++ -*----------------------------------*\
  =========                 |
  \\      /  F ield         | OpenFOAM: The Open Source CFD Toolbox
   \\    /   O peration     | Website:  https://openfoam.org
    \\  /    A nd           | Version:  12
     \\/     M anipulation  |
\*---------------------------------------------------------------------------*/
FoamFile
{
    format      ascii;
    class       volSymmTensorField;
    location    "300";
    object      R;
}
// * * * * * * * * * * * * * * * * * * * * * * * * * * * * * * * * * * * * * //

dimensions      [0 2 -2 0 0 0 0];

internalField   nonuniform List<symmTensor> 
80
(
(1.11381e-05 -2.84797e-08 -0 1.11381e-05 -0 1.11381e-05)
(0.000620337 -6.3766e-06 -0 0.000620337 -0 0.000620337)
(0.00760211 -0.000189188 -0 0.00760211 -0 0.00760211)
(0.0535944 -0.00422451 -0 0.0535944 -0 0.0535944)
(0.200986 -0.0554763 -0 0.200986 -0 0.200986)
(0.321071 -0.116519 -0 0.321071 -0 0.321071)
(0.369718 -0.143861 -0 0.369718 -0 0.369718)
(0.388727 -0.158791 -0 0.388727 -0 0.388727)
(0.39458 -0.166502 -0 0.39458 -0 0.39458)
(0.393825 -0.170166 -0 0.393825 -0 0.393825)
(0.389218 -0.171099 -0 0.389218 -0 0.389218)
(0.382089 -0.170066 -0 0.382089 -0 0.382089)
(0.373164 -0.167571 -0 0.373164 -0 0.373164)
(0.362891 -0.163968 -0 0.362891 -0 0.362891)
(0.351575 -0.159519 -0 0.351575 -0 0.351575)
(0.339447 -0.154428 -0 0.339447 -0 0.339447)
(0.3267 -0.148863 -0 0.3267 -0 0.3267)
(0.313502 -0.142965 -0 0.313502 -0 0.313502)
(0.300002 -0.136853 -0 0.300002 -0 0.300002)
(0.286333 -0.130625 -0 0.286333 -0 0.286333)
(0.272612 -0.12436 -0 0.272612 -0 0.272612)
(0.258936 -0.118121 -0 0.258936 -0 0.258936)
(0.245386 -0.111954 -0 0.245386 -0 0.245386)
(0.232021 -0.10589 -0 0.232021 -0 0.232021)
(0.218884 -0.0999475 -0 0.218884 -0 0.218884)
(0.205996 -0.0941342 -0 0.205996 -0 0.205996)
(0.193361 -0.0884459 -0 0.193361 -0 0.193361)
(0.180965 -0.0828683 -0 0.180965 -0 0.180965)
(0.168776 -0.0773779 -0 0.168776 -0 0.168776)
(0.156744 -0.0719413 -0 0.156744 -0 0.156744)
(0.144806 -0.0665153 -0 0.144806 -0 0.144806)
(0.132884 -0.0610461 -0 0.132884 -0 0.132884)
(0.120891 -0.0554677 -0 0.120891 -0 0.120891)
(0.10874 -0.0496996 -0 0.10874 -0 0.10874)
(0.0963679 -0.0436435 -0 0.0963679 -0 0.0963679)
(0.0837803 -0.0371805 -0 0.0837803 -0 0.0837803)
(0.0711678 -0.030176 -0 0.0711678 -0 0.0711678)
(0.0591266 -0.0225156 -0 0.0591266 -0 0.0591266)
(0.0489656 -0.0141367 -0 0.0489656 -0 0.0489656)
(0.0427657 -0.0047721 -0 0.0427657 -0 0.0427657)
(0.0429759 0.00531096 -0 0.0429759 -0 0.0429759)
(0.0495245 0.014662 -0 0.0495245 -0 0.0495245)
(0.0598927 0.0230312 -0 0.0598927 -0 0.0598927)
(0.0720234 0.0306712 -0 0.0720234 -0 0.0720234)
(0.0846586 0.0376512 -0 0.0846586 -0 0.0846586)
(0.0972381 0.0440916 -0 0.0972381 -0 0.0972381)
(0.10959 0.0501281 -0 0.10959 -0 0.10959)
(0.121715 0.0558792 -0 0.121715 -0 0.121715)
(0.133681 0.0614424 -0 0.133681 -0 0.133681)
(0.145576 0.0668976 -0 0.145576 -0 0.145576)
(0.157486 0.0723102 -0 0.157486 -0 0.157486)
(0.169489 0.0777336 -0 0.169489 -0 0.169489)
(0.181649 0.0832106 -0 0.181649 -0 0.181649)
(0.194014 0.0887741 -0 0.194014 -0 0.194014)
(0.206615 0.0944476 -0 0.206615 -0 0.206615)
(0.219468 0.100245 -0 0.219468 -0 0.219468)
(0.232567 0.106169 -0 0.232567 -0 0.232567)
(0.245891 0.112214 -0 0.245891 -0 0.245891)
(0.259397 0.11836 -0 0.259397 -0 0.259397)
(0.273026 0.124576 -0 0.273026 -0 0.273026)
(0.286698 0.130816 -0 0.286698 -0 0.286698)
(0.300315 0.137016 -0 0.300315 -0 0.300315)
(0.313761 0.1431 -0 0.313761 -0 0.313761)
(0.326907 0.148968 -0 0.326907 -0 0.326907)
(0.339603 0.154504 -0 0.339603 -0 0.339603)
(0.351683 0.159567 -0 0.351683 -0 0.351683)
(0.362957 0.163991 -0 0.362957 -0 0.362957)
(0.373196 0.167574 -0 0.373196 -0 0.373196)
(0.382097 0.170055 -0 0.382097 -0 0.382097)
(0.38922 0.171082 -0 0.38922 -0 0.38922)
(0.393848 0.170157 -0 0.393848 -0 0.393848)
(0.394673 0.166532 -0 0.394673 -0 0.394673)
(0.388985 0.158915 -0 0.388985 -0 0.388985)
(0.37035 0.144189 -0 0.37035 -0 0.37035)
(0.322576 0.117197 -0 0.322576 -0 0.322576)
(0.204487 0.0570713 -0 0.204487 -0 0.204487)
(0.0555662 0.00450805 -0 0.0555662 -0 0.0555662)
(0.0079836 0.000202635 -0 0.0079836 -0 0.0079836)
(0.000661159 6.9348e-06 -0 0.000661159 -0 0.000661159)
(1.20163e-05 3.13344e-08 -0 1.20163e-05 -0 1.20163e-05)
)
;

boundaryField
{
    lowerWall
    {
        type            calculated;
        value           uniform (6.66667e-11 -0 -0 6.66667e-11 -0 6.66667e-11);
    }
    upperWall
    {
        type            calculated;
        value           uniform (6.66667e-11 0 -0 6.66667e-11 -0 6.66667e-11);
    }
    front
    {
        type            cyclic;
    }
    back
    {
        type            cyclic;
    }
    defaultFaces
    {
        type            empty;
    }
}


// ************************************************************************* //
