/*--------------------------------*- C++ -*----------------------------------*\
  =========                 |
  \\      /  F ield         | OpenFOAM: The Open Source CFD Toolbox
   \\    /   O peration     | Website:  https://openfoam.org
    \\  /    A nd           | Version:  12
     \\/     M anipulation  |
\*---------------------------------------------------------------------------*/
FoamFile
{
    format      ascii;
    class       volVectorField;
    location    "300";
    object      U;
}
// * * * * * * * * * * * * * * * * * * * * * * * * * * * * * * * * * * * * * //

dimensions      [0 1 -1 0 0 0 0];

internalField   nonuniform List<vector> 
80
(
(0.324326 0 0)
(1.03162 0 0)
(1.8669 0 0)
(2.86714 0 0)
(3.87876 0 0)
(4.61881 0 0)
(5.13765 0 0)
(5.53822 0 0)
(5.87071 0 0)
(6.16134 0 0)
(6.42411 0 0)
(6.66707 0 0)
(6.8952 0 0)
(7.11178 0 0)
(7.31899 0 0)
(7.5184 0 0)
(7.71111 0 0)
(7.89792 0 0)
(8.07945 0 0)
(8.25614 0 0)
(8.42838 0 0)
(8.59644 0 0)
(8.76058 0 0)
(8.921 0 0)
(9.0779 0 0)
(9.23144 0 0)
(9.3818 0 0)
(9.52911 0 0)
(9.67353 0 0)
(9.81518 0 0)
(9.95414 0 0)
(10.0904 0 0)
(10.224 0 0)
(10.3545 0 0)
(10.4814 0 0)
(10.6031 0 0)
(10.717 0 0)
(10.818 0 0)
(10.8976 0 0)
(10.9438 0 0)
(10.9424 0 0)
(10.8938 0 0)
(10.8125 0 0)
(10.7104 0 0)
(10.5958 0 0)
(10.4737 0 0)
(10.3466 0 0)
(10.2158 0 0)
(10.0821 0 0)
(9.9457 0 0)
(9.80664 0 0)
(9.66492 0 0)
(9.52045 0 0)
(9.3731 0 0)
(9.22272 0 0)
(9.06918 0 0)
(8.91229 0 0)
(8.7519 0 0)
(8.58782 0 0)
(8.41984 0 0)
(8.24771 0 0)
(8.07114 0 0)
(7.88978 0 0)
(7.70315 0 0)
(7.51066 0 0)
(7.31151 0 0)
(7.10459 0 0)
(6.88835 0 0)
(6.66061 0 0)
(6.41811 0 0)
(6.15591 0 0)
(5.86599 0 0)
(5.53447 0 0)
(5.13538 0 0)
(4.61917 0 0)
(3.88461 0 0)
(2.87753 0 0)
(1.8744 0 0)
(1.03585 0 0)
(0.325672 0 0)
)
;

boundaryField
{
    lowerWall
    {
        type            noSlip;
    }
    upperWall
    {
        type            noSlip;
    }
    front
    {
        type            cyclic;
    }
    back
    {
        type            cyclic;
    }
    defaultFaces
    {
        type            empty;
    }
}


// ************************************************************************* //
