#           v             n
     0.523599             0
     0.648652             0
     0.790112             0
     0.953116             0
      1.13449             0
      1.34047             0
      1.56672             0
      1.82069             0
      2.09677   1.42196e-08
      2.40376   3.25892e-07
      2.73462   3.89148e-06
      3.09966   2.51109e-05
      3.49026    0.00011816
      3.91837   0.000384485
      4.37366    0.00100971
      4.86986     0.0020294
       5.3948    0.00344562
      5.96412    0.00469276
      6.56366    0.00550353
      7.21112    0.00530507
      7.89023    0.00445302
      8.62085    0.00312721
      9.38447    0.00193285
      10.2033    0.00101527
      11.0564   0.000474452
      11.9684   0.000191078
      12.9159   6.91697e-05
      13.9262   2.18431e-05
      14.9731   1.78313e-05
