/*--------------------------------*- C++ -*----------------------------------*\
  =========                 |
  \\      /  F ield         | OpenFOAM: The Open Source CFD Toolbox
   \\    /   O peration     | Website:  https://openfoam.org
    \\  /    A nd           | Version:  12
     \\/     M anipulation  |
\*---------------------------------------------------------------------------*/
FoamFile
{
    format      ascii;
    class       volScalarField;
    location    "4";
    object      p;
}
// * * * * * * * * * * * * * * * * * * * * * * * * * * * * * * * * * * * * * //

dimensions      [1 -1 -2 0 0 0 0];

internalField   nonuniform List<scalar> 
3829
(
-615.72
-615.72
-615.719
-615.718
-615.716
-615.714
-615.711
-615.708
-615.705
-615.7
-615.696
-615.69
-615.684
-615.677
-615.669
-615.66
-615.65
-615.639
-615.628
-615.615
-615.601
-615.585
-615.569
-615.552
-615.533
-615.513
-615.491
-615.469
-615.446
-615.421
-615.395
-615.369
-615.341
-615.313
-615.284
-615.254
-615.224
-615.194
-615.163
-615.132
-615.102
-615.071
-615.041
-615.011
-614.982
-614.954
-614.927
-614.9
-614.875
-614.851
-614.828
-614.807
-614.786
-614.768
-614.75
-614.734
-614.719
-614.706
-614.694
-614.683
-614.674
-614.665
-614.658
-614.652
-614.646
-614.641
-614.637
-614.633
-614.629
-614.625
-614.621
-614.617
-614.612
-614.607
-614.601
-614.594
-614.586
-614.577
-614.567
-614.556
-614.544
-614.53
-614.516
-614.5
-614.484
-614.467
-614.449
-614.431
-614.413
-614.395
-614.377
-614.36
-614.344
-614.328
-614.314
-614.302
-614.291
-614.282
-614.275
-614.27
-614.268
-614.268
-614.27
-614.274
-614.28
-614.288
-614.297
-614.308
-614.32
-614.332
-614.346
-614.359
-614.372
-614.384
-614.396
-614.406
-614.415
-614.423
-614.428
-614.432
-614.434
-614.434
-614.431
-614.427
-614.421
-614.413
-614.404
-614.394
-614.383
-614.371
-614.359
-614.347
-614.334
-614.322
-614.311
-614.301
-614.292
-614.284
-614.277
-614.272
-614.269
-614.267
-614.266
-614.267
-614.27
-614.274
-614.279
-614.286
-614.293
-614.301
-614.31
-614.319
-614.329
-614.338
-614.347
-614.356
-614.365
-614.373
-614.38
-614.387
-614.392
-614.397
-614.401
-614.403
-614.405
-614.405
-614.405
-614.403
-614.401
-614.398
-614.394
-614.389
-614.384
-614.379
-614.373
-614.367
-614.361
-614.355
-614.349
-614.343
-614.337
-614.332
-614.327
-614.322
-614.318
-614.314
-614.311
-614.308
-614.305
-614.303
-614.302
-614.3
-614.299
-614.298
-614.298
-614.298
-614.297
-614.297
-614.297
-614.297
-1774.13
-1774.13
-1774.13
-1774.13
-1774.12
-1774.12
-1774.12
-1774.12
-1774.12
-1774.11
-1774.11
-1774.11
-1774.1
-1774.1
-1774.09
-1774.08
-1774.07
-1774.06
-1774.05
-1774.04
-1774.02
-1774.01
-1773.99
-1773.97
-1773.95
-1773.93
-1773.9
-1773.88
-1773.85
-1773.82
-1773.79
-1773.76
-1773.73
-1773.7
-1773.66
-1773.63
-1773.59
-1773.56
-1773.52
-1773.49
-1773.45
-1773.42
-1773.38
-1773.35
-1773.32
-1773.29
-1773.26
-1773.23
-1773.2
-1773.18
-1773.16
-1773.13
-1773.11
-1773.1
-1773.08
-1773.06
-1773.05
-1773.04
-1773.03
-1773.02
-1773.02
-1773.01
-1773.01
-1773
-1773
-1773
-1773
-1773
-1773
-1773
-1772.99
-1772.99
-1772.99
-1772.99
-1772.98
-1772.98
-1772.97
-1772.96
-1772.95
-1772.94
-1772.93
-1772.91
-1772.9
-1772.88
-1772.86
-1772.84
-1772.82
-1772.8
-1772.78
-1772.76
-1772.74
-1772.72
-1772.7
-1772.68
-1772.67
-1772.65
-1772.64
-1772.63
-1772.62
-1772.62
-1772.62
-1772.62
-1772.62
-1772.63
-1772.64
-1772.65
-1772.66
-1772.67
-1772.68
-1772.7
-1772.72
-1772.73
-1772.75
-1772.76
-1772.77
-1772.79
-1772.8
-1772.8
-1772.81
-1772.81
-1772.82
-1772.81
-1772.81
-1772.81
-1772.8
-1772.79
-1772.78
-1772.77
-1772.76
-1772.74
-1772.73
-1772.72
-1772.7
-1772.69
-1772.68
-1772.67
-1772.66
-1772.65
-1772.64
-1772.64
-1772.63
-1772.63
-1772.63
-1772.63
-1772.64
-1772.64
-1772.65
-1772.65
-1772.66
-1772.67
-1772.68
-1772.69
-1772.7
-1772.71
-1772.72
-1772.73
-1772.74
-1772.74
-1772.75
-1772.76
-1772.76
-1772.77
-1772.77
-1772.78
-1772.78
-1772.78
-1772.78
-1772.77
-1772.77
-1772.77
-1772.76
-1772.76
-1772.75
-1772.75
-1772.74
-1772.74
-1772.73
-1772.72
-1772.72
-1772.71
-1772.71
-1772.7
-1772.7
-1772.69
-1772.69
-1772.68
-1772.68
-1772.68
-1772.67
-1772.67
-1772.67
-1772.67
-1772.67
-1772.67
-1772.67
-1772.67
-1772.67
-1772.67
-1772.67
-1772.67
-2800.34
-2800.34
-2800.34
-2800.34
-2800.34
-2800.34
-2800.34
-2800.34
-2800.35
-2800.35
-2800.35
-2800.35
-2800.35
-2800.35
-2800.34
-2800.34
-2800.33
-2800.32
-2800.31
-2800.3
-2800.29
-2800.27
-2800.25
-2800.23
-2800.21
-2800.18
-2800.15
-2800.12
-2800.08
-2800.05
-2800.01
-2799.97
-2799.93
-2799.89
-2799.84
-2799.8
-2799.75
-2799.71
-2799.66
-2799.62
-2799.58
-2799.53
-2799.49
-2799.45
-2799.42
-2799.38
-2799.35
-2799.32
-2799.29
-2799.26
-2799.24
-2799.21
-2799.19
-2799.18
-2799.16
-2799.15
-2799.14
-2799.13
-2799.13
-2799.13
-2799.13
-2799.13
-2799.13
-2799.13
-2799.14
-2799.14
-2799.14
-2799.15
-2799.16
-2799.16
-2799.16
-2799.17
-2799.17
-2799.17
-2799.17
-2799.16
-2799.16
-2799.15
-2799.14
-2799.13
-2799.11
-2799.1
-2799.08
-2799.06
-2799.03
-2799.01
-2798.99
-2798.96
-2798.94
-2798.91
-2798.88
-2798.86
-2798.84
-2798.82
-2798.8
-2798.78
-2798.77
-2798.76
-2798.75
-2798.74
-2798.74
-2798.74
-2798.75
-2798.76
-2798.77
-2798.78
-2798.8
-2798.82
-2798.84
-2798.86
-2798.88
-2798.9
-2798.91
-2798.93
-2798.95
-2798.96
-2798.97
-2798.98
-2798.99
-2798.99
-2798.99
-2798.99
-2798.99
-2798.98
-2798.97
-2798.96
-2798.95
-2798.94
-2798.92
-2798.9
-2798.89
-2798.87
-2798.86
-2798.84
-2798.83
-2798.82
-2798.81
-2798.8
-2798.79
-2798.79
-2798.78
-2798.78
-2798.78
-2798.78
-2798.79
-2798.79
-2798.8
-2798.81
-2798.82
-2798.83
-2798.84
-2798.85
-2798.86
-2798.87
-2798.88
-2798.89
-2798.9
-2798.91
-2798.92
-2798.92
-2798.93
-2798.93
-2798.94
-2798.94
-2798.94
-2798.94
-2798.94
-2798.94
-2798.93
-2798.93
-2798.93
-2798.92
-2798.92
-2798.91
-2798.9
-2798.9
-2798.89
-2798.88
-2798.88
-2798.87
-2798.87
-2798.86
-2798.86
-2798.85
-2798.85
-2798.84
-2798.84
-2798.84
-2798.83
-2798.83
-2798.83
-2798.83
-2798.83
-2798.83
-2798.83
-2798.83
-2798.83
-2798.83
-2798.83
-2798.83
-3709.41
-3709.41
-3709.41
-3709.42
-3709.42
-3709.43
-3709.44
-3709.45
-3709.46
-3709.47
-3709.48
-3709.49
-3709.5
-3709.51
-3709.52
-3709.52
-3709.52
-3709.52
-3709.52
-3709.51
-3709.5
-3709.48
-3709.46
-3709.43
-3709.4
-3709.36
-3709.32
-3709.28
-3709.23
-3709.18
-3709.13
-3709.08
-3709.02
-3708.96
-3708.9
-3708.84
-3708.78
-3708.72
-3708.67
-3708.61
-3708.55
-3708.5
-3708.45
-3708.4
-3708.36
-3708.31
-3708.27
-3708.24
-3708.21
-3708.18
-3708.15
-3708.13
-3708.12
-3708.1
-3708.09
-3708.08
-3708.08
-3708.08
-3708.08
-3708.09
-3708.1
-3708.11
-3708.12
-3708.13
-3708.14
-3708.16
-3708.17
-3708.19
-3708.2
-3708.21
-3708.22
-3708.23
-3708.24
-3708.24
-3708.25
-3708.25
-3708.24
-3708.23
-3708.22
-3708.21
-3708.19
-3708.17
-3708.15
-3708.12
-3708.09
-3708.06
-3708.03
-3708
-3707.97
-3707.93
-3707.9
-3707.87
-3707.84
-3707.82
-3707.79
-3707.77
-3707.75
-3707.74
-3707.73
-3707.73
-3707.73
-3707.74
-3707.75
-3707.76
-3707.77
-3707.79
-3707.82
-3707.84
-3707.87
-3707.89
-3707.92
-3707.94
-3707.97
-3707.99
-3708.01
-3708.03
-3708.04
-3708.05
-3708.06
-3708.06
-3708.06
-3708.06
-3708.05
-3708.04
-3708.03
-3708.02
-3708
-3707.98
-3707.96
-3707.95
-3707.93
-3707.91
-3707.89
-3707.87
-3707.86
-3707.85
-3707.83
-3707.82
-3707.82
-3707.81
-3707.81
-3707.81
-3707.81
-3707.81
-3707.82
-3707.82
-3707.83
-3707.84
-3707.85
-3707.86
-3707.87
-3707.89
-3707.9
-3707.91
-3707.92
-3707.93
-3707.94
-3707.95
-3707.96
-3707.97
-3707.97
-3707.98
-3707.98
-3707.98
-3707.98
-3707.98
-3707.98
-3707.98
-3707.98
-3707.97
-3707.97
-3707.96
-3707.96
-3707.95
-3707.94
-3707.94
-3707.93
-3707.92
-3707.92
-3707.91
-3707.9
-3707.9
-3707.89
-3707.89
-3707.88
-3707.88
-3707.88
-3707.87
-3707.87
-3707.87
-3707.87
-3707.87
-3707.87
-3707.87
-3707.87
-3707.87
-3707.87
-3707.87
-3707.87
-3707.87
-4514.68
-4514.68
-4514.69
-4514.7
-4514.72
-4514.74
-4514.76
-4514.79
-4514.82
-4514.85
-4514.88
-4514.91
-4514.94
-4514.97
-4515
-4515.02
-4515.03
-4515.04
-4515.05
-4515.05
-4515.03
-4515.02
-4514.99
-4514.95
-4514.91
-4514.86
-4514.81
-4514.74
-4514.68
-4514.6
-4514.53
-4514.45
-4514.37
-4514.29
-4514.2
-4514.12
-4514.04
-4513.96
-4513.89
-4513.81
-4513.74
-4513.68
-4513.61
-4513.55
-4513.5
-4513.45
-4513.41
-4513.37
-4513.33
-4513.31
-4513.28
-4513.26
-4513.25
-4513.24
-4513.24
-4513.24
-4513.24
-4513.25
-4513.27
-4513.28
-4513.3
-4513.32
-4513.35
-4513.37
-4513.4
-4513.43
-4513.45
-4513.48
-4513.5
-4513.52
-4513.54
-4513.56
-4513.58
-4513.59
-4513.59
-4513.6
-4513.59
-4513.59
-4513.57
-4513.56
-4513.54
-4513.51
-4513.48
-4513.45
-4513.41
-4513.37
-4513.33
-4513.29
-4513.25
-4513.2
-4513.16
-4513.12
-4513.09
-4513.05
-4513.02
-4513
-4512.98
-4512.96
-4512.96
-4512.95
-4512.96
-4512.96
-4512.98
-4513
-4513.02
-4513.05
-4513.08
-4513.11
-4513.14
-4513.18
-4513.21
-4513.24
-4513.27
-4513.3
-4513.33
-4513.35
-4513.36
-4513.37
-4513.38
-4513.38
-4513.38
-4513.38
-4513.37
-4513.36
-4513.34
-4513.32
-4513.3
-4513.28
-4513.26
-4513.23
-4513.21
-4513.19
-4513.17
-4513.15
-4513.13
-4513.12
-4513.11
-4513.1
-4513.09
-4513.08
-4513.08
-4513.08
-4513.08
-4513.09
-4513.09
-4513.1
-4513.11
-4513.12
-4513.14
-4513.15
-4513.16
-4513.17
-4513.19
-4513.2
-4513.21
-4513.22
-4513.23
-4513.24
-4513.25
-4513.26
-4513.27
-4513.27
-4513.27
-4513.28
-4513.28
-4513.28
-4513.27
-4513.27
-4513.27
-4513.26
-4513.26
-4513.25
-4513.25
-4513.24
-4513.23
-4513.22
-4513.22
-4513.21
-4513.2
-4513.2
-4513.19
-4513.18
-4513.18
-4513.17
-4513.17
-4513.17
-4513.16
-4513.16
-4513.16
-4513.16
-4513.16
-4513.15
-4513.15
-4513.15
-4513.15
-4513.15
-4513.15
-4513.15
-4513.15
-4513.15
-5227.88
-5227.89
-5227.9
-5227.93
-5227.97
-5228.01
-5228.07
-5228.13
-5228.19
-5228.26
-5228.33
-5228.4
-5228.46
-5228.53
-5228.58
-5228.64
-5228.68
-5228.71
-5228.74
-5228.75
-5228.75
-5228.74
-5228.71
-5228.67
-5228.61
-5228.54
-5228.46
-5228.36
-5228.26
-5228.15
-5228.04
-5227.93
-5227.81
-5227.69
-5227.58
-5227.47
-5227.36
-5227.26
-5227.16
-5227.06
-5226.97
-5226.89
-5226.81
-5226.74
-5226.68
-5226.63
-5226.58
-5226.54
-5226.51
-5226.48
-5226.46
-5226.45
-5226.44
-5226.44
-5226.45
-5226.46
-5226.48
-5226.5
-5226.52
-5226.56
-5226.59
-5226.63
-5226.67
-5226.71
-5226.75
-5226.79
-5226.83
-5226.87
-5226.91
-5226.94
-5226.97
-5227
-5227.02
-5227.04
-5227.05
-5227.06
-5227.06
-5227.05
-5227.03
-5227.01
-5226.99
-5226.95
-5226.92
-5226.87
-5226.83
-5226.78
-5226.72
-5226.67
-5226.61
-5226.56
-5226.51
-5226.46
-5226.41
-5226.37
-5226.33
-5226.3
-5226.28
-5226.26
-5226.25
-5226.25
-5226.26
-5226.27
-5226.29
-5226.32
-5226.35
-5226.39
-5226.43
-5226.47
-5226.51
-5226.56
-5226.6
-5226.64
-5226.68
-5226.71
-5226.74
-5226.76
-5226.78
-5226.79
-5226.8
-5226.8
-5226.8
-5226.79
-5226.78
-5226.76
-5226.74
-5226.72
-5226.69
-5226.67
-5226.64
-5226.61
-5226.59
-5226.56
-5226.54
-5226.52
-5226.5
-5226.48
-5226.47
-5226.46
-5226.45
-5226.44
-5226.44
-5226.44
-5226.45
-5226.45
-5226.46
-5226.47
-5226.48
-5226.5
-5226.51
-5226.52
-5226.54
-5226.55
-5226.57
-5226.58
-5226.59
-5226.61
-5226.62
-5226.63
-5226.64
-5226.65
-5226.65
-5226.66
-5226.66
-5226.66
-5226.66
-5226.66
-5226.66
-5226.65
-5226.65
-5226.65
-5226.64
-5226.63
-5226.63
-5226.62
-5226.61
-5226.6
-5226.6
-5226.59
-5226.58
-5226.57
-5226.57
-5226.56
-5226.56
-5226.55
-5226.55
-5226.54
-5226.54
-5226.54
-5226.54
-5226.53
-5226.53
-5226.53
-5226.53
-5226.53
-5226.53
-5226.53
-5226.53
-5226.53
-5226.53
-5226.53
-5859.49
-5859.51
-5859.55
-5859.61
-5859.69
-5859.78
-5859.9
-5860.03
-5860.17
-5860.32
-5860.47
-5860.62
-5860.77
-5860.92
-5861.04
-5861.16
-5861.25
-5861.32
-5861.36
-5861.38
-5861.37
-5861.34
-5861.28
-5861.2
-5861.09
-5860.96
-5860.81
-5860.65
-5860.49
-5860.31
-5860.14
-5859.97
-5859.81
-5859.65
-5859.49
-5859.34
-5859.2
-5859.07
-5858.95
-5858.83
-5858.73
-5858.63
-5858.54
-5858.46
-5858.4
-5858.34
-5858.29
-5858.25
-5858.22
-5858.19
-5858.18
-5858.18
-5858.18
-5858.19
-5858.21
-5858.24
-5858.27
-5858.31
-5858.35
-5858.4
-5858.45
-5858.51
-5858.57
-5858.63
-5858.69
-5858.74
-5858.8
-5858.86
-5858.91
-5858.96
-5859
-5859.04
-5859.07
-5859.1
-5859.11
-5859.12
-5859.12
-5859.11
-5859.09
-5859.07
-5859.03
-5858.99
-5858.95
-5858.89
-5858.83
-5858.77
-5858.7
-5858.63
-5858.56
-5858.49
-5858.43
-5858.36
-5858.31
-5858.25
-5858.21
-5858.17
-5858.15
-5858.13
-5858.12
-5858.12
-5858.13
-5858.15
-5858.18
-5858.22
-5858.26
-5858.31
-5858.36
-5858.41
-5858.47
-5858.52
-5858.57
-5858.62
-5858.67
-5858.71
-5858.74
-5858.77
-5858.79
-5858.8
-5858.81
-5858.81
-5858.8
-5858.79
-5858.77
-5858.75
-5858.73
-5858.7
-5858.67
-5858.64
-5858.6
-5858.57
-5858.54
-5858.51
-5858.49
-5858.46
-5858.44
-5858.42
-5858.41
-5858.4
-5858.39
-5858.39
-5858.39
-5858.39
-5858.39
-5858.4
-5858.41
-5858.42
-5858.43
-5858.45
-5858.46
-5858.48
-5858.5
-5858.51
-5858.53
-5858.54
-5858.56
-5858.57
-5858.58
-5858.59
-5858.6
-5858.61
-5858.62
-5858.62
-5858.63
-5858.63
-5858.63
-5858.63
-5858.62
-5858.62
-5858.61
-5858.61
-5858.6
-5858.59
-5858.59
-5858.58
-5858.57
-5858.56
-5858.55
-5858.55
-5858.54
-5858.53
-5858.53
-5858.52
-5858.51
-5858.51
-5858.51
-5858.5
-5858.5
-5858.5
-5858.49
-5858.49
-5858.49
-5858.49
-5858.49
-5858.49
-5858.49
-5858.49
-5858.49
-5858.49
-5858.49
-5858.49
-6418.56
-6418.59
-6418.66
-6418.76
-6418.9
-6419.07
-6419.28
-6419.51
-6419.79
-6420.04
-6420.3
-6420.55
-6420.78
-6421
-6421.18
-6421.34
-6421.47
-6421.57
-6421.64
-6421.68
-6421.69
-6421.67
-6421.61
-6421.52
-6421.38
-6421.21
-6421.01
-6420.78
-6420.54
-6420.3
-6420.06
-6419.83
-6419.61
-6419.4
-6419.21
-6419.02
-6418.85
-6418.69
-6418.54
-6418.41
-6418.29
-6418.18
-6418.09
-6418.01
-6417.93
-6417.87
-6417.82
-6417.79
-6417.76
-6417.75
-6417.74
-6417.75
-6417.77
-6417.79
-6417.83
-6417.87
-6417.92
-6417.98
-6418.04
-6418.11
-6418.19
-6418.26
-6418.34
-6418.42
-6418.5
-6418.58
-6418.66
-6418.73
-6418.8
-6418.87
-6418.92
-6418.97
-6419.01
-6419.04
-6419.06
-6419.08
-6419.08
-6419.06
-6419.04
-6419.01
-6418.97
-6418.92
-6418.86
-6418.79
-6418.71
-6418.63
-6418.55
-6418.46
-6418.38
-6418.29
-6418.21
-6418.13
-6418.06
-6418
-6417.95
-6417.91
-6417.87
-6417.86
-6417.85
-6417.85
-6417.87
-6417.9
-6417.94
-6417.98
-6418.04
-6418.1
-6418.16
-6418.23
-6418.3
-6418.36
-6418.42
-6418.48
-6418.54
-6418.58
-6418.62
-6418.65
-6418.67
-6418.69
-6418.69
-6418.69
-6418.68
-6418.66
-6418.64
-6418.61
-6418.58
-6418.55
-6418.51
-6418.48
-6418.44
-6418.4
-6418.37
-6418.33
-6418.31
-6418.28
-6418.26
-6418.24
-6418.22
-6418.21
-6418.2
-6418.2
-6418.2
-6418.2
-6418.21
-6418.22
-6418.23
-6418.24
-6418.26
-6418.27
-6418.29
-6418.31
-6418.33
-6418.35
-6418.36
-6418.38
-6418.39
-6418.41
-6418.42
-6418.43
-6418.44
-6418.45
-6418.46
-6418.46
-6418.46
-6418.47
-6418.47
-6418.46
-6418.46
-6418.46
-6418.45
-6418.44
-6418.44
-6418.43
-6418.42
-6418.41
-6418.4
-6418.39
-6418.39
-6418.38
-6418.37
-6418.36
-6418.36
-6418.35
-6418.34
-6418.34
-6418.34
-6418.33
-6418.33
-6418.33
-6418.33
-6418.32
-6418.32
-6418.32
-6418.32
-6418.32
-6418.32
-6418.32
-6418.32
-6418.32
-6418.32
-6418.32
-6913.28
-6913.34
-6913.45
-6913.63
-6913.88
-6914.19
-6914.58
-6915.03
-6915.52
-6916.01
-6916.48
-6916.94
-6917.4
-6917.82
-6918.19
-6918.5
-6918.75
-6918.94
-6919.06
-6919.12
-6919.1
-6919.02
-6918.87
-6918.65
-6918.38
-6918.06
-6917.66
-6917.22
-6916.81
-6916.43
-6916.07
-6915.73
-6915.43
-6915.16
-6914.91
-6914.69
-6914.49
-6914.32
-6914.15
-6914.01
-6913.88
-6913.77
-6913.68
-6913.59
-6913.52
-6913.47
-6913.43
-6913.4
-6913.38
-6913.38
-6913.39
-6913.41
-6913.44
-6913.48
-6913.53
-6913.6
-6913.67
-6913.75
-6913.83
-6913.93
-6914.02
-6914.12
-6914.23
-6914.33
-6914.43
-6914.53
-6914.63
-6914.72
-6914.81
-6914.89
-6914.96
-6915.02
-6915.07
-6915.11
-6915.14
-6915.15
-6915.15
-6915.14
-6915.11
-6915.07
-6915.02
-6914.95
-6914.88
-6914.79
-6914.7
-6914.6
-6914.5
-6914.4
-6914.29
-6914.19
-6914.09
-6914
-6913.92
-6913.84
-6913.78
-6913.73
-6913.7
-6913.68
-6913.67
-6913.68
-6913.7
-6913.74
-6913.79
-6913.85
-6913.92
-6913.99
-6914.07
-6914.15
-6914.23
-6914.31
-6914.38
-6914.45
-6914.51
-6914.56
-6914.61
-6914.64
-6914.66
-6914.68
-6914.68
-6914.68
-6914.66
-6914.64
-6914.61
-6914.58
-6914.54
-6914.5
-6914.46
-6914.42
-6914.37
-6914.33
-6914.29
-6914.26
-6914.23
-6914.2
-6914.17
-6914.15
-6914.14
-6914.12
-6914.12
-6914.11
-6914.12
-6914.12
-6914.13
-6914.14
-6914.15
-6914.17
-6914.19
-6914.2
-6914.22
-6914.24
-6914.26
-6914.28
-6914.3
-6914.32
-6914.33
-6914.35
-6914.36
-6914.37
-6914.38
-6914.39
-6914.4
-6914.4
-6914.41
-6914.41
-6914.41
-6914.4
-6914.4
-6914.39
-6914.39
-6914.38
-6914.37
-6914.36
-6914.36
-6914.35
-6914.34
-6914.33
-6914.32
-6914.31
-6914.3
-6914.3
-6914.29
-6914.28
-6914.28
-6914.27
-6914.27
-6914.27
-6914.26
-6914.26
-6914.26
-6914.26
-6914.26
-6914.26
-6914.26
-6914.26
-6914.26
-6914.26
-6914.26
-6914.26
-6914.26
-6914.26
-7350.81
-7350.87
-7351
-7351.19
-7351.46
-7351.92
-7352.66
-7353.52
-7355.29
-7356.2
-7356.88
-7357.57
-7358.13
-7358.57
-7358.93
-7359.22
-7359.43
-7359.57
-7359.66
-7359.71
-7359.71
-7359.65
-7359.52
-7359.28
-7358.93
-7358.47
-7357.84
-7356.77
-7356.12
-7355.61
-7355.17
-7354.78
-7354.45
-7354.16
-7353.9
-7353.66
-7353.45
-7353.27
-7353.1
-7352.96
-7352.83
-7352.72
-7352.63
-7352.55
-7352.49
-7352.44
-7352.41
-7352.39
-7352.38
-7352.39
-7352.42
-7352.45
-7352.5
-7352.56
-7352.64
-7352.72
-7352.81
-7352.92
-7353.03
-7353.14
-7353.26
-7353.39
-7353.52
-7353.64
-7353.77
-7353.9
-7354.02
-7354.13
-7354.24
-7354.33
-7354.42
-7354.49
-7354.55
-7354.6
-7354.63
-7354.64
-7354.64
-7354.62
-7354.59
-7354.54
-7354.48
-7354.4
-7354.31
-7354.21
-7354.09
-7353.98
-7353.85
-7353.73
-7353.6
-7353.48
-7353.37
-7353.26
-7353.16
-7353.07
-7353
-7352.95
-7352.91
-7352.89
-7352.89
-7352.9
-7352.93
-7352.98
-7353.04
-7353.11
-7353.19
-7353.28
-7353.38
-7353.47
-7353.57
-7353.66
-7353.74
-7353.82
-7353.89
-7353.95
-7354
-7354.04
-7354.06
-7354.07
-7354.07
-7354.06
-7354.04
-7354.02
-7353.98
-7353.94
-7353.9
-7353.85
-7353.81
-7353.76
-7353.71
-7353.66
-7353.62
-7353.58
-7353.55
-7353.51
-7353.49
-7353.47
-7353.45
-7353.44
-7353.43
-7353.43
-7353.43
-7353.44
-7353.45
-7353.46
-7353.48
-7353.49
-7353.51
-7353.53
-7353.56
-7353.58
-7353.6
-7353.62
-7353.64
-7353.66
-7353.67
-7353.69
-7353.7
-7353.72
-7353.73
-7353.73
-7353.74
-7353.75
-7353.75
-7353.75
-7353.75
-7353.74
-7353.74
-7353.73
-7353.73
-7353.72
-7353.71
-7353.7
-7353.69
-7353.68
-7353.67
-7353.67
-7353.66
-7353.65
-7353.64
-7353.63
-7353.62
-7353.62
-7353.61
-7353.61
-7353.6
-7353.6
-7353.6
-7353.59
-7353.59
-7353.59
-7353.59
-7353.59
-7353.59
-7353.59
-7353.59
-7353.59
-7353.59
-7353.59
-7353.6
-7353.6
-7737.75
-7737.88
-7738.16
-7738.62
-7739.2
-7739.86
-7740.48
-7741.39
-7743
-7744.16
-7745.2
-7746.14
-7746.96
-7747.68
-7748.3
-7748.84
-7749.27
-7749.6
-7749.82
-7749.9
-7749.86
-7749.68
-7749.41
-7749
-7748.45
-7747.78
-7746.98
-7745.75
-7745.05
-7744.43
-7743.92
-7743.51
-7743.17
-7742.87
-7742.61
-7742.39
-7742.19
-7742.02
-7741.86
-7741.72
-7741.6
-7741.5
-7741.41
-7741.34
-7741.29
-7741.25
-7741.22
-7741.22
-7741.23
-7741.25
-7741.29
-7741.34
-7741.41
-7741.49
-7741.59
-7741.69
-7741.81
-7741.94
-7742.07
-7742.21
-7742.36
-7742.51
-7742.67
-7742.82
-7742.97
-7743.12
-7743.26
-7743.4
-7743.52
-7743.64
-7743.74
-7743.82
-7743.89
-7743.95
-7743.98
-7744
-7744
-7743.97
-7743.93
-7743.87
-7743.79
-7743.7
-7743.59
-7743.47
-7743.34
-7743.2
-7743.06
-7742.91
-7742.77
-7742.62
-7742.49
-7742.36
-7742.25
-7742.15
-7742.07
-7742.01
-7741.97
-7741.95
-7741.95
-7741.97
-7742.01
-7742.07
-7742.14
-7742.23
-7742.33
-7742.43
-7742.54
-7742.65
-7742.76
-7742.87
-7742.96
-7743.05
-7743.13
-7743.19
-7743.24
-7743.28
-7743.31
-7743.32
-7743.32
-7743.3
-7743.28
-7743.25
-7743.21
-7743.16
-7743.11
-7743.06
-7743
-7742.95
-7742.9
-7742.85
-7742.8
-7742.75
-7742.72
-7742.68
-7742.66
-7742.63
-7742.62
-7742.61
-7742.6
-7742.6
-7742.6
-7742.61
-7742.62
-7742.64
-7742.65
-7742.67
-7742.69
-7742.72
-7742.74
-7742.76
-7742.78
-7742.81
-7742.83
-7742.85
-7742.87
-7742.88
-7742.9
-7742.91
-7742.92
-7742.93
-7742.93
-7742.94
-7742.94
-7742.94
-7742.94
-7742.94
-7742.93
-7742.93
-7742.92
-7742.91
-7742.9
-7742.89
-7742.88
-7742.87
-7742.86
-7742.85
-7742.84
-7742.83
-7742.83
-7742.82
-7742.81
-7742.8
-7742.8
-7742.79
-7742.79
-7742.79
-7742.78
-7742.78
-7742.78
-7742.78
-7742.78
-7742.78
-7742.78
-7742.78
-7742.78
-7742.78
-7742.78
-7742.78
-7742.78
-7742.78
-8079.42
-8079.44
-8079.5
-8079.57
-8079.68
-8079.84
-8080
-8080.25
-8088.27
-8088.05
-8087.9
-8087.69
-8087.47
-8087.25
-8087.04
-8086.84
-8086.65
-8086.48
-8086.32
-8086.18
-8086.05
-8085.94
-8085.85
-8085.77
-8085.71
-8085.66
-8085.63
-8085.62
-8085.63
-8085.65
-8085.69
-8085.74
-8085.81
-8085.9
-8086
-8086.12
-8086.25
-8086.39
-8086.54
-8086.7
-8086.87
-8087.05
-8087.23
-8087.41
-8087.59
-8087.76
-8087.93
-8088.1
-8088.26
-8088.4
-8088.53
-8088.65
-8088.75
-8088.83
-8088.89
-8088.93
-8088.94
-8088.94
-8088.91
-8088.86
-8088.79
-8088.7
-8088.59
-8088.46
-8088.32
-8088.17
-8088.01
-8087.84
-8087.67
-8087.5
-8087.34
-8087.19
-8087.04
-8086.92
-8086.81
-8086.72
-8086.65
-8086.6
-8086.58
-8086.59
-8086.62
-8086.67
-8086.74
-8086.82
-8086.93
-8087.04
-8087.16
-8087.29
-8087.41
-8087.54
-8087.66
-8087.76
-8087.86
-8087.95
-8088.02
-8088.07
-8088.11
-8088.14
-8088.14
-8088.14
-8088.12
-8088.09
-8088.05
-8088.01
-8087.95
-8087.9
-8087.84
-8087.78
-8087.72
-8087.66
-8087.61
-8087.55
-8087.51
-8087.47
-8087.43
-8087.4
-8087.38
-8087.36
-8087.35
-8087.35
-8087.35
-8087.35
-8087.36
-8087.38
-8087.39
-8087.41
-8087.43
-8087.46
-8087.48
-8087.5
-8087.53
-8087.55
-8087.58
-8087.6
-8087.62
-8087.64
-8087.66
-8087.67
-8087.68
-8087.69
-8087.7
-8087.71
-8087.71
-8087.71
-8087.71
-8087.71
-8087.71
-8087.7
-8087.7
-8087.69
-8087.68
-8087.67
-8087.66
-8087.65
-8087.64
-8087.63
-8087.62
-8087.61
-8087.6
-8087.59
-8087.58
-8087.58
-8087.57
-8087.56
-8087.56
-8087.55
-8087.55
-8087.55
-8087.55
-8087.55
-8087.55
-8087.55
-8087.55
-8087.55
-8087.55
-8087.55
-8087.55
-8087.55
-8087.55
-8087.55
-8087.55
-8381.87
-8381.89
-8381.93
-8381.99
-8382.06
-8382.14
-8382.22
-8382.33
-8392.84
-8392.66
-8392.55
-8392.4
-8392.23
-8392.06
-8391.9
-8391.73
-8391.57
-8391.42
-8391.29
-8391.16
-8391.04
-8390.95
-8390.86
-8390.79
-8390.74
-8390.7
-8390.68
-8390.68
-8390.7
-8390.73
-8390.79
-8390.86
-8390.95
-8391.05
-8391.18
-8391.32
-8391.47
-8391.63
-8391.81
-8392
-8392.19
-8392.4
-8392.6
-8392.81
-8393.01
-8393.22
-8393.41
-8393.6
-8393.78
-8393.94
-8394.09
-8394.22
-8394.33
-8394.42
-8394.49
-8394.53
-8394.55
-8394.54
-8394.51
-8394.45
-8394.36
-8394.26
-8394.13
-8393.99
-8393.82
-8393.65
-8393.47
-8393.28
-8393.09
-8392.9
-8392.71
-8392.54
-8392.38
-8392.24
-8392.11
-8392.02
-8391.94
-8391.9
-8391.88
-8391.88
-8391.92
-8391.98
-8392.06
-8392.16
-8392.28
-8392.41
-8392.55
-8392.69
-8392.84
-8392.97
-8393.1
-8393.22
-8393.33
-8393.42
-8393.5
-8393.56
-8393.6
-8393.62
-8393.63
-8393.62
-8393.6
-8393.56
-8393.52
-8393.46
-8393.4
-8393.34
-8393.28
-8393.21
-8393.14
-8393.08
-8393.02
-8392.97
-8392.92
-8392.88
-8392.84
-8392.81
-8392.79
-8392.77
-8392.76
-8392.75
-8392.76
-8392.76
-8392.77
-8392.79
-8392.81
-8392.83
-8392.85
-8392.87
-8392.9
-8392.93
-8392.95
-8392.98
-8393
-8393.03
-8393.05
-8393.07
-8393.08
-8393.1
-8393.11
-8393.12
-8393.13
-8393.14
-8393.14
-8393.14
-8393.14
-8393.14
-8393.14
-8393.13
-8393.12
-8393.12
-8393.11
-8393.1
-8393.09
-8393.08
-8393.06
-8393.05
-8393.04
-8393.03
-8393.02
-8393.02
-8393.01
-8393
-8392.99
-8392.99
-8392.98
-8392.98
-8392.97
-8392.97
-8392.97
-8392.97
-8392.97
-8392.97
-8392.97
-8392.97
-8392.97
-8392.97
-8392.97
-8392.97
-8392.97
-8392.97
-8392.97
-8649.8
-8649.81
-8649.83
-8649.86
-8649.89
-8649.93
-8649.95
-8650.01
-8662.62
-8662.52
-8662.45
-8662.35
-8662.23
-8662.09
-8661.95
-8661.81
-8661.67
-8661.54
-8661.42
-8661.3
-8661.2
-8661.11
-8661.03
-8660.97
-8660.92
-8660.89
-8660.88
-8660.89
-8660.92
-8660.97
-8661.04
-8661.12
-8661.23
-8661.36
-8661.5
-8661.66
-8661.84
-8662.03
-8662.23
-8662.44
-8662.66
-8662.89
-8663.12
-8663.36
-8663.59
-8663.82
-8664.04
-8664.25
-8664.45
-8664.63
-8664.8
-8664.94
-8665.06
-8665.16
-8665.23
-8665.28
-8665.29
-8665.28
-8665.24
-8665.17
-8665.08
-8664.96
-8664.81
-8664.65
-8664.47
-8664.27
-8664.07
-8663.85
-8663.64
-8663.43
-8663.22
-8663.03
-8662.85
-8662.7
-8662.56
-8662.45
-8662.38
-8662.33
-8662.31
-8662.32
-8662.36
-8662.44
-8662.53
-8662.65
-8662.78
-8662.93
-8663.08
-8663.24
-8663.4
-8663.55
-8663.7
-8663.83
-8663.94
-8664.04
-8664.12
-8664.18
-8664.22
-8664.24
-8664.25
-8664.24
-8664.21
-8664.17
-8664.12
-8664.06
-8663.99
-8663.92
-8663.85
-8663.78
-8663.71
-8663.64
-8663.58
-8663.52
-8663.47
-8663.42
-8663.39
-8663.36
-8663.33
-8663.31
-8663.3
-8663.3
-8663.3
-8663.31
-8663.32
-8663.34
-8663.36
-8663.38
-8663.41
-8663.43
-8663.46
-8663.49
-8663.52
-8663.54
-8663.57
-8663.59
-8663.62
-8663.64
-8663.65
-8663.67
-8663.68
-8663.69
-8663.7
-8663.71
-8663.71
-8663.71
-8663.71
-8663.71
-8663.71
-8663.7
-8663.69
-8663.68
-8663.67
-8663.66
-8663.65
-8663.64
-8663.63
-8663.62
-8663.61
-8663.6
-8663.59
-8663.58
-8663.57
-8663.56
-8663.56
-8663.55
-8663.55
-8663.54
-8663.54
-8663.54
-8663.53
-8663.53
-8663.53
-8663.53
-8663.53
-8663.53
-8663.54
-8663.54
-8663.54
-8663.54
-8663.54
-8663.54
-8663.54
-8887.06
-8887.06
-8887.07
-8887.09
-8887.1
-8887.12
-8887.14
-8887.15
-8901.7
-8901.65
-8901.59
-8901.51
-8901.41
-8901.3
-8901.18
-8901.06
-8900.94
-8900.81
-8900.7
-8900.59
-8900.49
-8900.41
-8900.33
-8900.28
-8900.24
-8900.22
-8900.22
-8900.24
-8900.28
-8900.34
-8900.42
-8900.52
-8900.64
-8900.79
-8900.95
-8901.13
-8901.33
-8901.54
-8901.77
-8902.01
-8902.26
-8902.51
-8902.77
-8903.03
-8903.29
-8903.54
-8903.78
-8904.02
-8904.24
-8904.44
-8904.62
-8904.78
-8904.91
-8905.02
-8905.1
-8905.14
-8905.16
-8905.14
-8905.1
-8905.02
-8904.91
-8904.77
-8904.61
-8904.43
-8904.23
-8904.01
-8903.78
-8903.55
-8903.31
-8903.08
-8902.85
-8902.64
-8902.45
-8902.27
-8902.13
-8902.01
-8901.93
-8901.88
-8901.86
-8901.88
-8901.93
-8902.01
-8902.12
-8902.25
-8902.4
-8902.57
-8902.74
-8902.91
-8903.09
-8903.25
-8903.41
-8903.55
-8903.67
-8903.78
-8903.86
-8903.92
-8903.96
-8903.98
-8903.99
-8903.97
-8903.94
-8903.89
-8903.83
-8903.77
-8903.7
-8903.62
-8903.54
-8903.47
-8903.39
-8903.32
-8903.25
-8903.19
-8903.14
-8903.09
-8903.05
-8903.02
-8903
-8902.98
-8902.97
-8902.97
-8902.97
-8902.98
-8902.99
-8903.01
-8903.03
-8903.06
-8903.08
-8903.11
-8903.14
-8903.17
-8903.2
-8903.23
-8903.25
-8903.28
-8903.3
-8903.32
-8903.34
-8903.36
-8903.37
-8903.38
-8903.39
-8903.4
-8903.4
-8903.4
-8903.4
-8903.4
-8903.39
-8903.39
-8903.38
-8903.37
-8903.36
-8903.35
-8903.34
-8903.32
-8903.31
-8903.3
-8903.29
-8903.28
-8903.27
-8903.26
-8903.25
-8903.24
-8903.24
-8903.23
-8903.23
-8903.22
-8903.22
-8903.22
-8903.22
-8903.22
-8903.22
-8903.22
-8903.22
-8903.22
-8903.22
-8903.22
-8903.22
-8903.22
-8903.22
-8903.22
-8903.22
-9097.23
-9097.24
-9097.24
-9097.25
-9097.26
-9097.27
-9097.28
-9097.29
-9113.56
-9113.53
-9113.48
-9113.41
-9113.32
-9113.22
-9113.11
-9113
-9112.88
-9112.77
-9112.66
-9112.55
-9112.46
-9112.38
-9112.31
-9112.26
-9112.22
-9112.21
-9112.22
-9112.24
-9112.29
-9112.36
-9112.46
-9112.57
-9112.71
-9112.88
-9113.06
-9113.26
-9113.48
-9113.72
-9113.97
-9114.23
-9114.5
-9114.78
-9115.07
-9115.35
-9115.63
-9115.91
-9116.18
-9116.43
-9116.67
-9116.89
-9117.09
-9117.26
-9117.4
-9117.52
-9117.6
-9117.65
-9117.66
-9117.64
-9117.59
-9117.5
-9117.38
-9117.23
-9117.05
-9116.85
-9116.63
-9116.39
-9116.14
-9115.88
-9115.62
-9115.37
-9115.13
-9114.89
-9114.68
-9114.5
-9114.34
-9114.22
-9114.13
-9114.08
-9114.06
-9114.09
-9114.15
-9114.24
-9114.36
-9114.51
-9114.67
-9114.85
-9115.04
-9115.23
-9115.42
-9115.6
-9115.76
-9115.91
-9116.05
-9116.16
-9116.24
-9116.31
-9116.35
-9116.37
-9116.37
-9116.34
-9116.31
-9116.26
-9116.19
-9116.12
-9116.04
-9115.96
-9115.88
-9115.8
-9115.72
-9115.64
-9115.57
-9115.51
-9115.45
-9115.4
-9115.36
-9115.33
-9115.31
-9115.29
-9115.28
-9115.28
-9115.28
-9115.29
-9115.31
-9115.33
-9115.35
-9115.38
-9115.41
-9115.44
-9115.47
-9115.5
-9115.53
-9115.55
-9115.58
-9115.61
-9115.63
-9115.65
-9115.67
-9115.69
-9115.7
-9115.71
-9115.72
-9115.73
-9115.73
-9115.73
-9115.73
-9115.73
-9115.72
-9115.72
-9115.71
-9115.7
-9115.69
-9115.68
-9115.66
-9115.65
-9115.64
-9115.63
-9115.62
-9115.61
-9115.6
-9115.59
-9115.58
-9115.57
-9115.56
-9115.56
-9115.55
-9115.55
-9115.55
-9115.54
-9115.54
-9115.54
-9115.54
-9115.54
-9115.54
-9115.54
-9115.55
-9115.55
-9115.55
-9115.55
-9115.55
-9115.55
-9115.55
-9283.41
-9283.41
-9283.42
-9283.42
-9283.43
-9283.43
-9283.44
-9283.44
-9301.28
-9301.25
-9301.2
-9301.14
-9301.06
-9300.96
-9300.86
-9300.75
-9300.64
-9300.52
-9300.41
-9300.31
-9300.22
-9300.14
-9300.07
-9300.03
-9300
-9299.99
-9300
-9300.03
-9300.09
-9300.17
-9300.28
-9300.41
-9300.56
-9300.74
-9300.94
-9301.16
-9301.4
-9301.66
-9301.94
-9302.22
-9302.52
-9302.82
-9303.13
-9303.44
-9303.75
-9304.05
-9304.34
-9304.61
-9304.87
-9305.1
-9305.32
-9305.5
-9305.65
-9305.78
-9305.86
-9305.91
-9305.93
-9305.9
-9305.84
-9305.75
-9305.61
-9305.45
-9305.26
-9305.03
-9304.79
-9304.53
-9304.26
-9303.98
-9303.7
-9303.43
-9303.16
-9302.92
-9302.69
-9302.49
-9302.32
-9302.19
-9302.1
-9302.05
-9302.03
-9302.06
-9302.13
-9302.23
-9302.37
-9302.53
-9302.71
-9302.9
-9303.11
-9303.31
-9303.52
-9303.71
-9303.88
-9304.04
-9304.18
-9304.3
-9304.39
-9304.45
-9304.49
-9304.51
-9304.51
-9304.48
-9304.44
-9304.38
-9304.31
-9304.24
-9304.15
-9304.07
-9303.98
-9303.89
-9303.81
-9303.73
-9303.66
-9303.59
-9303.53
-9303.48
-9303.44
-9303.41
-9303.38
-9303.37
-9303.36
-9303.36
-9303.36
-9303.37
-9303.39
-9303.41
-9303.44
-9303.46
-9303.49
-9303.52
-9303.55
-9303.59
-9303.62
-9303.65
-9303.68
-9303.7
-9303.73
-9303.75
-9303.77
-9303.79
-9303.8
-9303.81
-9303.82
-9303.83
-9303.83
-9303.83
-9303.83
-9303.82
-9303.82
-9303.81
-9303.8
-9303.79
-9303.78
-9303.77
-9303.76
-9303.74
-9303.73
-9303.72
-9303.71
-9303.7
-9303.69
-9303.68
-9303.67
-9303.66
-9303.66
-9303.65
-9303.64
-9303.64
-9303.64
-9303.64
-9303.63
-9303.63
-9303.63
-9303.63
-9303.63
-9303.64
-9303.64
-9303.64
-9303.64
-9303.64
-9303.64
-9303.64
-9303.64
-9448.33
-9448.33
-9448.34
-9448.34
-9448.34
-9448.35
-9448.35
-9448.36
-9467.58
-9467.56
-9467.51
-9467.45
-9467.38
-9467.28
-9467.18