/*--------------------------------*- C++ -*----------------------------------*\
  =========                 |
  \\      /  F ield         | OpenFOAM: The Open Source CFD Toolbox
   \\    /   O peration     | Website:  https://openfoam.org
    \\  /    A nd           | Version:  12
     \\/     M anipulation  |
\*---------------------------------------------------------------------------*/
FoamFile
{
    format      ascii;
    class       volScalarField;
    location    "4";
    object      p_rgh;
}
// * * * * * * * * * * * * * * * * * * * * * * * * * * * * * * * * * * * * * //

dimensions      [1 -1 -2 0 0 0 0];

internalField   nonuniform List<scalar> 
3829
(
-1.48146
-1.48109
-1.48033
-1.47916
-1.47756
-1.47551
-1.47297
-1.4699
-1.46628
-1.46205
-1.45717
-1.4516
-1.44529
-1.4382
-1.43026
-1.42145
-1.41169
-1.40094
-1.38914
-1.37626
-1.36225
-1.34706
-1.33069
-1.31311
-1.2943
-1.27427
-1.25304
-1.23064
-1.20708
-1.18244
-1.15676
-1.13012
-1.1026
-1.07429
-1.04529
-1.01571
-0.985644
-0.955231
-0.924595
-0.893866
-0.863176
-0.832654
-0.802418
-0.772779
-0.743804
-0.715605
-0.68829
-0.661962
-0.636711
-0.612621
-0.589759
-0.568185
-0.547944
-0.529068
-0.511577
-0.495479
-0.48077
-0.467434
-0.455437
-0.44473
-0.435243
-0.426894
-0.419584
-0.413198
-0.407611
-0.402682
-0.398262
-0.394198
-0.39033
-0.386495
-0.382527
-0.378266
-0.373554
-0.368235
-0.362207
-0.355351
-0.347557
-0.338747
-0.328877
-0.317931
-0.305522
-0.292017
-0.277491
-0.26202
-0.245701
-0.228637
-0.21095
-0.192976
-0.174849
-0.156787
-0.139024
-0.121811
-0.105402
-0.0900429
-0.0759727
-0.0634147
-0.0525679
-0.0436036
-0.0366473
-0.0317898
-0.0293462
-0.0291504
-0.0311294
-0.0352007
-0.0412505
-0.0491132
-0.0585799
-0.0694017
-0.0812971
-0.09396
-0.107067
-0.120284
-0.133277
-0.14572
-0.157305
-0.167747
-0.176796
-0.184235
-0.189891
-0.193637
-0.195393
-0.195102
-0.192818
-0.188627
-0.182649
-0.175047
-0.166018
-0.155789
-0.144612
-0.13275
-0.120483
-0.108092
-0.0958466
-0.0840131
-0.0728373
-0.0625436
-0.0533315
-0.0453685
-0.0387896
-0.0336964
-0.0301544
-0.0281935
-0.0278097
-0.0289669
-0.0315968
-0.0356051
-0.0408732
-0.0472593
-0.0546065
-0.0627438
-0.0714903
-0.0806616
-0.0900721
-0.0995376
-0.108882
-0.117918
-0.126519
-0.134538
-0.141847
-0.148342
-0.153934
-0.158558
-0.162169
-0.16474
-0.166266
-0.166763
-0.166263
-0.164813
-0.162476
-0.159327
-0.155453
-0.150947
-0.145911
-0.140448
-0.134663
-0.128661
-0.122543
-0.116407
-0.110342
-0.104431
-0.0987491
-0.0933589
-0.0883146
-0.0836588
-0.0794221
-0.075624
-0.0722732
-0.0693676
-0.0668939
-0.064831
-0.0631495
-0.0618134
-0.0607825
-0.060013
-0.0594602
-0.0590808
-0.0588338
-0.0586836
-0.0586008
-0.0585646
-1.51848
-1.51829
-1.51788
-1.51725
-1.51636
-1.51517
-1.51365
-1.51174
-1.50937
-1.50648
-1.50299
-1.49883
-1.49391
-1.48815
-1.48144
-1.47371
-1.46483
-1.45471
-1.44326
-1.43039
-1.41604
-1.40013
-1.38262
-1.36348
-1.34271
-1.3203
-1.29628
-1.27071
-1.24365
-1.21518
-1.18541
-1.15444
-1.12241
-1.08943
-1.05566
-1.02124
-0.986344
-0.951152
-0.915831
-0.880555
-0.845495
-0.810817
-0.776673
-0.743579
-0.711528
-0.680639
-0.651027
-0.622802
-0.596061
-0.570888
-0.547355
-0.525517
-0.505419
-0.487085
-0.470528
-0.455741
-0.442706
-0.431378
-0.421695
-0.413572
-0.406902
-0.401564
-0.397416
-0.394299
-0.392042
-0.390462
-0.389365
-0.38855
-0.387811
-0.386938
-0.385725
-0.383969
-0.381482
-0.378086
-0.373615
-0.367925
-0.36089
-0.35241
-0.342422
-0.330889
-0.318034
-0.303675
-0.287895
-0.270799
-0.252542
-0.233305
-0.213298
-0.192783
-0.172051
-0.15137
-0.131038
-0.111366
-0.0926666
-0.0752416
-0.0593839
-0.0453607
-0.0334093
-0.0237336
-0.0164859
-0.0117964
-0.00978399
-0.0103776
-0.0135258
-0.0191277
-0.0270164
-0.0369692
-0.0487168
-0.0619488
-0.0763198
-0.0914592
-0.106982
-0.122489
-0.137602
-0.151944
-0.165168
-0.176962
-0.187055
-0.195225
-0.201308
-0.205214
-0.206942
-0.205986
-0.202909
-0.19776
-0.190672
-0.181837
-0.171488
-0.15989
-0.147334
-0.134121
-0.120562
-0.106966
-0.0936288
-0.0808315
-0.068835
-0.0578729
-0.0481496
-0.0398322
-0.0330503
-0.0278989
-0.0244337
-0.022671
-0.0225874
-0.0241337
-0.0272273
-0.0317567
-0.0375858
-0.0445577
-0.0525002
-0.0612281
-0.0705483
-0.0802661
-0.090186
-0.100118
-0.109879
-0.119264
-0.128173
-0.136438
-0.143935
-0.15056
-0.156228
-0.160877
-0.164465
-0.166971
-0.168395
-0.168759
-0.168099
-0.166467
-0.163934
-0.16058
-0.156496
-0.151781
-0.146539
-0.140881
-0.134911
-0.12874
-0.122469
-0.116198
-0.110016
-0.104009
-0.0982503
-0.0928023
-0.087719
-0.0830416
-0.0787997
-0.0750113
-0.0716834
-0.0688118
-0.0663816
-0.0643689
-0.0627425
-0.0614639
-0.0604908
-0.0597772
-0.0592765
-0.0589435
-0.0587358
-0.0586163
-0.0585547
-0.0585295
-1.56841
-1.56874
-1.5694
-1.57036
-1.57158
-1.57301
-1.57456
-1.57611
-1.57756
-1.57873
-1.57947
-1.57959
-1.57888
-1.57715
-1.57422
-1.56986
-1.56387
-1.55605
-1.54622
-1.5342
-1.51986
-1.50307
-1.48377
-1.46189
-1.43742
-1.4104
-1.38089
-1.34899
-1.31484
-1.27861
-1.24049
-1.2007
-1.15946
-1.11702
-1.07363
-1.02959
-0.985169
-0.940635
-0.896249
-0.852262
-0.808905
-0.766402
-0.724951
-0.685793
-0.648304
-0.612653
-0.579004
-0.547502
-0.518266
-0.491393
-0.466958
-0.445013
-0.425591
-0.408701
-0.394329
-0.382435
-0.372955
-0.365786
-0.3608
-0.357842
-0.356737
-0.357286
-0.359267
-0.362439
-0.366549
-0.37133
-0.376501
-0.381779
-0.386871
-0.391494
-0.395366
-0.398221
-0.399801
-0.399867
-0.398208
-0.394641
-0.389016
-0.381216
-0.371169
-0.358838
-0.34437
-0.327762
-0.309115
-0.288592
-0.266414
-0.24285
-0.218211
-0.19283
-0.167129
-0.141486
-0.11631
-0.0920264
-0.0690611
-0.0478148
-0.0286741
-0.0119873
0.00193652
0.0128517
0.020558
0.0249229
0.0259892
0.0237348
0.018232
0.00965261
-0.00174435
-0.0156351
-0.0316393
-0.0493319
-0.0682476
-0.0878982
-0.107786
-0.127406
-0.146285
-0.163966
-0.180031
-0.194117
-0.205918
-0.215191
-0.221755
-0.225484
-0.22628
-0.224745
-0.220442
-0.213614
-0.20452
-0.19345
-0.180721
-0.166676
-0.151676
-0.136084
-0.120267
-0.104597
-0.0893823
-0.0749487
-0.0615754
-0.0495077
-0.0389546
-0.0300801
-0.0230051
-0.0178095
-0.0145302
-0.013167
-0.0136311
-0.0158823
-0.0198029
-0.0252518
-0.0320638
-0.0400534
-0.0490237
-0.0587659
-0.0690672
-0.0797138
-0.0904962
-0.10121
-0.111662
-0.12166
-0.131067
-0.139735
-0.147537
-0.15437
-0.160155
-0.164833
-0.168372
-0.170757
-0.172
-0.17213
-0.171191
-0.169248
-0.166378
-0.162672
-0.15823
-0.15316
-0.147572
-0.141582
-0.135302
-0.128845
-0.122318
-0.115821
-0.109446
-0.103279
-0.0973934
-0.0918509
-0.0867043
-0.0819931
-0.0777447
-0.0739749
-0.0706875
-0.0678753
-0.06552
-0.0635938
-0.0620615
-0.060881
-0.0600062
-0.0593876
-0.0589752
-0.0587207
-0.0585794
-0.0585118
-0.0584861
-0.0584794
-1.60148
-1.60308
-1.60628
-1.61108
-1.61739
-1.62509
-1.63402
-1.64394
-1.65458
-1.6656
-1.67658
-1.68708
-1.69668
-1.70495
-1.71144
-1.71567
-1.71723
-1.71567
-1.71063
-1.70175
-1.68874
-1.67138
-1.64952
-1.62311
-1.59217
-1.55682
-1.51727
-1.47381
-1.4268
-1.37666
-1.32383
-1.26876
-1.21189
-1.15369
-1.09463
-1.03517
-0.97576
-0.916827
-0.85878
-0.801999
-0.746848
-0.693674
-0.64278
-0.593918
-0.548331
-0.506049
-0.467153
-0.431726
-0.399835
-0.371538
-0.346877
-0.325869
-0.308508
-0.294757
-0.284547
-0.277773
-0.274285
-0.27389
-0.276371
-0.281477
-0.288933
-0.298431
-0.309635
-0.322188
-0.33572
-0.349842
-0.364158
-0.378269
-0.391761
-0.404246
-0.415335
-0.424661
-0.431874
-0.436665
-0.438762
-0.437933
-0.434009
-0.42687
-0.416469
-0.402391
-0.385219
-0.36496
-0.341779
-0.315937
-0.287767
-0.257656
-0.226055
-0.193464
-0.160415
-0.127489
-0.0952527
-0.0642952
-0.0351952
-0.00849744
0.0152818
0.0356839
0.0523128
0.0648539
0.0730499
0.0768103
0.0762524
0.0713272
0.0621907
0.049143
0.0325683
0.0129402
-0.00919995
-0.0332616
-0.05861
-0.0845853
-0.11053
-0.135797
-0.159789
-0.181939
-0.201746
-0.218793
-0.232742
-0.243339
-0.25043
-0.253963
-0.253991
-0.250683
-0.244188
-0.234764
-0.222742
-0.208502
-0.192461
-0.175061
-0.156751
-0.137975
-0.11917
-0.100765
-0.0831243
-0.0665957
-0.0514857
-0.038053
-0.0265033
-0.0169936
-0.00962816
-0.00446008
-0.00149506
-0.000690472
-0.00197693
-0.00522025
-0.0102741
-0.016961
-0.0250806
-0.0344134
-0.0447293
-0.055793
-0.0673628
-0.079205
-0.0910898
-0.102799
-0.11412
-0.124878
-0.134913
-0.144078
-0.152249
-0.159328
-0.165241
-0.169939
-0.173395
-0.17561
-0.176607
-0.176423
-0.175118
-0.172766
-0.169459
-0.165299
-0.160396
-0.154869
-0.148839
-0.142426
-0.135753
-0.128935
-0.122085
-0.115304
-0.108688
-0.102322
-0.096279
-0.0906208
-0.0853978
-0.0806477
-0.0763949
-0.0726523
-0.0694201
-0.0666866
-0.0644292
-0.0626154
-0.0612049
-0.0601511
-0.0594026
-0.0589058
-0.0586064
-0.0584522
-0.0583954
-0.0583939
-0.0584138
-0.0584305
-1.58107
-1.58517
-1.59343
-1.60583
-1.62221
-1.64237
-1.66596
-1.6926
-1.72177
-1.75272
-1.7846
-1.8165
-1.84735
-1.87606
-1.90158
-1.92292
-1.93918
-1.94955
-1.95335
-1.95003
-1.93916
-1.92046
-1.89378
-1.85917
-1.8168
-1.7671
-1.71064
-1.64817
-1.58052
-1.5084
-1.43253
-1.35378
-1.27309
-1.19133
-1.10929
-1.02768
-0.947173
-0.868372
-0.791838
-0.718076
-0.647573
-0.580748
-0.518166
-0.458593
-0.404443
-0.355337
-0.311271
-0.272293
-0.238452
-0.209783
-0.186289
-0.167945
-0.154678
-0.146373
-0.142868
-0.14394
-0.149326
-0.158722
-0.171787
-0.188148
-0.207393
-0.229075
-0.25272
-0.277823
-0.303864
-0.330306
-0.35654
-0.38213
-0.406467
-0.42901
-0.449245
-0.466684
-0.480869
-0.491401
-0.497916
-0.500116
-0.49776
-0.490694
-0.478736
-0.462359
-0.44136
-0.415941
-0.386433
-0.353246
-0.316869
-0.277864
-0.236877
-0.194612
-0.151788
-0.109244
-0.0677452
-0.0280899
0.00893788
0.0426113
0.0722541
0.0972578
0.117153
0.131514
0.140133
0.142802
0.13975
0.131
0.116861
0.097778
0.0743134
0.0471425
0.0170198
-0.0152436
-0.0487893
-0.0827513
-0.116212
-0.148451
-0.178657
-0.206146
-0.230329
-0.250729
-0.266985
-0.278855
-0.286225
-0.289108
-0.287644
-0.28206
-0.272665
-0.259847
-0.244063
-0.225822
-0.205662
-0.184144
-0.161823
-0.139234
-0.116897
-0.0953005
-0.074859
-0.0559522
-0.0389043
-0.0239815
-0.0113881
-0.00126179
0.00631765
0.0113281
0.0138046
0.0138345
0.0115264
0.00705806
0.000624686
-0.00755134
-0.0172278
-0.0281447
-0.0400362
-0.0526331
-0.0656685
-0.0788813
-0.0920251
-0.10487
-0.117145
-0.128756
-0.139487
-0.149196
-0.157763
-0.165096
-0.171129
-0.175823
-0.179163
-0.181158
-0.181858
-0.1813
-0.179561
-0.176732
-0.172917
-0.168231
-0.162799
-0.15675
-0.150214
-0.143323
-0.136204
-0.12898
-0.121766
-0.114669
-0.107785
-0.101199
-0.0949836
-0.0891999
-0.0838959
-0.0791067
-0.0748539
-0.0711466
-0.0679813
-0.0653412
-0.0631984
-0.0615153
-0.0602458
-0.0593375
-0.0587343
-0.058377
-0.0582066
-0.0581668
-0.0582059
-0.0582794
-0.058351
-0.0583942
-1.40244
-1.41167
-1.43025
-1.45814
-1.49504
-1.54039
-1.59335
-1.65267
-1.71687
-1.78436
-1.85344
-1.92235
-1.98938
-2.05284
-2.11113
-2.16278
-2.20643
-2.24081
-2.26476
-2.27717
-2.27697
-2.26321
-2.2352
-2.19266
-2.13592
-2.06577
-1.98349
-1.89063
-1.78905
-1.68093
-1.56839
-1.45324
-1.33706
-1.22121
-1.10683
-0.994939
-0.886391
-0.781919
-0.682167
-0.587664
-0.498867
-0.416086
-0.339521
-0.269583
-0.208085
-0.153533
-0.105895
-0.0652075
-0.0315003
-0.00477263
0.0150322
0.02802
0.0343516
0.0342538
0.0280174
0.0159812
-0.00146989
-0.0239013
-0.0508319
-0.0817389
-0.116061
-0.153184
-0.192466
-0.233231
-0.274775
-0.316312
-0.35724
-0.396776
-0.43419
-0.468773
-0.499862
-0.526823
-0.549071
-0.566093
-0.577463
-0.582838
-0.582005
-0.574874
-0.560555
-0.540121
-0.513543
-0.481097
-0.443221
-0.400481
-0.353556
-0.303221
-0.250364
-0.195946
-0.140906
-0.0864323
-0.0335246
0.0167664
0.0634111
0.105448
0.142027
0.172381
0.195887
0.212128
0.220784
0.22174
0.215202
0.201395
0.180799
0.154059
0.121974
0.0854716
0.0455763
0.00338501
-0.0399791
-0.0833881
-0.125713
-0.165983
-0.203253
-0.236701
-0.265638
-0.289549
-0.308061
-0.320958
-0.328185
-0.329821
-0.326256
-0.31771
-0.304671
-0.287693
-0.267389
-0.244417
-0.219458
-0.193204
-0.166324
-0.139455
-0.113219
-0.0881274
-0.0646613
-0.043228
-0.0241664
-0.00774058
0.00585646
0.0165113
0.0241784
0.0288751
0.03068
0.0297447
0.0262233
0.0203327
0.0123207
0.00246136
-0.00895474
-0.0216266
-0.0352492
-0.0495202
-0.0641408
-0.0788292
-0.0933141
-0.107339
-0.120673
-0.133157
-0.144604
-0.154866
-0.163827
-0.171402
-0.177535
-0.182197
-0.185387
-0.187121
-0.187482
-0.186504
-0.184284
-0.180929
-0.176559
-0.171303
-0.165299
-0.158688
-0.151612
-0.14421
-0.136618
-0.128964
-0.121368
-0.113939
-0.106774
-0.0999603
-0.0935685
-0.0876574
-0.0822732
-0.077448
-0.0732006
-0.0695363
-0.0664469
-0.0639108
-0.0618944
-0.060354
-0.0592374
-0.0584869
-0.0580403
-0.0578333
-0.0578015
-0.0578839
-0.0580254
-0.0581788
-0.0583053
-0.0583767
-1.06061
-1.07976
-1.1184
-1.1766
-1.25406
-1.35009
-1.46355
-1.59238
-1.73389
-1.88335
-2.03704
-2.19092
-2.34059
-2.48165
-2.60992
-2.7217
-2.81375
-2.88337
-2.92849
-2.9477
-2.94031
-2.90636
-2.8465
-2.76192
-2.65427
-2.52583
-2.37962
-2.21987
-2.05177
-1.88076
-1.70968
-1.54029
-1.37432
-1.21319
-1.05804
-0.909766
-0.769074
-0.636513
-0.512499
-0.397362
-0.291315
-0.194544
-0.10701
-0.0283974
0.0387195
0.097007
0.146331
0.186574
0.217723
0.239867
0.25317
0.257861
0.254243
0.242686
0.223603
0.197456
0.164769
0.126122
0.082146
0.0335274
-0.0189942
-0.0746171
-0.132511
-0.191791
-0.251558
-0.310884
-0.368853
-0.424531
-0.476986
-0.525321
-0.568697
-0.606316
-0.637441
-0.66144
-0.677769
-0.685978
-0.685725
-0.676734
-0.659937
-0.634557
-0.600985
-0.559735
-0.511458
-0.456943
-0.397118
-0.333029
-0.265856
-0.196873
-0.127356
-0.0587502
0.00759256
0.0703024
0.128081
0.179717
0.224109
0.260344
0.287687
0.30559
0.313788
0.312248
0.301166
0.28101
0.252471
0.216452
0.174042
0.126489
0.0751454
0.0214388
-0.0331873
-0.0872982
-0.139545
-0.188697
-0.233641
-0.273422
-0.307273
-0.334645
-0.355181
-0.368723
-0.375327
-0.375234
-0.36876
-0.356506
-0.339097
-0.317256
-0.291765
-0.263452
-0.233148
-0.201682
-0.169845
-0.138363
-0.108053
-0.0792875
-0.0526922
-0.0286979
-0.00764333
0.0102184
0.024718
0.0357732
0.0433773
0.04759
0.0485383
0.0464892
0.0415842
0.0341053
0.0243627
0.0126822
-0.000599609
-0.0151355
-0.0305833
-0.0466067
-0.0628784
-0.0790907
-0.0949561
-0.110172
-0.124572
-0.137941
-0.150097
-0.160898
-0.170233
-0.178027
-0.184232
-0.188833
-0.191845
-0.193311
-0.193275
-0.19184
-0.189107
-0.185196
-0.180244
-0.174394
-0.167796
-0.160605
-0.152972
-0.145047
-0.136971
-0.128881
-0.120898
-0.113135
-0.10569
-0.0986496
-0.0920836
-0.0860485
-0.0805882
-0.0757321
-0.0714956
-0.0678804
-0.0648739
-0.062449
-0.0605663
-0.0591755
-0.0582188
-0.0576322
-0.0573483
-0.0572967
-0.0574078
-0.057616
-0.0578625
-0.0580975
-0.0582802
-0.0583805
-0.291259
-0.325015
-0.392997
-0.495717
-0.633879
-0.805699
-1.01296
-1.24555
-1.51989
-1.77812
-2.03462
-2.28299
-2.51702
-2.73021
-2.91781
-3.0772
-3.20731
-3.30772
-3.37822
-3.41835
-3.42717
-3.40317
-3.34459
-3.24959
-3.11726
-2.94763
-2.74269
-2.51155
-2.27272
-2.03287
-1.7969
-1.56772
-1.34762
-1.13779
-0.939167
-0.752736
-0.579305
-0.41923
-0.272613
-0.139477
-0.019716
0.0868403
0.180135
0.259828
0.333072
0.3936
0.442044
0.478806
0.50422
0.518596
0.522272
0.515632
0.499102
0.473144
0.438288
0.395122
0.344305
0.286565
0.222697
0.153563
0.0800868
0.00327647
-0.0758325
-0.156141
-0.236501
-0.3158
-0.392865
-0.46654
-0.535675
-0.599162
-0.655968
-0.705121
-0.745726
-0.777025
-0.798383
-0.80929
-0.809425
-0.798648
-0.777156
-0.745008
-0.70263
-0.650656
-0.589933
-0.521487
-0.446527
-0.366407
-0.282636
-0.196845
-0.110717
-0.026002
0.0555673
0.132277
0.202484
0.264709
0.317625
0.360103
0.391281
0.410568
0.417701
0.412742
0.396005
0.368179
0.330225
0.283364
0.229031
0.168852
0.104565
0.0379543
-0.0291833
-0.094964
-0.157954
-0.216585
-0.269574
-0.315839
-0.354561
-0.385172
-0.407355
-0.421039
-0.426411
-0.423869
-0.413918
-0.397317
-0.374908
-0.347604
-0.316381
-0.282248
-0.246194
-0.20919
-0.172153
-0.135933
-0.101339
-0.0688929
-0.0391902
-0.0126901
0.0102645
0.0294425
0.0447053
0.0560092
0.0633966
0.0669743
0.0668741
0.0636004
0.0571724
0.0479823
0.0364034
0.0228113
0.00759103
-0.00886576
-0.026181
-0.0439853
-0.0619242
-0.0796683
-0.0969209
-0.113288
-0.128746
-0.142979
-0.155818
-0.167129
-0.176808
-0.184788
-0.191036
-0.195547
-0.198352
-0.199507
-0.199069
-0.19716
-0.193897
-0.189418
-0.183872
-0.177418
-0.170221
-0.162447
-0.154257
-0.14581
-0.137256
-0.128734
-0.12037
-0.11228
-0.104562
-0.0973023
-0.0905693
-0.0844172
-0.0788871
-0.0740056
-0.0697853
-0.0662239
-0.0633048
-0.0609953
-0.05925
-0.058012
-0.0572173
-0.0567966
-0.0566767
-0.0567818
-0.0570363
-0.0573702
-0.0577213
-0.0580375
-0.058276
-0.0584049
0.920003
0.86291
0.746817
0.56897
0.324362
0.00836317
-0.378934
-0.824633
-1.32031
-1.80438
-2.27801
-2.74394
-3.19484
-3.61932
-3.98711
-4.29583
-4.54651
-4.73566
-4.8593
-4.91455
-4.89999
-4.81607
-4.66551
-4.45195
-4.18009
-3.85493
-3.46151
-3.02334
-2.61082
-2.22583
-1.86494
-1.53358
-1.23211
-0.959504
-0.71387
-0.492679
-0.293459
-0.114233
0.0465626
0.190182
0.31743
0.429007
0.525501
0.607671
0.676509
0.732215
0.774567
0.80369
0.819836
0.823329
0.814548
0.793911
0.761892
0.719031
0.665947
0.603338
0.531996
0.452796
0.366692
0.274734
0.178045
0.077832
-0.0246213
-0.127976
-0.230872
-0.331919
-0.429709
-0.52284
-0.60992
-0.689613
-0.760681
-0.821959
-0.872387
-0.911077
-0.937289
-0.950452
-0.950228
-0.936498
-0.909351
-0.86912
-0.816376
-0.751945
-0.676908
-0.592571
-0.50046
-0.40227
-0.299898
-0.195368
-0.0907668
0.011761
0.11006
0.202052
0.285747
0.359342
0.421252
0.470158
0.505065
0.525331
0.530706
0.521398
0.497881
0.461102
0.412347
0.35321
0.285526
0.211348
0.132846
0.0522177
-0.0283663
-0.106627
-0.180903
-0.249347
-0.310522
-0.363233
-0.40661
-0.440105
-0.463471
-0.47675
-0.480284
-0.474695
-0.460661
-0.439138
-0.41119
-0.377944
-0.340579
-0.300286
-0.258216
-0.215479
-0.173123
-0.132133
-0.0932675
-0.057173
-0.024451
0.00443255
0.0291462
0.0494877
0.0653547
0.0767514
0.0837762
0.0866162
0.0855813
0.080727
0.0726413
0.0616547
0.0481762
0.03263
0.0154449
-0.00294614
-0.0221283
-0.0417025
-0.0612882
-0.0805314
-0.0990911
-0.116665
-0.133107
-0.148157
-0.161638
-0.17342
-0.183407
-0.191541
-0.197801
-0.202197
-0.204771
-0.205594
-0.204746
-0.202356
-0.198559
-0.193509
-0.187371
-0.180318
-0.172529
-0.164181
-0.155446
-0.146489
-0.13747
-0.128529
-0.119798
-0.111393
-0.103415
-0.0959484
-0.0890586
-0.0827981
-0.0772054
-0.0723043
-0.0681044
-0.0646003
-0.061771
-0.0595786
-0.0579713
-0.0568858
-0.0562521
-0.0559955
-0.0560378
-0.0562973
-0.056693
-0.0571499
-0.057603
-0.0579982
-0.0582912
-0.058448
2.72555
2.66201
2.5369
2.35017
2.07441
1.62138
0.879972
0.0153325
-1.75393
-2.66118
-3.34173
-4.03134
-4.58939
-5.03091
-5.39278
-5.67856
-5.88976
-6.03541
-6.12719
-6.17343
-6.17309
-6.11415
-5.97901
-5.74364
-5.38966
-4.93692
-4.29901
-3.23108
-2.58287
-2.07422
-1.63037
-1.24793
-0.915313
-0.621291
-0.359309
-0.125843
0.0822656
0.267547
0.43194
0.577047
0.704206
0.814326
0.908226
0.986397
1.04945
1.09753
1.13092
1.14977
1.15428
1.14473
1.12145
1.08487
1.03547
0.973854
0.900719
0.816853
0.723179
0.620721
0.510609
0.394076
0.272451
0.147179
0.0197592
-0.108142
-0.235016
-0.359146
-0.478857
-0.592491
-0.698404
-0.795014
-0.880865
-0.954596
-1.01497
-1.06095
-1.09171
-1.10661
-1.10527
-1.08761
-1.05378
-1.00424
-0.939753
-0.86135
-0.770389
-0.668487
-0.557516
-0.43956
-0.316923
-0.192054
-0.0674853
0.0542008
0.170424
0.278693
0.376636
0.462127
0.533312
0.588671
0.627076
0.647844
0.650778
0.636188
0.604823
0.55792
0.497138
0.424485
0.342248
0.252953
0.159232
0.0637322
-0.030932
-0.122225
-0.208061
-0.286439
-0.355742
-0.414689
-0.46238
-0.498322
-0.522365
-0.534696
-0.535792
-0.526645
-0.507994
-0.481071
-0.447164
-0.407631
-0.363852
-0.317196
-0.26898
-0.220443
-0.172736
-0.127104
-0.0840354
-0.0444026
-0.00880529
0.0222981
0.0486025
0.0699382
0.0862468
0.0975834
0.104105
0.106054
0.103759
0.0974719
0.0877038
0.0748884
0.0594909
0.0419861
0.0228476
0.00254638
-0.0184678
-0.0397701
-0.0609569
-0.0816542
-0.101455
-0.120169
-0.137554
-0.153371
-0.167447
-0.179657
-0.189913
-0.198169
-0.204415
-0.208674
-0.211002
-0.211484
-0.210221
-0.207352
-0.203027
-0.197414
-0.190696
-0.183058
-0.174693
-0.16579
-0.156528
-0.147081
-0.137618
-0.128277
-0.119196
-0.110495
-0.102273
-0.094612
-0.0875773
-0.081218
-0.07557
-0.0706546
-0.0664786
-0.0630336
-0.0602947
-0.0582189
-0.056748
-0.055812
-0.0553354
-0.0552387
-0.0554387
-0.0558481
-0.0563805
-0.0569559
-0.0575069
-0.0579779
-0.058323
-0.0585067
4.97457
4.84052
4.55992
4.10729
3.52473
2.86535
2.24191
1.33583
-0.277469
-1.43654
-2.48099
-3.41477
-4.2371
-4.95611
-5.5809
-6.11211
-6.54671
-6.87741
-7.09251
-7.17929
-7.13261
-6.95554
-6.68925
-6.2745
-5.72519
-5.052
-4.25984
-3.02725
-2.32849
-1.70108
-1.19612
-0.788704
-0.44162
-0.145463
0.110217
0.334279
0.53246
0.708288
0.864223
1.00176
1.12185
1.22512
1.31192
1.38255
1.43717
1.47604
1.49905
1.50628
1.49787
1.47402
1.43504
1.38132
1.31337
1.23182
1.13745
1.03113
0.913925
0.787004
0.651676
0.509373
0.361641
0.210168
0.0567134
-0.0968313
-0.248613
-0.396674
-0.539063
-0.673849
-0.799115
-0.913024
-1.0139
-1.10017
-1.17042
-1.22347
-1.25839
-1.27447
-1.27133
-1.2489
-1.20742
-1.14752
-1.07011
-0.976489
-0.868306
-0.747508
-0.616347
-0.477304
-0.333121
-0.186715
-0.0410749
0.100752
0.23574
0.360957
0.473639
0.571318
0.651873
0.71356
0.75514
0.775893
0.775687
0.754983
0.714833
0.656815
0.582986
0.495816
0.398087
0.292835
0.183178
0.0722451
-0.0368926
-0.141403
-0.238893
-0.327128
-0.404335
-0.469178
-0.520768
-0.558676
-0.58289
-0.593771
-0.592046
-0.578738
-0.555034
-0.522346
-0.482198
-0.436167
-0.385833
-0.332746
-0.278377
-0.224084
-0.171055
-0.121051
-0.0738716
-0.0308686
0.00741369
0.040548
0.0682618
0.0904199
0.107015
0.118156
0.124057
0.12502
0.121424
0.113633
0.102163
0.0875174
0.0702163
0.0507809
0.0297314
0.00757377
-0.0152117
-0.0381754
-0.0608974
-0.0829973
-0.103937
-0.123734
-0.142006
-0.158533
-0.173153
-0.185746
-0.196234
-0.204582
-0.21079
-0.214897
-0.216971
-0.217112
-0.215436
-0.212096
-0.207255
-0.201096
-0.193816
-0.185615
-0.176699
-0.167264
-0.157501
-0.147588
-0.137708
-0.127988
-0.118579
-0.109601
-0.101152
-0.0933126
-0.0861452
-0.0796969
-0.0740008
-0.0690757
-0.064926
-0.0615408
-0.0588913
-0.0569299
-0.0555917
-0.0548004
-0.054475
-0.0545318
-0.0548831
-0.0554364
-0.0560993
-0.0567874
-0.0574311
-0.0579738
-0.0583683
-0.0585775
8.0748
8.04661
7.99512
7.92109
7.81598
7.65628
7.49126
7.24175
-0.776028
-0.55703
-0.408798
-0.195278
0.0241154
0.244615
0.454204
0.654539
0.8419
1.01471
1.17202
1.3136
1.43941
1.54943
1.64353
1.72156
1.78328
1.8285
1.85737
1.86935
1.86441
1.84255
1.8039
1.74869
1.67728
1.59021
1.48813
1.37189
1.24249
1.10109
0.949038
0.787821
0.619073
0.444577
0.266274
0.0861801
-0.0935384
-0.270731
-0.443159
-0.608597
-0.764813
-0.90962
-1.04093
-1.15682
-1.25551
-1.3354
-1.3952
-1.43384
-1.45057
-1.44499
-1.41708
-1.36718
-1.29604
-1.20481
-1.09504
-0.968668
-0.828014
-0.675709
-0.514666
-0.348076
-0.179339
-0.0119161
0.150663
0.304908
0.447436
0.575081
0.685031
0.774872
0.84266
0.887043
0.907271
0.903286
0.875751
0.826034
0.756101
0.66844
0.566014
0.452149
0.33039
0.204375
0.0777015
-0.0459726
-0.163731
-0.272732
-0.370567
-0.455333
-0.525652
-0.580669
-0.62005
-0.643938
-0.652897
-0.647927
-0.630102
-0.601035
-0.56235
-0.515809
-0.463193
-0.406285
-0.346815
-0.28639
-0.226506
-0.168522
-0.113896
-0.0629929
-0.0168615
0.0238916
0.0588578
0.0877951
0.110611
0.127353
0.138184
0.143377
0.143288
0.138365
0.129046
0.115882
0.0994311
0.0802681
0.0589594
0.036065
0.012126
-0.0123504
-0.0368917
-0.0610654
-0.0845197
-0.106464
-0.127301
-0.146394
-0.163572
-0.178683
-0.191616
-0.202302
-0.210715
-0.216867
-0.220811
-0.222628
-0.22243
-0.220352
-0.216555
-0.211217
-0.204535
-0.196717
-0.18798
-0.17854
-0.168604
-0.158368
-0.148017
-0.137748
-0.127674
-0.11796
-0.108725
-0.100067
-0.0920647
-0.0847771
-0.0782491
-0.0725115
-0.0675806
-0.0634586
-0.0601327
-0.0575706
-0.0557199
-0.0545092
-0.0538562
-0.0536748
-0.0538773
-0.0543722
-0.0550621
-0.0558486
-0.0566428
-0.0573732
-0.0579829
-0.0584239
-0.058657
11.042
11.0219
10.9837
10.9279
10.8572
10.7734
10.6969
10.5838
0.0756855
0.259616
0.370517
0.515032
0.682923
0.852261
1.02091
1.18565
1.34344
1.49229
1.63075
1.75742
1.87119
1.97099
2.05593
2.12525
2.17827
2.21442
2.23324
2.23428
2.21726
2.18203
2.1286
2.05714
1.968
1.86172
1.73899
1.60074
1.44807
1.28229
1.1049
0.917586
0.722198
0.520748
0.31544
0.108556
-0.0974597
-0.300153
-0.497
-0.685473
-0.863062
-1.0273
-1.17583
-1.30652
-1.41735
-1.50655
-1.57269
-1.6146
-1.63148
-1.62293
-1.58896
-1.53003
-1.44705
-1.34137
-1.21481
-1.06965
-0.908541
-0.734539
-0.550983
-0.36153
-0.170058
0.019477
0.203067
0.376735
0.536656
0.679245
0.801362
0.900273
0.973856
1.02066
1.03989
1.03157
0.996608
0.936719
0.85429
0.752265
0.634128
0.503751
0.365224
0.222701
0.0802087
-0.0577884
-0.188621
-0.308845
-0.41589
-0.507769
-0.583087
-0.641047
-0.681423
-0.70454
-0.711166
-0.702536
-0.680011
-0.645409
-0.600619
-0.547643
-0.488475
-0.425085
-0.359367
-0.293065
-0.227796
-0.165053
-0.106126
-0.0516863
-0.00266103
0.0403454
0.0769395
0.106923
0.13025
0.147018
0.157447
0.161868
0.160688
0.154437
0.143596
0.128768
0.110564
0.0896037
0.0664971
0.0418429
0.0162131
-0.00986092
-0.0358847
-0.0614091
-0.0860324
-0.109122
-0.130825
-0.150662
-0.16843
-0.183983
-0.197215
-0.208065
-0.216521
-0.222604
-0.226379
-0.227939
-0.227413
-0.224946
-0.220711
-0.2149
-0.20772
-0.199394
-0.190151
-0.180219
-0.169814
-0.159137
-0.148374
-0.137748
-0.127344
-0.117347
-0.107877
-0.0990292
-0.0908787
-0.0834829
-0.076884
-0.0711109
-0.0661773
-0.0620838
-0.0588157
-0.0563377
-0.0545931
-0.0535039
-0.0529818
-0.0529359
-0.0532755
-0.0539057
-0.0547242
-0.0556264
-0.0565196
-0.0573306
-0.0580025
-0.0584868
-0.0587422
13.6856
13.6743
13.6535
13.6237
13.589
13.5495
13.5267
13.4728
0.856998
0.958347
1.03209
1.13194
1.25482
1.38886
1.52784
1.66823
1.80621
1.93896
2.06412
2.17975
2.2841
2.3756
2.45288
2.51469
2.55998
2.58781
2.59743
2.5882
2.55966
2.51154
2.44375
2.35641
2.24986
2.12463
1.9815
1.82147
1.64574
1.45577
1.25325
1.04004
0.818211
0.590018
0.357927
0.124495
-0.107558
-0.335476
-0.55644
-0.767629
-0.966251
-1.14956
-1.31493
-1.46
-1.58256
-1.68064
-1.75268
-1.79743
-1.81402
-1.80206
-1.76161
-1.69324
-1.59802
-1.47754
-1.33388
-1.16963
-0.98784
-0.791954
-0.585747
-0.373348
-0.159112
0.0525174
0.257048
0.450017
0.627159
0.784479
0.918477
1.02614
1.10517
1.15401
1.17186
1.15872
1.11587
1.0454
0.950115
0.833445
0.699399
0.552408
0.397118
0.238203
0.0801682
-0.0720104
-0.215485
-0.346476
-0.462236
-0.560726
-0.640545
-0.700961
-0.741904
-0.763862
-0.767839
-0.755309
-0.727925
-0.687717
-0.636825
-0.577476
-0.511882
-0.442187
-0.370436
-0.298497
-0.228091
-0.160867
-0.0979394
-0.0401946
0.0114863
0.056526
0.094557
0.125421
0.149127
0.16582
0.175781
0.179393
0.177112
0.169544
0.157214
0.140775
0.120885
0.0982083
0.0733939
0.0470778
0.0198572
-0.00771174
-0.0351181
-0.0618958
-0.0876162
-0.11174
-0.134251
-0.154763
-0.173065
-0.189011
-0.202504
-0.213492
-0.221971
-0.227976
-0.231579
-0.232889
-0.232046
-0.229208
-0.224558
-0.218299
-0.210651
-0.201848
-0.192132
-0.181741
-0.170899
-0.159814
-0.148669
-0.137716
-0.127006
-0.116751
-0.107067
-0.0980458
-0.0897618
-0.0822688
-0.0756073
-0.069804
-0.0648702
-0.0608051
-0.0575928
-0.0551948
-0.053551
-0.0525765
-0.0521773
-0.052258
-0.0527255
-0.053482
-0.0544205
-0.0554307
-0.0564154
-0.0573005
-0.0580299
-0.0585542
-0.0588304
16.1054
16.1002
16.0908
16.0771
16.0609
16.0427
16.0284
16.0107
1.46272
1.50865
1.57477
1.65176
1.75074
1.86211
1.98102
2.10441
2.2285
2.35
2.46602
2.57405
2.67185
2.7574
2.82892
2.88483
2.92373
2.94442
2.94586
2.92726
2.88799
2.82769
2.74619
2.64357
2.52016
2.37655
2.21354
2.03225
1.83397
1.62035
1.39321
1.15464
0.90691
0.652524
0.394209
0.134811
-0.122705
-0.375263
-0.619754
-0.853074
-1.07215
-1.27395
-1.45561
-1.61452
-1.74827
-1.85474
-1.93223
-1.97939
-1.99532
-1.97962
-1.93242
-1.85439
-1.74678
-1.6114
-1.45059
-1.26728
-1.06489
-0.847264
-0.618607
-0.383511
-0.146801
0.0865966
0.311713
0.523613
0.717594
0.889245
1.03472
1.15074
1.2348
1.28533
1.30154
1.28315
1.2321
1.15084
1.04256
0.911185
0.761278
0.597805
0.42599
0.251018
0.0779024
-0.0881359
-0.243689
-0.384888
-0.50881
-0.613377
-0.697197
-0.759619
-0.800743
-0.821231
-0.822321
-0.805759
-0.773449
-0.727653
-0.670751
-0.605185
-0.533368
-0.457613
-0.380103
-0.302813
-0.227536
-0.156183
-0.0895246
-0.0287279
0.0253733
0.0722323
0.11152
0.143117
0.167088
0.183628
0.193071
0.195859
0.192535
0.183634
0.169863
0.151883
0.13039
0.106089
0.0796678
0.0517944
0.0230894
-0.00586839
-0.0345554
-0.0624902
-0.0892285
-0.114283
-0.137541
-0.158665
-0.177446
-0.193742
-0.207461
-0.218563
-0.227051
-0.232969
-0.236403
-0.237472
-0.236327
-0.233138
-0.228098
-0.22142
-0.213335
-0.204087
-0.19393
-0.183114
-0.17187
-0.160409
-0.148913
-0.137658
-0.126667
-0.116177
-0.106299
-0.0971219
-0.0887179
-0.0811383
-0.0744214
-0.0685925
-0.0636603
-0.0596232
-0.056464
-0.0541416
-0.0525927
-0.0517256
-0.0514409
-0.0516391
-0.052225
-0.0530987
-0.0541488
-0.0552588
-0.0563277
-0.0572808
-0.0580627
-0.058624
-0.0589192
18.2591
18.2559
18.2502
18.2417
18.232
18.2214
18.2137
18.2026
1.92756
1.957
2.0145
2.08176
2.16863
2.26863
2.37726
2.49155
2.60794
2.72314
2.83402
2.93774
3.03172
3.11361
3.1813
3.23293
3.26684
3.28159
3.27595
3.24893
3.19982
3.12816
3.03372
2.91658
2.77705
2.61577
2.43363
2.23181
2.01176
1.77524
1.52428
1.26114
0.988334
0.708585
0.424875
0.140368
-0.141775
-0.418141
-0.685341
-0.939988
-1.17873
-1.39829
-1.59553
-1.76764
-1.912
-2.02632
-2.10879
-2.15797
-2.17297
-2.15329
-2.0992
-2.01147
-1.89151
-1.74134
-1.56359
-1.36152
-1.13889
-0.899954
-0.64934
-0.392082
-0.133459
0.12112
0.366234
0.596491
0.806746
0.992192
1.14865
1.27255
1.36124
1.41312
1.42758
1.40354
1.34415
1.25206
1.13084
0.984916
0.819398
0.639783
0.451873
0.261347
0.0737008
-0.105579
-0.272614
-0.423412
-0.554913
-0.665008
-0.752344
-0.81637
-0.857343
-0.876126
-0.874174
-0.853525
-0.816312
-0.765028
-0.702281
-0.630726
-0.552953