/*--------------------------------*- C++ -*----------------------------------*\
  =========                 |
  \\      /  F ield         | OpenFOAM: The Open Source CFD Toolbox
   \\    /   O peration     | Website:  https://openfoam.org
    \\  /    A nd           | Version:  12
     \\/     M anipulation  |
\*---------------------------------------------------------------------------*/
FoamFile
{
    format      ascii;
    class       surfaceScalarField;
    location    "4";
    object      phi;
}
// * * * * * * * * * * * * * * * * * * * * * * * * * * * * * * * * * * * * * //

dimensions      [1 0 -1 0 0 0 0];

internalField   nonuniform List<scalar> 
7429
(
7.96068e-05
-7.96069e-05
0.000160246
-8.06392e-05
0.00024177
-8.15239e-05
0.000324172
-8.24026e-05
0.000407432
-8.32603e-05
0.000491547
-8.41149e-05
0.000576505
-8.49582e-05
0.000662311
-8.58059e-05
0.000748963
-8.66523e-05
0.000836483
-8.752e-05
0.000924867
-8.83844e-05
0.00101412
-8.92488e-05
0.00110425
-9.01337e-05
0.00119513
-9.08791e-05
0.00128653
-9.13973e-05
0.00137815
-9.16234e-05
0.00146985
-9.17064e-05
0.00156144
-9.15813e-05
0.00165263
-9.11903e-05
0.0017432
-9.05744e-05
0.00183292
-8.9722e-05
0.00192154
-8.86163e-05
0.00200881
-8.72678e-05
0.00209446
-8.56492e-05
0.00217823
-8.37749e-05
0.00225984
-8.16072e-05
0.002339
-7.91616e-05
0.00241541
-7.64146e-05
0.00248876
-7.33459e-05
0.00255873
-6.9968e-05
0.002625
-6.6269e-05
0.0026872
-6.22044e-05
0.00274502
-5.78215e-05
0.00279804
-5.30189e-05
0.00284586
-4.782e-05
0.00288836
-4.25e-05
0.00292541
-3.70457e-05
0.00295685
-3.14446e-05
0.00298247
-2.56176e-05
0.00300202
-1.95538e-05
0.00301526
-1.32385e-05
0.00302198
-6.71602e-06
0.00302103
9.50162e-07
0.00301153
9.49473e-06
0.00299354
1.79948e-05
0.0029669
2.66401e-05
0.00293147
3.54255e-05
0.00288717
4.43041e-05
0.00283394
5.3226e-05
0.00277182
6.21189e-05
0.0027009
7.09269e-05
0.00262134
7.95589e-05
0.00253339
8.79494e-05
0.00243734
9.60516e-05
0.0023336
0.000103733
0.0022226
0.000111005
0.00210493
0.000117664
0.00198108
0.000123852
0.00185179
0.000129291
0.00171771
0.000134079
0.00157981
0.000137898
0.00143905
0.000140768
0.00129647
0.000142576
0.00115319
0.000143281
0.00101038
0.000142805
0.000869226
0.000141158
0.000731101
0.000138126
0.000597223
0.000133878
0.000468965
0.000128258
0.000347558
0.000121406
0.000234258
0.0001133
0.000130264
0.000103994
3.68031e-05
9.3461e-05
-4.52581e-05
8.20613e-05
-0.000115057
6.9799e-05
-0.000171872
5.68154e-05
-0.000215196
4.33238e-05
-0.000244602
2.9406e-05
-0.000260055
1.54528e-05
-0.000261913
1.85779e-06
-0.000248471
-1.34417e-05
-0.000221558
-2.69128e-05
-0.00018228
-3.92779e-05
-0.000131547
-5.07333e-05
-7.05447e-05
-6.10024e-05
-6.44755e-07
-6.98999e-05
7.65657e-05
-7.72104e-05
0.000159253
-8.2687e-05
0.000245493
-8.62407e-05
0.000333221
-8.77275e-05
0.000420338
-8.71168e-05
0.000504698
-8.43601e-05
0.000584182
-7.94837e-05
0.000656811
-7.2629e-05
0.000720644
-6.38335e-05
0.000773934
-5.32896e-05
0.000815217
-4.12832e-05
0.000843344
-2.81274e-05
0.000857378
-1.40334e-05
0.0008557
1.67772e-06
0.000838156
1.7544e-05
0.000805575
3.25811e-05
0.000758671
4.69038e-05
0.000698258
6.04128e-05
0.000625462
7.27966e-05
0.000541816
8.36462e-05
0.000449094
9.27212e-05
0.000349362
9.9732e-05
0.000244873
0.00010449
0.00013798
0.000106893
3.1109e-05
0.000106871
-7.32936e-05
0.000104403
-0.000172912
9.96188e-05
-0.000265508
9.25957e-05
-0.000349071
8.35625e-05
-0.000421869
7.27984e-05
-0.000482447
6.05776e-05
-0.00052965
4.72038e-05
-0.0005627
3.30497e-05
-0.000581316
1.86162e-05
-0.000585427
4.11118e-06
-0.000574806
-1.06217e-05
-0.000550617
-2.41885e-05
-0.000513833
-3.6784e-05
-0.00046566
-4.81729e-05
-0.000407597
-5.8063e-05
-0.000341285
-6.63126e-05
-0.000268534
-7.27506e-05
-0.000191246
-7.7288e-05
-0.000111306
-7.99405e-05
-3.06489e-05
-8.06567e-05
4.88829e-05
-7.95318e-05
0.000125594
-7.6711e-05
0.000197874
-7.22796e-05
0.00026433
-6.64565e-05
0.000323726
-5.93956e-05
0.000375067
-5.13414e-05
0.000417605
-4.25379e-05
0.0004508
-3.31952e-05
0.000474361
-2.35604e-05
0.000488212
-1.38516e-05
0.000492516
-4.30428e-06
0.00048761
4.90622e-06
0.000474002
1.36085e-05
0.000452402
2.16001e-05
0.000423634
2.87676e-05
0.000388619
3.50152e-05
0.000348371
4.0248e-05
0.000303993
4.4378e-05
0.000256507
4.74863e-05
0.000207114
4.93923e-05
0.000156797
5.0317e-05
0.000106725
5.00725e-05
5.77555e-05
4.89693e-05
1.09611e-05
4.67944e-05
-3.29371e-05
4.38982e-05
-7.3197e-05
4.02599e-05
-0.000109186
3.59889e-05
-0.000140386
3.12003e-05
-0.000166433
2.60471e-05
-0.000187034
2.06003e-05
-0.000202043
1.50089e-05
-0.000211424
9.38154e-06
-0.000215215
3.7914e-06
-0.000213645
-1.57092e-06
-0.000206928
-6.71702e-06
-0.000195399
-1.15284e-05
-0.000179475
-1.59245e-05
-0.000159621
-1.98534e-05
-0.000136357
-2.32645e-05
-0.000110244
-2.61128e-05
-8.18568e-05
-2.83872e-05
-5.18012e-05
-3.00556e-05
-2.0686e-05
-3.11152e-05
1.09004e-05
-3.15864e-05
4.23611e-05
-3.14607e-05
7.31423e-05
-3.07812e-05
0.000102697
-2.95552e-05
0.000130554
-2.78561e-05
0.000156236
-2.5682e-05
0.000179374
-2.31383e-05
0.000199611
-2.02373e-05
0.000216662
-1.70511e-05
0.000230316
-1.36541e-05
0.000240394
-1.0078e-05
0.000246799
-6.40482e-06
0.00024947
-2.6712e-06
0.000248411
1.05895e-06
0.000243667
4.74483e-06
0.00023532
8.34679e-06
0.000223499
1.18209e-05
0.000208387
1.51123e-05
0.000190177
1.82096e-05
0.000169122
2.10552e-05
0.000145475
2.36464e-05
0.000119553
2.59226e-05
9.16735e-05
2.78792e-05
6.21948e-05
2.94787e-05
3.14979e-05
3.06969e-05
3.14979e-05
7.60286e-05
-0.000155636
0.000153015
-0.000157626
0.000230822
-0.000159332
0.000309443
-0.000161024
0.000388863
-0.00016268
0.000469046
-0.000164298
0.000549958
-0.00016587
0.000631557
-0.000167405
0.000713873
-0.000168968
0.000796983
-0.000170631
0.000880883
-0.000172285
0.00096567
-0.000174036
0.00105148
-0.000175949
0.00113806
-0.000177454
0.00122518
-0.000178523
0.00131262
-0.000179063
0.00140003
-0.000179108
0.00148719
-0.000178747
0.00157395
-0.00017795
0.00166013
-0.000176749
0.00174552
-0.000175119
0.00182996
-0.000173051
0.00191324
-0.000170547
0.00199514
-0.000167557
0.00207546
-0.000164087
0.00215389
-0.000160037
0.00223019
-0.000155463
0.00230398
-0.00015021
0.00237497
-0.000144337
0.00244279
-0.000137786
0.00250695
-0.000130431
0.00256704
-0.00012229
0.00262262
-0.000113405
0.00267381
-0.000104206
0.00272082
-9.48315e-05
0.00276339
-8.50679e-05
0.00280117
-7.48229e-05
0.0028338
-6.40751e-05
0.00286089
-5.2714e-05
0.0028821
-4.07579e-05
0.0028971
-2.8243e-05
0.00290556
-1.51707e-05
0.00290651
-3.75538e-09
0.00289833
1.76792e-05
0.00288128
3.50367e-05
0.00285528
5.26484e-05
0.00282018
7.05231e-05
0.0027759
8.85806e-05
0.00272239
0.000106736
0.00265966
0.000124853
0.00258778
0.000142804
0.00250689
0.000160449
0.00241719
0.00017765
0.00231898
0.000194259
0.0022126
0.000210111
0.00209846
0.000225152
0.00197711
0.000239013
0.0018491
0.000251856
0.00171528
0.00026312
0.00157634
0.000273016
0.00143338
0.000280854
0.00128743
0.00028672
0.00113965
0.000290356
0.000991289
0.000291642
0.000843652
0.000290442
0.000698145
0.000286665
0.000556067
0.000280204
0.000418887
0.000271058
0.000288048
0.000259097
0.000164967
0.000244487
5.0839e-05
0.000227429
-5.29466e-05
0.00020778
-0.000145367
0.000185882
-0.00022535
0.000162044
-0.000291908
0.000136357
-0.000344276
0.000109184
-0.000381904
8.09519e-05
-0.000404668
5.217e-05
-0.000412442
2.32265e-05
-0.000403353
-7.23147e-06
-0.000380123
-3.66717e-05
-0.000343026
-6.40097e-05
-0.000292576
-8.97281e-05
-0.000229994
-0.000113315
-0.000156697
-0.000134299
-7.43154e-05
-0.000152281
1.5231e-05
-0.000166757
0.000110062
-0.000177518
0.000208014
-0.000184192
0.000306831
-0.000186545
0.000404243
-0.000184528
0.000497918
-0.000178035
0.000585582
-0.000167149
0.00066505
-0.000152097
0.000734407
-0.00013319
0.000791775
-0.000110658
0.000835635
-8.51433e-05
0.000864902
-5.73941e-05
0.000878382
-2.75138e-05
0.000875092
4.96855e-06
0.00085544
3.71958e-05
0.000819929
6.80917e-05
0.0007692
9.76331e-05
0.000704213
0.0001254
0.000626463
0.000150547
0.000537724
0.000172385
0.000440041
0.000190405
0.000335667
0.000204106
0.000227113
0.000213043
0.000116833
0.000217172
7.45346e-06
0.000216251
-9.85756e-05
0.000210432
-0.000198826
0.000199869
-0.000291072
0.000184842
-0.000373389
0.000165879
-0.000444047
0.000143457
-0.000501713
0.000118243
-0.000545389
9.08805e-05
-0.000574487
6.21468e-05
-0.000588844
3.29736e-05
-0.000588495
3.76252e-06
-0.000573958
-2.51588e-05
-0.000546114
-5.20325e-05
-0.000506049
-7.68489e-05
-0.000455198
-9.90241e-05
-0.000395127
-0.000118134
-0.000327597
-0.000133842
-0.000254449
-0.000145899
-0.000177551
-0.000154186
-9.88178e-05
-0.000158673
-2.01448e-05
-0.00015933
5.67821e-05
-0.000156459
0.000130297
-0.000150226
0.000198948
-0.00014093
0.000261435
-0.000128943
0.000316733
-0.000114694
0.000363926
-9.85339e-05
0.00040241
-8.10226e-05
0.000431785
-6.25698e-05
0.000451859
-4.36347e-05
0.000462671
-2.46638e-05
0.000464432
-6.0647e-06
0.000457604
1.17342e-05
0.000442736
2.8476e-05
0.000420547
4.37892e-05
0.000391824
5.74912e-05
0.000357517
6.93222e-05
0.00031861
7.91543e-05
0.000276044
8.69443e-05
0.000230988
9.25424e-05
0.000184343
9.60376e-05
0.000137254
9.74055e-05
9.05308e-05
9.67956e-05
4.52645e-05
9.42356e-05
2.04298e-06
9.00159e-05
-3.82231e-05
8.41643e-05
-7.49165e-05
7.69534e-05
-0.00010754
6.86124e-05
-0.00013564
5.92999e-05
-0.000158888
4.92953e-05
-0.00017706
3.87722e-05
-0.000190081
2.80303e-05
-0.000197861
1.71612e-05
-0.000200606
6.53648e-06
-0.000198418
-3.75877e-06
-0.000191569
-1.3566e-05
-0.000180382
-2.27154e-05
-0.000165243
-3.10635e-05
-0.000146593
-3.85035e-05
-0.000124916
-4.49411e-05
-0.000100732
-5.02974e-05
-7.45718e-05
-5.45471e-05
-4.69689e-05
-5.76585e-05
-1.84927e-05
-5.95914e-05
1.03248e-05
-6.04039e-05
3.8956e-05
-6.00918e-05
6.69044e-05
-5.87296e-05
9.36775e-05
-5.63283e-05
0.000118842
-5.30206e-05
0.000141993
-4.88326e-05
0.000162795
-4.39412e-05
0.000180928
-3.83702e-05
0.00019617
-3.22931e-05
0.000208316
-2.58002e-05
0.000217217
-1.89782e-05
0.000222804
-1.19921e-05
0.000225032
-4.89924e-06
0.000223916
2.17499e-06
0.000219478
9.18233e-06
0.000211825
1.59999e-05
0.000201082
2.25645e-05
0.00018739
2.88041e-05
0.000170943
3.46561e-05
0.000151952
4.00469e-05
0.000130668
4.49299e-05
0.000107348
4.92428e-05
8.22907e-05
5.29365e-05
5.58168e-05
5.59527e-05
2.82678e-05
5.82458e-05
5.97657e-05
7.42897e-05
-0.000229926
0.000149286
-0.000232622
0.000225003
-0.000235049
0.000301345
-0.000237366
0.000378249
-0.000239584
0.000455682
-0.000241732
0.000533638
-0.000243827
0.000612136
-0.000245904
0.000691161
-0.000247994
0.000770736
-0.000250206
0.000850965
-0.000252513
0.000932114
-0.000255185
0.00101436
-0.000258196
0.00109797
-0.000261065
0.00118247
-0.000263023
0.00126745
-0.000264043
0.00135268
-0.000264341
0.00143788
-0.000263938
0.00152286
-0.000262932
0.00160739
-0.000261286
0.00169132
-0.000259044
0.00177444
-0.000256172
0.00185658
-0.000252684
0.00193745
-0.000248434
0.00201695
-0.000243581
0.00209471
-0.000237802
0.00217056
-0.000231316
0.00224426
-0.000223903
0.0023155
-0.000215575
0.0023841
-0.000206388
0.00244959
-0.000195921
0.00251186
-0.000184563
0.00257076
-0.000172308
0.00262632
-0.000159767
0.00267831
-0.000146816
0.00272636
-0.000133121
0.00277011
-0.000118574
0.00280898
-0.000102942
0.00284245
-8.61873e-05
0.00287001
-6.83173e-05
0.00289096
-4.91883e-05
0.00290478
-2.89934e-05
0.00291202
-7.23962e-06
0.00290818
2.15143e-05
0.00289478
4.84407e-05
0.00287151
7.59159e-05
0.00283806
0.000103976
0.00279417
0.000132465
0.00273968
0.000161232
0.00267451
0.000190021
0.00259861
0.000218701
0.00251209
0.000246966
0.0024151
0.000274647
0.00230786
0.000301496
0.00219076
0.000327207
0.00206424
0.000351672
0.00192898
0.000374275
0.00178577
0.000395067
0.00163564
0.000413253
0.00147959
0.000429068
0.00131882
0.000441622
0.00115467
0.000450869
0.000988526
0.000456501
0.000822006
0.000458162
0.000656552
0.000455896
0.000494002
0.000449215
0.000335771
0.000438435
0.00018375
0.00042308
3.94622e-05
0.000403385
-9.52944e-05
0.000379243
-0.000218991
0.000351125
-0.00033003
0.000318818
-0.000427055
0.000282907
-0.000508845
0.000243835
-0.000574464
0.000201976
-0.000623032
0.000157752
-0.000654002
0.000111922
-0.000667202
6.53696e-05
-0.000662563
1.85876e-05
-0.000638646
-3.11477e-05
-0.000598197
-7.71214e-05
-0.000541524
-0.000120683
-0.000469781
-0.000161471
-0.000384475
-0.000198621
-0.000287186
-0.000231587
-0.000180007
-0.00025946
-6.51765e-05
-0.000281587
5.47254e-05
-0.00029742
0.000177166
-0.000306633
0.000299467
-0.000308847
0.000418842
-0.000303903
0.000532492
-0.000291685
0.000637893
-0.00027255
0.000732467
-0.000246671
0.000814042
-0.000214765
0.000880486
-0.000177101
0.000930416
-0.000135073
0.000962296
-8.92743e-05
0.000975229
-4.04474e-05
0.000968442
1.1756e-05
0.00094289
6.27472e-05
0.000899003
0.000111979
0.000837615
0.00015902
0.000760271
0.000202744
0.000668897
0.00024192
0.000565761
0.000275521
0.000453457
0.000302708
0.000334755
0.000322808
0.000212516
0.000335283
8.97012e-05
0.000339987
-3.07701e-05
0.000336722
-0.000145998
0.00032566
-0.000253557
0.000307428
-0.00035093
0.000282215
-0.000436184
0.000251134
-0.000507743
0.000215016
-0.00056439
0.000174889
-0.000605281
0.000131772
-0.000629939
8.68042e-05
-0.000638296
4.13309e-05
-0.000630901
-3.63274e-06
-0.000609133
-4.69264e-05
-0.000573643
-8.75225e-05
-0.000525857
-0.000124635
-0.000467519
-0.000157362
-0.000400459
-0.000185194
-0.000326696
-0.000207605
-0.000248227
-0.000224368
-0.000167029
-0.000235384
-8.50775e-05
-0.000240625
-4.37149e-06
-0.000240036
7.34934e-05
-0.000234324
0.000146884
-0.000223617
0.00021449
-0.000208536
0.000275117
-0.000189571
0.000327817
-0.000167394
0.000371886
-0.000142603
0.000406867
-0.000116003
0.000432465
-8.81674e-05
0.000448734
-5.99044e-05
0.000455786
-3.17155e-05
0.00045404
-4.31844e-06
0.000444047
2.17266e-05
0.000426442
4.60811e-05
0.000401998
6.82332e-05
0.000371537
8.79529e-05
0.000336101
0.000104758
0.000296592
0.000118663
0.000254081
0.000129455
0.000209554
0.00013707
0.00016401
0.000141581
0.000118401
0.000143014
7.36354e-05
0.000141561
3.04789e-05
0.000137392
-1.01849e-05
0.00013068
-4.78308e-05
0.00012181
-8.1836e-05
0.000110959
-0.00011179
9.8566e-05
-0.000137278
8.47881e-05
-0.000158081
7.00986e-05
-0.000174019
5.47105e-05
-0.000185052
3.90633e-05
-0.000191191
2.32999e-05
-0.000192584
7.9295e-06
-0.000189435
-6.90823e-06
-0.000182001
-2.09996e-05
-0.000170606
-3.41102e-05
-0.000155643
-4.60266e-05
-0.000137521
-5.66252e-05
-0.000116727
-6.57359e-05
-9.37233e-05
-7.33007e-05
-6.90267e-05
-7.92437e-05
-4.31342e-05
-8.3551e-05
-1.6539e-05
-8.61865e-05
1.02401e-05
-8.7183e-05
3.67387e-05
-8.65904e-05
6.24858e-05
-8.44767e-05
8.70734e-05
-8.09159e-05
0.000110088
-7.60354e-05
0.000131193
-6.9937e-05
0.000150054
-6.28029e-05
0.000166426
-5.47421e-05
0.000180107
-4.5974e-05
0.000190907
-3.66005e-05
0.000198775
-2.68462e-05
0.00020359
-1.68071e-05
0.000205358
-6.66664e-06
0.000204086
3.44698e-06
0.000199819
1.34491e-05
0.000192659
2.31594e-05
0.000182704
3.25203e-05
0.000170129
4.13791e-05
0.000155082
4.97031e-05
0.000137762
5.73666e-05
0.000118397
6.42952e-05
9.72201e-05
7.04194e-05
7.45021e-05
7.56545e-05
5.05195e-05
7.99353e-05
2.55781e-05
8.31872e-05
8.53438e-05
7.79317e-05
-0.000307858
0.000156475
-0.000311166
0.000235841
-0.000314415
0.00031598
-0.000317504
0.000396814
-0.000320419
0.000478224
-0.000323141
0.000560052
-0.000325656
0.000642168
-0.000328019
0.000724441
-0.000330267
0.000807155
-0.00033292
0.000891546
-0.000336905
0.000978305
-0.000341944
0.00106484
-0.000344733
0.00114933
-0.000345549
0.00123137
-0.00034507
0.00131129
-0.000343955
0.0013893
-0.000342356
0.00146582
-0.000340459
0.00154142
-0.000338533
0.00161656
-0.000336423
0.00169167
-0.000334151
0.00176721
-0.000331718
0.00184344
-0.000328917
0.00192053
-0.000325516
0.00199843
-0.000321487
0.00207696
-0.000316333
0.00215571
-0.000310061
0.00223428
-0.000302475
0.00231175
-0.000293045
0.0023874
-0.000282045
0.00246058
-0.000269095
0.0025301
-0.000254084
0.00259718
-0.000239384
0.00266195
-0.000224546
0.00272394
-0.000208801
0.00278272
-0.000191902
0.00283748
-0.000173333
0.00288741
-0.000152877
0.00293174
-0.000130509
0.00296953
-0.000106109
0.00299984
-7.94975e-05
0.00302208
-5.12317e-05
0.00303462
-1.97868e-05
0.0030362
1.99408e-05
0.00302583
5.88109e-05
0.0030035
9.82436e-05
0.00296905
0.000138426
0.00292227
0.000179246
0.0028629
0.000220601
0.00279082
0.000262102
0.00270592
0.000303595
0.00260826
0.00034463
0.00249794
0.00038497
0.00237518
0.000424256
0.00224043
0.000461956
0.00209437
0.000497732
0.00193771
0.000530928
0.00177142
0.000561364
0.00159687
0.000587798
0.00141518
0.000610758
0.00122813
0.000628674
0.00103716
0.00064184
0.000844094
0.000649566
0.000650995
0.000651261
0.000459593
0.000647298
0.000271897
0.000636911
9.01469e-05
0.000620185
-8.36567e-05
0.000596883
-0.000247262
0.00056699
-0.000398708
0.00053069
-0.000536168
0.000488584
-0.000657825
0.000440476
-0.000762046
0.000387128
-0.000847613
0.000329401
-0.000913191
0.000267554
-0.000958011
0.000202571
-0.000981293
0.000135205
-0.000982802
6.68781e-05
-0.000960642
-3.57212e-06
-0.000918858
-7.29318e-05
-0.000856807
-0.000139172
-0.000775409
-0.000202081
-0.000676325
-0.000260555
-0.000561328
-0.000313618
-0.000432933
-0.000359982
-0.00029351
-0.000398883
-0.000146191
-0.000428907
6.12171e-06
-0.000449733
0.000160171
-0.000460681
0.00031261
-0.000461286
0.000460047
-0.00045134
0.00059926
-0.000430898
0.000727113
-0.000400403
0.000840583
-0.000360141
0.000937206
-0.000311387
0.00101442
-0.000254314
0.00107091
-0.000191568
0.0011044
-0.00012276
0.00111577
-5.18215e-05
0.00110327
2.42619e-05
0.00106845
9.75606e-05
0.00101188
0.000168552
0.000935028
0.000235874
0.000840074
0.000297698
0.000729566
0.000352428
0.000606421
0.000398666
0.000473896
0.000435233
0.000335325
0.00046138
0.000194389
0.000476218
5.45743e-05
0.000479802
-8.09616e-05
0.000472258
-0.000208832
0.00045353
-0.000326319
0.000424915
-0.000430837
0.000386733
-0.000520432
0.000340728
-0.000593459
0.000288044
-0.000648814
0.000230244
-0.000685975
0.000168933
-0.000704944
0.000105774
-0.000706056
4.24423e-05
-0.000690272
-1.9417e-05
-0.000658821
-7.83771e-05
-0.000613211
-0.000133133
-0.000555297
-0.00018255
-0.000487067
-0.000225592
-0.000410771
-0.000261491
-0.000328535
-0.000289841
-0.000242672
-0.00031023
-0.000155326
-0.00032273
-6.85559e-05
-0.000327395
1.57347e-05
-0.000324326
9.57922e-05
-0.000314381
0.000170194
-0.000298019
0.000237498
-0.000275839
0.000296801
-0.000248874
0.000347263
-0.000217856
0.00038839
-0.000183731
0.000419853
-0.000147465
0.000441683
-0.000109998
0.000453859
-7.20798e-05
0.000456875
-3.47321e-05
0.000451275
1.28235e-06
0.000437554
3.54475e-05
0.000416549
6.70858e-05
0.000389178
9.56041e-05
0.000356403
0.000120728
0.000319031
0.00014213
0.000278266
0.000159428
0.000235002
0.00017272
0.000190374
0.000181698
0.000145193
0.000186762
0.000100488
0.00018772
5.69914e-05
0.000185058
1.56165e-05
0.000178767
-2.32552e-05
0.000169552
-5.87725e-05
0.000157327
-9.05492e-05
0.000142735
-0.000118169
0.000126186
-0.000141329
0.000107948
-0.000159901
8.86708e-05
-0.000173741
6.85503e-05
-0.000182888
4.82103e-05
-0.000187379
2.7791e-05
-0.00018742
7.97114e-06
-0.000183202
-1.11266e-05
-0.000175028
-2.91742e-05
-0.000163225
-4.59124e-05
-0.000148187
-6.10648e-05
-0.000130326
-7.44868e-05
-0.000110073
-8.59884e-05
-8.79192e-05
-9.54547e-05
-6.43253e-05
-0.000102838
-3.97549e-05
-0.000108121
-1.46768e-05
-0.000111265
1.0442e-05
-0.000112302
3.51791e-05
-0.000111327
5.91012e-05
-0.000108399
8.1841e-05
-0.000103656
0.00010303
-9.72245e-05
0.00012236
-8.92674e-05
0.000139543
-7.99858e-05
0.000154381
-6.95796e-05
0.000166678
-5.82706e-05
0.000176312
-4.62349e-05
0.000183209
-3.37432e-05
0.000187316
-2.09142e-05
0.000188633
-7.98395e-06
0.000187183
4.89791e-06
0.000183018
1.76138e-05
0.000176233
2.99446e-05
0.00016696
4.17929e-05
0.000155286
5.30528e-05
0.000141433
6.3556e-05
0.000125559
7.32413e-05
0.000107829
8.20245e-05
8.84951e-05
8.97537e-05
6.77729e-05
9.63768e-05
4.59412e-05
0.000101767
2.32528e-05
0.000105876
0.000108597
8.35951e-05
-0.000391453
0.000166824
-0.000394395
0.00024959
-0.000397182
0.000331425
-0.00039934
0.000411985
-0.000400979
0.00049141
-0.000402567
0.000571306
-0.000405551
0.000654445
-0.000411159
0.000739594
-0.000415416
0.000823341
-0.000416668
0.000903484
-0.000417048
0.000978687
-0.000417147
0.00105118
-0.000417231
0.00112291
-0.000417276
0.00119518
-0.000417339
0.00126858
-0.00041735
0.00134336
-0.000417137
0.00141956
-0.000416667
0.0014969
-0.000415868
0.00157512
-0.000414641
0.00165392
-0.000412954
0.00173308
-0.000410877
0.00181243
-0.000408265
0.00189211
-0.000405198
0.00197175
-0.00040113
0.0020512
-0.000395782
0.00212941
-0.000388273
0.00220457
-0.000377628
0.00227477
-0.000363249
0.00234336
-0.000350633
0.00241381
-0.000339552
0.00248819
-0.00032846
0.00256494
-0.000316137
0.0026425
-0.000302106
0.00271942
-0.000285723
0.00279436
-0.000266837
0.002866
-0.000244979
0.00293331
-0.000220178
0.00299492
-0.000192119
0.00304931
-0.000160505
0.0030956
-0.000125784
0.00313059
-8.62241e-05
0.0031564
-4.55998e-05
0.00316966
6.6869e-06
0.00316873
5.97361e-05
0.00315375
0.000113229
0.00312421
0.000167962
0.00307953
0.000223931
0.00301936
0.000280764
0.00294335
0.000338113
0.00285132
0.00039563
0.00274306
0.000452884
0.00261896
0.000509069
0.00247943
0.000563784
0.00232483
0.000616558
0.00215605
0.000666511
0.00197463
0.000712353
0.00178163
0.000754358
0.00157854
0.000790889
0.00136726
0.000822038
0.00114969
0.000846245
0.000927565
0.000863968
0.000703479
0.000873652
0.000479359
0.000875381
0.000258002
0.000868656
4.18263e-05
0.000853086
-0.000166713
0.000828725
-0.000365027
0.000795198
-0.000550643
0.000752606
-0.000721174
0.000701221
-0.00087441
0.00064182
-0.0010082
0.000574264
-0.00112076
0.000499688
-0.00121013
0.000418773
-0.00127518
0.000332601
-0.00131477
0.00024216
-0.00132899
0.00014943
-0.00131685
5.47333e-05
-0.00127793
-4.24931e-05
-0.00121481
-0.000136049
-0.00112763
-0.000226346
-0.00101789
-0.000311828
-0.00088755
-0.000390893
-0.000739239
-0.000461929
-0.000575773
-0.000523448
-0.000400464
-0.000574192
-0.00021682
-0.000612551
-2.85748e-05
-0.000637978
0.00016034
-0.000649597
0.000345917
-0.000646862
0.000524104
-0.000629527
0.000690801
-0.000597595
0.00084257
-0.000552172
0.000975778
-0.00049335
0.00108732
-0.000422924
0.00117557
-0.000342568
0.00123686
-0.000252859
0.00127211
-0.000158011
0.00127832
-5.80267e-05
0.00125782
4.47591e-05
0.00121075
0.000144634
0.00113824
0.000241062
0.0010426
0.000331513
0.000926612
0.000413682
0.000793521
0.000485519
0.000647158
0.000545029
0.000491659
0.000590732
0.000331026
0.000622013
0.000169186
0.000638058
1.05685e-05
0.000638419
-0.000141095
0.000623922
-0.000282184
0.000594619
-0.000409793
0.000552524
-0.000521157
0.000498097
-0.000614295
0.000433866
-0.00068783
0.000361579
-0.000740884
0.000283298
-0.000773257
0.000201305
-0.000785202
0.000117719
-0.000777611
3.48519e-05
-0.000751789
-4.52389e-05
-0.000709533
-0.000120634
-0.000652754
-0.000189911
-0.000583699
-0.000251605
-0.000504795
-0.000304496
-0.000418534
-0.000347752
-0.000327404
-0.00038097
-0.000233872
-0.000403762
-0.000140241
-0.000416362
-4.86117e-05
-0.000419024
3.91235e-05
-0.000412061
0.000121265
-0.000396523
0.000196348
-0.000373102
0.000263261
-0.000342752
0.000321005
-0.000306618
0.000369034
-0.000265885
0.000407089
-0.000221786
0.000434873
-0.00017525
0.000452644
-0.00012777
0.000460722
-8.0157e-05
0.000459517
-3.35275e-05
0.000449852
1.09477e-05
0.00043241
5.28893e-05
0.000408098
9.1398e-05
0.000377758
0.000125944
0.000342478
0.000156008
0.000303316
0.000181292
0.000261202
0.000201542
0.000217289
0.000216633
0.000172298
0.000226689
0.000127539
0.00023152
8.34531e-05
0.000231806
4.11492e-05
0.000227362
1.13015e-06
0.000218786
-3.58585e-05
0.00020654
-6.93658e-05
0.000190835
-9.90423e-05
0.000172412
-0.000124487
0.00015163
-0.000145517
0.000128978
-0.000162007
0.000105161
-0.000173881
8.04244e-05
-0.000181254
5.55832e-05
-0.000184223
3.07606e-05
-0.000182961
6.70932e-06
-0.000177746
-1.63424e-05
-0.000168851
-3.80685e-05
-0.000156642
-5.8122e-05
-0.000141491
-7.62151e-05
-0.000123813
-9.2165e-05
-0.000104037
-0.000105764
-8.26168e-05
-0.000116875
-5.99854e-05
-0.000125469
-3.65919e-05
-0.000131515
-1.28637e-05
-0.000134993
1.07903e-05
-0.000135956
3.39483e-05
-0.000134485
5.62543e-05
-0.000130705
7.73472e-05
-0.000124749
9.69057e-05
-0.000116783
0.000114643
-0.000107004
0.000130334
-9.56766e-05
0.000143778
-8.30237e-05
0.00015483
-6.93232e-05
0.00016341
-5.4815e-05
0.000169448
-3.97807e-05
0.000172927
-2.43934e-05
0.000173837
-8.89409e-06
0.000172205
6.5301e-06
0.000168139
2.16797e-05
0.000161679
3.64041e-05
0.000152958
5.05146e-05
0.000142136
6.38744e-05
0.000129324
7.63677e-05
0.000114697
8.78683e-05
9.84372e-05
9.82847e-05
8.07287e-05
0.000107462
6.17932e-05
0.000115312
4.18668e-05
0.000121693
2.11861e-05
0.000126556
0.000129783
9.04953e-05
-0.000481948
0.000181265
-0.000485164
0.000274809
-0.000490726
0.000371988
-0.000496519
0.000473661
-0.000502652
0.00058068
-0.000509586
0.000690529
-0.0005154
0.00080397
-0.0005246
0.000916058
-0.000527504
0.00102936
-0.000529974
0.00113697
-0.000524653
0.00123566
-0.000515841
0.00132213
-0.000503695
0.0013946
-0.000489752
0.00145238
-0.000475117
0.00149644
-0.000461413
0.00152851
-0.000449202
0.00155138
-0.000439538
0.00156856
-0.000433051
0.00158432
-0.000430404
0.00160325
-0.000431879
0.00162952
-0.000437151
0.00166618
-0.000444925
0.00171536
-0.000454379
0.00177679
-0.000462555
0.00185177
-0.000470768
0.00193557
-0.000472072
0.00202964
-0.000471701
0.00212582
-0.000459428
0.0022258
-0.000450607
0.00232593
-0.000439681
0.00242763
-0.000430161
0.00253062
-0.000419134
0.00263455
-0.000406027
0.00273843
-0.00038961
0.0028403
-0.000368704
0.00293848
-0.000343155
0.00303059
-0.000312295
0.003115
-0.000276531
0.00318961
-0.000235111
0.00325393
-0.000190104
0.00330562
-0.000137913
0.00334087
-8.08499e-05
0.00336591
-1.83532e-05
0.00337197
5.36789e-05
0.00336105
0.000124148
0.00333262
0.000196391
0.00328619
0.000270359
0.0032212
0.00034575
0.00313714
0.000422173
0.00303387
0.000498908
0.00291162
0.000575134
0.00277035
0.000650337
0.00261019
0.000723944
0.00243288
0.000793863
0.00223906
0.000860333
0.00203036
0.000921058
0.00180811
0.000976603
0.00157455
0.00102445
0.00133129
0.00106531
0.00108068
0.00109685
0.000825547
0.0011191
0.000568229
0.00113097
0.000311985
0.00113162
5.93415e-05
0.0011213
-0.000186635
0.00109906
-0.00042306
0.00106515
-0.000646883
0.00101902
-0.00085521
0.000960933
-0.00104516
0.000891171
-0.00121428
0.000810945
-0.00136005
0.000720028
-0.00148013
0.000619768
-0.00157307
0.000511718
-0.00163715
0.000396682
-0.00167139
0.000276392
-0.0016746
0.000152647
-0.00164716
2.72853e-05
-0.00159016
-9.94886e-05
-0.00150412
-0.000222086
-0.00139027
-0.000340201
-0.00125064
-0.00045146
-0.00108767
-0.000553862
-0.000904529
-0.000645067
-0.000704661
-0.000723316
-0.000491895
-0.000786958
-0.000270664
-0.000833782
-4.56228e-05
-0.00086302
0.000178542
-0.000873761
0.000397117
-0.000865438
0.000605796
-0.000838205
0.000799563
-0.000791363
0.000973927
-0.000726536
0.00112621
-0.000645636
0.0012516
-0.000548307
0.00134757
-0.000438544
0.00141377
-0.000319055
0.00144633
-0.00019057
0.00144657
-5.82685e-05
0.00141559
7.57414e-05
0.00135369
0.000206529
0.00126296
0.000331796
0.00114645
0.000448027
0.00100756
0.000552568
0.000850623
0.000642457
0.00068012
0.000715531
0.000500681
0.000770172
0.00031735
0.000805343
0.000135184
0.000820225
-4.14043e-05
0.000815008
-0.000208173
0.000790691
-0.000361417
0.000747863
-0.000497541
0.000688647
-0.00061411
0.000614666
-0.00070916
0.000528916
-0.000781552
0.000433971
-0.000830633
0.000332379
-0.000856663
0.000227335
-0.000860332
0.000121389
-0.000843033
1.75523e-05
-0.000806611
-8.16603e-05
-0.000753134
-0.00017411
-0.00068508
-0.000257966
-0.000605044
-0.00033164
-0.000515848
-0.000393693
-0.000420229
-0.000443371
-0.000320894
-0.000480305
-0.000220506
-0.000504151
-0.000121489
-0.000515378
-2.59828e-05
-0.000514531
6.434e-05
-0.000502384
0.000147663
-0.000479846
0.000222634
-0.000448073
0.000288329
-0.000408447
0.000344096
-0.000362385
0.000389225
-0.000311013
0.000423693
-0.000256254
0.000447803
-0.000199359
0.000461405
-0.000141372
0.00046547
-8.42225e-05
0.000460194
-2.82507e-05
0.000446752
2.43889e-05
0.000425803
7.38385e-05
0.000398354
0.000118847
0.00036552
0.000158777
0.000328097
0.000193431
0.000287366
0.000222022
0.000244343
0.000244565
0.000199834
0.000261142
0.000155103
0.00027142
0.000110593
0.00027603
6.75867e-05
0.000274813
2.65612e-05
0.000268387
-1.183e-05
0.000257177
-4.70315e-05
0.000241742
-7.86381e-05
0.000222441
-0.000106226
0.000199999
-0.000129563
0.000174968
-0.000148564
0.000147978
-0.000163064
0.000119661
-0.000173197
9.05575e-05
-0.000178935
6.13213e-05
-0.000180523
3.23485e-05
-0.00017811
4.29657e-06
-0.000172038
-2.24144e-05
-0.000162524
-4.75824e-05
-0.000150013
-7.06337e-05
-0.000134831
-9.13965e-05
-0.000117401
-0.000109596
-9.81456e-05
-0.000125019
-7.74609e-05
-0.00013756
-5.57765e-05
-0.000147153
-3.3525e-05
-0.000153766
-1.1087e-05
-0.000157431
1.11735e-05
-0.000158216
3.2857e-05
-0.000156169
5.36399e-05
-0.000151488
7.32154e-05
-0.000144324
9.1254e-05
-0.000134822
0.000107546
-0.000123296
0.00012186
-0.000109991
0.000134039
-9.52021e-05
0.000143958
-7.92425e-05
0.000151565
-6.24215e-05
0.000156825
-4.50413e-05
0.000159722
-2.729e-05
0.000160277
-9.44943e-06
0.000158522
8.28545e-06
0.000154529
2.56723e-05
0.000148384
4.25491e-05
0.00014022
5.86787e-05
0.00013014
7.39543e-05
0.000118304
8.82037e-05
0.000104846
0.000101326
8.99061e-05
0.000113225
7.36828e-05
0.000123685
5.63683e-05
0.000132627
3.81714e-05
0.00013989
1.93118e-05
0.000145416
0.000149094
0.000165122
-0.00064707
0.000326656
-0.000646699
0.000489537
-0.000653606
0.000647568
-0.000654551
0.000795625
-0.00065071
0.000929183
-0.000643144
0.00104075
-0.000626967
0.00112848
-0.000612326
0.00117185
-0.000570883
0.00118404