/*--------------------------------*- C++ -*----------------------------------*\
  =========                 |
  \\      /  F ield         | OpenFOAM: The Open Source CFD Toolbox
   \\    /   O peration     | Website:  https://openfoam.org
    \\  /    A nd           | Version:  12
     \\/     M anipulation  |
\*---------------------------------------------------------------------------*/
FoamFile
{
    format      ascii;
    class       volVectorField;
    location    "4";
    object      U;
}
// * * * * * * * * * * * * * * * * * * * * * * * * * * * * * * * * * * * * * //

dimensions      [0 1 -1 0 0 0 0];

internalField   nonuniform List<vector> 
3829
(
(3.17665e-06 -3.54822e-05 0)
(9.57288e-06 -3.55377e-05 0)
(1.60418e-05 -3.54827e-05 0)
(2.25857e-05 -3.53993e-05 0)
(2.92005e-05 -3.52908e-05 0)
(3.58812e-05 -3.51474e-05 0)
(4.26185e-05 -3.49731e-05 0)
(4.94357e-05 -3.47743e-05 0)
(5.63296e-05 -3.45325e-05 0)
(6.32919e-05 -3.42676e-05 0)
(7.03188e-05 -3.39641e-05 0)
(7.73952e-05 -3.36278e-05 0)
(8.45603e-05 -3.32549e-05 0)
(9.17948e-05 -3.28449e-05 0)
(9.90705e-05 -3.2394e-05 0)
(0.000106383 -3.1905e-05 0)
(0.000113708 -3.13772e-05 0)
(0.000121027 -3.08013e-05 0)
(0.000128326 -3.01817e-05 0)
(0.000135583 -2.9519e-05 0)
(0.000142782 -2.8812e-05 0)
(0.000149907 -2.80596e-05 0)
(0.00015693 -2.72613e-05 0)
(0.000163834 -2.64159e-05 0)
(0.000170601 -2.5522e-05 0)
(0.000177205 -2.45779e-05 0)
(0.000183623 -2.35823e-05 0)
(0.000189838 -2.25369e-05 0)
(0.000195813 -2.14338e-05 0)
(0.000201571 -2.02785e-05 0)
(0.000207023 -1.90756e-05 0)
(0.000212119 -1.7816e-05 0)
(0.000216913 -1.65049e-05 0)
(0.000221344 -1.51481e-05 0)
(0.00022538 -1.37467e-05 0)
(0.000228983 -1.22977e-05 0)
(0.000232121 -1.07944e-05 0)
(0.000234852 -9.23021e-06 0)
(0.000237156 -7.61593e-06 0)
(0.000238965 -5.95292e-06 0)
(0.000240261 -4.23484e-06 0)
(0.000241069 -2.47595e-06 0)
(0.0002413 -6.78209e-07 0)
(0.000240866 1.15798e-06 0)
(0.000239776 3.01604e-06 0)
(0.000237991 4.88677e-06 0)
(0.000235512 6.75911e-06 0)
(0.000232327 8.62227e-06 0)
(0.000228431 1.04647e-05 0)
(0.000223824 1.22742e-05 0)
(0.000218513 1.40377e-05 0)
(0.0002125 1.57432e-05 0)
(0.000205797 1.73756e-05 0)
(0.000198448 1.89262e-05 0)
(0.000190481 2.03691e-05 0)
(0.000181901 2.16952e-05 0)
(0.000172757 2.28901e-05 0)
(0.000163115 2.39404e-05 0)
(0.000152924 2.48305e-05 0)
(0.000142408 2.55405e-05 0)
(0.000131617 2.60723e-05 0)
(0.000120459 2.6398e-05 0)
(0.000109128 2.65002e-05 0)
(9.76897e-05 2.64159e-05 0)
(8.61694e-05 2.61015e-05 0)
(7.49076e-05 2.55908e-05 0)
(6.38169e-05 2.4818e-05 0)
(5.29078e-05 2.38519e-05 0)
(4.24246e-05 2.26579e-05 0)
(3.24754e-05 2.12875e-05 0)
(2.31416e-05 1.96967e-05 0)
(1.44662e-05 1.79699e-05 0)
(6.56914e-06 1.60542e-05 0)
(-5.00234e-07 1.40252e-05 0)
(-6.6331e-06 1.18932e-05 0)
(-1.17502e-05 9.69979e-06 0)
(-1.56818e-05 7.46875e-06 0)
(-1.85789e-05 5.1929e-06 0)
(-2.03673e-05 2.95256e-06 0)
(-2.10304e-05 7.40888e-07 0)
(-2.05367e-05 -1.33681e-06 0)
(-1.89086e-05 -3.33516e-06 0)
(-1.62319e-05 -5.15676e-06 0)
(-1.25907e-05 -6.81909e-06 0)
(-8.12846e-06 -8.26941e-06 0)
(-2.83552e-06 -9.48784e-06 0)
(3.08001e-06 -1.04681e-05 0)
(9.47542e-06 -1.11676e-05 0)
(1.62108e-05 -1.15842e-05 0)
(2.31502e-05 -1.17088e-05 0)
(3.01276e-05 -1.15488e-05 0)
(3.69669e-05 -1.11036e-05 0)
(4.35128e-05 -1.03882e-05 0)
(4.95816e-05 -9.41927e-06 0)
(5.5028e-05 -8.22166e-06 0)
(5.97022e-05 -6.82354e-06 0)
(6.34722e-05 -5.26165e-06 0)
(6.62398e-05 -3.56954e-06 0)
(6.79144e-05 -1.79636e-06 0)
(6.84012e-05 1.5469e-08 0)
(6.76248e-05 1.8178e-06 0)
(6.56111e-05 3.57947e-06 0)
(6.24324e-05 5.25271e-06 0)
(5.81299e-05 6.7962e-06 0)
(5.28124e-05 8.17803e-06 0)
(4.65555e-05 9.35525e-06 0)
(3.94973e-05 1.03096e-05 0)
(3.182e-05 1.10109e-05 0)
(2.36546e-05 1.14518e-05 0)
(1.52117e-05 1.16221e-05 0)
(6.67189e-06 1.15273e-05 0)
(-1.76352e-06 1.11726e-05 0)
(-9.90716e-06 1.05748e-05 0)
(-1.75793e-05 9.75956e-06 0)
(-2.46097e-05 8.74317e-06 0)
(-3.08461e-05 7.56813e-06 0)
(-3.61694e-05 6.26224e-06 0)
(-4.04623e-05 4.86931e-06 0)
(-4.36551e-05 3.42089e-06 0)
(-4.57106e-05 1.9675e-06 0)
(-4.66075e-05 5.29493e-07 0)
(-4.63356e-05 -8.36166e-07 0)
(-4.49361e-05 -2.12738e-06 0)
(-4.24945e-05 -3.29403e-06 0)
(-3.90878e-05 -4.32969e-06 0)
(-3.4842e-05 -5.2043e-06 0)
(-2.98637e-05 -5.91126e-06 0)
(-2.43133e-05 -6.44321e-06 0)
(-1.83143e-05 -6.78892e-06 0)
(-1.20276e-05 -6.96685e-06 0)
(-5.62267e-06 -6.96829e-06 0)
(7.78415e-07 -6.80855e-06 0)
(7.01745e-06 -6.51265e-06 0)
(1.29611e-05 -6.07775e-06 0)
(1.84978e-05 -5.53859e-06 0)
(2.35175e-05 -4.90606e-06 0)
(2.79357e-05 -4.20667e-06 0)
(3.16783e-05 -3.46154e-06 0)
(3.46941e-05 -2.68444e-06 0)
(3.69536e-05 -1.90059e-06 0)
(3.84413e-05 -1.1276e-06 0)
(3.91598e-05 -3.8529e-07 0)
(3.91204e-05 3.18776e-07 0)
(3.83753e-05 9.71857e-07 0)
(3.69704e-05 1.55566e-06 0)
(3.49504e-05 2.06546e-06 0)
(3.23977e-05 2.49944e-06 0)
(2.939e-05 2.85107e-06 0)
(2.59993e-05 3.1125e-06 0)
(2.23282e-05 3.30107e-06 0)
(1.8457e-05 3.39821e-06 0)
(1.44741e-05 3.42827e-06 0)
(1.04626e-05 3.37481e-06 0)
(6.50804e-06 3.26749e-06 0)
(2.69076e-06 3.08843e-06 0)
(-9.27246e-07 2.86892e-06 0)
(-4.27693e-06 2.60158e-06 0)
(-7.31926e-06 2.30221e-06 0)
(-9.99863e-06 1.97575e-06 0)
(-1.22798e-05 1.63389e-06 0)
(-1.41387e-05 1.28015e-06 0)
(-1.55571e-05 9.24926e-07 0)
(-1.65275e-05 5.7634e-07 0)
(-1.70497e-05 2.38452e-07 0)
(-1.71346e-05 -8.14308e-08 0)
(-1.68002e-05 -3.80724e-07 0)
(-1.60684e-05 -6.53335e-07 0)
(-1.49689e-05 -8.9593e-07 0)
(-1.35376e-05 -1.10731e-06 0)
(-1.18146e-05 -1.28471e-06 0)
(-9.84057e-06 -1.42699e-06 0)
(-7.66144e-06 -1.53439e-06 0)
(-5.32868e-06 -1.60703e-06 0)
(-2.88535e-06 -1.64669e-06 0)
(-3.79352e-07 -1.65211e-06 0)
(2.13824e-06 -1.62793e-06 0)
(4.62174e-06 -1.57463e-06 0)
(7.03241e-06 -1.49582e-06 0)
(9.32348e-06 -1.39325e-06 0)
(1.14599e-05 -1.27105e-06 0)
(1.34107e-05 -1.13189e-06 0)
(1.51406e-05 -9.78841e-07 0)
(1.66284e-05 -8.16218e-07 0)
(1.78519e-05 -6.45716e-07 0)
(1.87984e-05 -4.72451e-07 0)
(1.94559e-05 -2.97025e-07 0)
(1.98168e-05 -1.23616e-07 0)
(1.98782e-05 4.6242e-08 0)
(1.96453e-05 2.09665e-07 0)
(1.91214e-05 3.66196e-07 0)
(1.83161e-05 5.13462e-07 0)
(1.72402e-05 6.48755e-07 0)
(1.59081e-05 7.73221e-07 0)
(1.43422e-05 8.84141e-07 0)
(1.25574e-05 9.8141e-07 0)
(1.05784e-05 1.06381e-06 0)
(8.43031e-06 1.13109e-06 0)
(6.14044e-06 1.18226e-06 0)
(3.73938e-06 1.21691e-06 0)
(1.25718e-06 1.23437e-06 0)
(3.41887e-06 -9.13385e-05 0)
(1.03174e-05 -9.13935e-05 0)
(1.7289e-05 -9.12541e-05 0)
(2.42964e-05 -9.10457e-05 0)
(3.14211e-05 -9.07629e-05 0)
(3.8651e-05 -9.04113e-05 0)
(4.58353e-05 -8.99812e-05 0)
(5.31907e-05 -8.94743e-05 0)
(6.05989e-05 -8.88932e-05 0)
(6.80253e-05 -8.82384e-05 0)
(7.55869e-05 -8.75075e-05 0)
(8.31687e-05 -8.66918e-05 0)
(9.08607e-05 -8.57876e-05 0)
(9.86422e-05 -8.4807e-05 0)
(0.000106461 -8.37239e-05 0)
(0.000114286 -8.25364e-05 0)
(0.000122188 -8.12294e-05 0)
(0.000130107 -7.98295e-05 0)
(0.000137954 -7.82918e-05 0)
(0.000145749 -7.6652e-05 0)
(0.00015349 -7.48805e-05 0)
(0.000161153 -7.29871e-05 0)
(0.000168714 -7.09674e-05 0)
(0.000176161 -6.88183e-05 0)
(0.000183477 -6.65409e-05 0)
(0.000190638 -6.41235e-05 0)
(0.000197596 -6.15687e-05 0)
(0.000204377 -5.88744e-05 0)
(0.00021092 -5.60193e-05 0)
(0.000217165 -5.30358e-05 0)
(0.00022312 -4.99032e-05 0)
(0.00022873 -4.66049e-05 0)
(0.000233955 -4.31631e-05 0)
(0.000238761 -3.95662e-05 0)
(0.000243172 -3.5797e-05 0)
(0.000247199 -3.18603e-05 0)
(0.000250831 -2.77385e-05 0)
(0.000254016 -2.34432e-05 0)
(0.000256689 -1.89643e-05 0)
(0.000258885 -1.43154e-05 0)
(0.00026051 -9.49302e-06 0)
(0.000261544 -4.50992e-06 0)
(0.000261979 6.06836e-07 0)
(0.000261645 5.86754e-06 0)
(0.000260509 1.12243e-05 0)
(0.000258564 1.66522e-05 0)
(0.000255807 2.21209e-05 0)
(0.000252228 2.75971e-05 0)
(0.000247819 3.30436e-05 0)
(0.000242575 3.84211e-05 0)
(0.000236508 4.36916e-05 0)
(0.000229617 4.8803e-05 0)
(0.000221932 5.37103e-05 0)
(0.000213448 5.83839e-05 0)
(0.000204197 6.27384e-05 0)
(0.000194245 6.67597e-05 0)
(0.000183626 7.03551e-05 0)
(0.000172402 7.35277e-05 0)
(0.000160494 7.61869e-05 0)
(0.000148217 7.83345e-05 0)
(0.000135585 7.98694e-05 0)
(0.000122419 8.07756e-05 0)
(0.000109213 8.10566e-05 0)
(9.59169e-05 8.06819e-05 0)
(8.25348e-05 7.9609e-05 0)
(6.93175e-05 7.78994e-05 0)
(5.63271e-05 7.54407e-05 0)
(4.37113e-05 7.23626e-05 0)
(3.16291e-05 6.86109e-05 0)
(2.01525e-05 6.42749e-05 0)
(9.49292e-06 5.93439e-05 0)
(-3.46018e-07 5.38996e-05 0)
(-9.29111e-06 4.79721e-05 0)
(-1.70364e-05 4.16783e-05 0)
(-2.36249e-05 3.50621e-05 0)
(-2.89329e-05 2.82317e-05 0)
(-3.29822e-05 2.12684e-05 0)
(-3.57161e-05 1.42593e-05 0)
(-3.70675e-05 7.33114e-06 0)
(-3.69381e-05 5.64502e-07 0)
(-3.54774e-05 -5.90396e-06 0)
(-3.27513e-05 -1.19948e-05 0)
(-2.87121e-05 -1.76209e-05 0)
(-2.36143e-05 -2.26878e-05 0)
(-1.74715e-05 -2.7079e-05 0)
(-1.04445e-05 -3.07442e-05 0)
(-2.66817e-06 -3.36191e-05 0)
(5.69829e-06 -3.56485e-05 0)
(1.43982e-05 -3.67946e-05 0)
(2.32629e-05 -3.70413e-05 0)
(3.20991e-05 -3.63937e-05 0)
(4.07085e-05 -3.48697e-05 0)
(4.88822e-05 -3.25153e-05 0)
(5.641e-05 -2.93843e-05 0)
(6.31163e-05 -2.55586e-05 0)
(6.88205e-05 -2.1127e-05 0)
(7.33818e-05 -1.62049e-05 0)
(7.66726e-05 -1.09058e-05 0)
(7.8583e-05 -5.3724e-06 0)
(7.90332e-05 2.71641e-07 0)
(7.79896e-05 5.85838e-06 0)
(7.54861e-05 1.12965e-05 0)
(7.15744e-05 1.6439e-05 0)
(6.63482e-05 2.11605e-05 0)
(5.99196e-05 2.5346e-05 0)
(5.24081e-05 2.88867e-05 0)
(4.39917e-05 3.17186e-05 0)
(3.48857e-05 3.3769e-05 0)
(2.52775e-05 3.50041e-05 0)
(1.54118e-05 3.54184e-05 0)
(5.50955e-06 3.50107e-05 0)
(-4.20051e-06 3.38218e-05 0)
(-1.34822e-05 3.18935e-05 0)
(-2.21609e-05 2.93043e-05 0)
(-3.00292e-05 2.61367e-05 0)
(-3.69108e-05 2.24969e-05 0)
(-4.2691e-05 1.84916e-05 0)
(-4.72501e-05 1.42301e-05 0)
(-5.05085e-05 9.82969e-06 0)
(-5.24606e-05 5.41629e-06 0)
(-5.30777e-05 1.09071e-06 0)
(-5.23969e-05 -3.01466e-06 0)
(-5.04794e-05 -6.85208e-06 0)
(-4.74041e-05 -1.03168e-05 0)
(-4.32979e-05 -1.33565e-05 0)
(-3.8288e-05 -1.5909e-05 0)
(-3.25322e-05 -1.79482e-05 0)
(-2.61825e-05 -1.94538e-05 0)
(-1.94171e-05 -2.04166e-05 0)
(-1.24019e-05 -2.08529e-05 0)
(-5.29846e-06 -2.07843e-05 0)
(1.70327e-06 -2.02434e-05 0)
(8.48422e-06 -1.92789e-05 0)
(1.48943e-05 -1.79432e-05 0)
(2.07964e-05 -1.62869e-05 0)
(2.61007e-05 -1.43724e-05 0)
(3.07055e-05 -1.22652e-05 0)
(3.45635e-05 -1.0026e-05 0)
(3.76187e-05 -7.71606e-06 0)
(3.9837e-05 -5.39461e-06 0)
(4.12157e-05 -3.11154e-06 0)
(4.17774e-05 -9.18206e-07 0)
(4.15481e-05 1.14469e-06 0)
(4.05626e-05 3.04389e-06 0)
(3.88821e-05 4.74414e-06 0)
(3.6581e-05 6.22465e-06 0)
(3.37393e-05 7.4737e-06 0)
(3.04249e-05 8.47623e-06 0)
(2.67499e-05 9.2325e-06 0)
(2.27993e-05 9.74762e-06 0)
(1.86639e-05 1.00186e-05 0)
(1.44359e-05 1.00699e-05 0)
(1.02057e-05 9.90531e-06 0)
(6.0564e-06 9.55603e-06 0)
(2.0694e-06 9.03056e-06 0)
(-1.67726e-06 8.36374e-06 0)
(-5.13989e-06 7.57546e-06 0)
(-8.26116e-06 6.68505e-06 0)
(-1.09929e-05 5.7258e-06 0)
(-1.33027e-05 4.71609e-06 0)
(-1.51692e-05 3.68345e-06 0)
(-1.65683e-05 2.64564e-06 0)
(-1.75023e-05 1.62791e-06 0)
(-1.7973e-05 6.43096e-07 0)
(-1.79937e-05 -2.89374e-07 0)
(-1.75845e-05 -1.15679e-06 0)
(-1.67667e-05 -1.94687e-06 0)
(-1.55771e-05 -2.65076e-06 0)
(-1.40524e-05 -3.25968e-06 0)
(-1.22329e-05 -3.7703e-06 0)
(-1.01634e-05 -4.17887e-06 0)
(-7.8914e-06 -4.48703e-06 0)
(-5.47025e-06 -4.69262e-06 0)
(-2.94123e-06 -4.79895e-06 0)
(-3.55627e-07 -4.81262e-06 0)
(2.23345e-06 -4.7369e-06 0)
(4.78187e-06 -4.57918e-06 0)
(7.24954e-06 -4.34363e-06 0)
(9.58934e-06 -4.04462e-06 0)
(1.17654e-05 -3.68413e-06 0)
(1.37482e-05 -3.27931e-06 0)
(1.55011e-05 -2.83313e-06 0)
(1.70043e-05 -2.3592e-06 0)
(1.82354e-05 -1.86603e-06 0)
(1.91829e-05 -1.35988e-06 0)
(1.98361e-05 -8.53507e-07 0)
(2.01866e-05 -3.4968e-07 0)
(2.02332e-05 1.42332e-07 0)
(1.99821e-05 6.16943e-07 0)
(1.94376e-05 1.06889e-06 0)
(1.86068e-05 1.49337e-06 0)
(1.75043e-05 1.88644e-06 0)
(1.61447e-05 2.24519e-06 0)
(1.45491e-05 2.56565e-06 0)
(1.27339e-05 2.84666e-06 0)
(1.07237e-05 3.08445e-06 0)
(8.54396e-06 3.27824e-06 0)
(6.22183e-06 3.42577e-06 0)
(3.78818e-06 3.52617e-06 0)
(1.27335e-06 3.57623e-06 0)
(3.76443e-06 -0.000159431 0)
(1.13316e-05 -0.000159536 0)
(1.89594e-05 -0.00015926 0)
(2.6659e-05 -0.000158834 0)
(3.44093e-05 -0.000158259 0)
(4.22362e-05 -0.000157533 0)
(5.01433e-05 -0.000156655 0)
(5.80815e-05 -0.000155606 0)
(6.60449e-05 -0.000154417 0)
(7.40608e-05 -0.000153066 0)
(8.22059e-05 -0.000151542 0)
(9.04604e-05 -0.000149856 0)
(9.87193e-05 -0.000147962 0)
(0.000107122 -0.000145882 0)
(0.000115733 -0.000143642 0)
(0.000124463 -0.000141242 0)
(0.000133103 -0.000138718 0)
(0.000141829 -0.000136064 0)
(0.00015056 -0.000133306 0)
(0.000159172 -0.00013044 0)
(0.000167824 -0.00012748 0)
(0.00017633 -0.000124399 0)
(0.00018475 -0.000121195 0)
(0.00019303 -0.000117849 0)
(0.000201203 -0.000114341 0)
(0.000209238 -0.000110622 0)
(0.000217046 -0.00010672 0)
(0.000224759 -0.000102516 0)
(0.000232131 -9.80797e-05 0)
(0.000239171 -9.33806e-05 0)
(0.000246091 -8.83366e-05 0)
(0.000252589 -8.30344e-05 0)
(0.000258677 -7.74098e-05 0)
(0.000264524 -7.14442e-05 0)
(0.000270007 -6.51875e-05 0)
(0.000275096 -5.85495e-05 0)
(0.000279725 -5.15333e-05 0)
(0.000283893 -4.41711e-05 0)
(0.000287567 -3.64255e-05 0)
(0.000290659 -2.83246e-05 0)
(0.000293149 -1.9881e-05 0)
(0.000294903 -1.1109e-05 0)
(0.000295963 -2.04856e-06 0)
(0.000296135 7.26326e-06 0)
(0.000295256 1.67825e-05 0)
(0.000293387 2.64503e-05 0)
(0.000290499 3.62031e-05 0)
(0.000286558 4.598e-05 0)
(0.000281542 5.57095e-05 0)
(0.00027546 6.53208e-05 0)
(0.000268271 7.47307e-05 0)
(0.00025996 8.38647e-05 0)
(0.000250657 9.26413e-05 0)
(0.000240231 0.000100952 0)
(0.000228794 0.00010873 0)
(0.000216346 0.000115856 0)
(0.000203016 0.000122238 0)
(0.000188896 0.000127825 0)
(0.00017393 0.000132505 0)
(0.000158329 0.000136234 0)
(0.000142071 0.000138872 0)
(0.000125496 0.000140399 0)
(0.000108774 0.000140785 0)
(9.17775e-05 0.000139982 0)
(7.48925e-05 0.000137947 0)
(5.81827e-05 0.00013469 0)
(4.18342e-05 0.000130235 0)
(2.6096e-05 0.000124584 0)
(1.10297e-05 0.000117797 0)
(-3.09687e-06 0.000109912 0)
(-1.62281e-05 0.000101026 0)
(-2.81944e-05 9.11953e-05 0)
(-3.87716e-05 8.05904e-05 0)
(-4.78382e-05 6.93118e-05 0)
(-5.53669e-05 5.7483e-05 0)
(-6.11667e-05 4.52944e-05 0)
(-6.51735e-05 3.28737e-05 0)
(-6.73864e-05 2.04455e-05 0)
(-6.77848e-05 8.16891e-06 0)
(-6.63281e-05 -3.7308e-06 0)
(-6.30284e-05 -1.51077e-05 0)
(-5.81034e-05 -2.5766e-05 0)
(-5.15933e-05 -3.55676e-05 0)
(-4.35258e-05 -4.42958e-05 0)
(-3.41842e-05 -5.18337e-05 0)
(-2.37583e-05 -5.80256e-05 0)
(-1.24469e-05 -6.27773e-05 0)
(-4.80127e-07 -6.60036e-05 0)
(1.18661e-05 -6.76467e-05 0)
(2.4321e-05 -6.76913e-05 0)
(3.66186e-05 -6.61439e-05 0)
(4.84685e-05 -6.30501e-05 0)
(5.96151e-05 -5.84943e-05 0)
(6.97827e-05 -5.25868e-05 0)
(7.87428e-05 -4.54789e-05 0)
(8.62674e-05 -3.73357e-05 0)
(9.2177e-05 -2.83723e-05 0)
(9.63205e-05 -1.88009e-05 0)
(9.85984e-05 -8.88198e-06 0)
(9.88828e-05 1.17525e-06 0)
(9.72116e-05 1.11061e-05 0)
(9.36858e-05 2.06826e-05 0)
(8.83113e-05 2.96602e-05 0)
(8.12373e-05 3.78406e-05 0)
(7.26346e-05 4.49984e-05 0)
(6.27266e-05 5.09885e-05 0)
(5.17542e-05 5.56782e-05 0)
(3.99849e-05 5.89782e-05 0)
(2.77227e-05 6.08239e-05 0)
(1.52592e-05 6.12399e-05 0)
(2.88409e-06 6.02039e-05 0)
(-9.10418e-06 5.78509e-05 0)
(-2.04373e-05 5.42205e-05 0)
(-3.08565e-05 4.94839e-05 0)
(-4.01392e-05 4.38049e-05 0)
(-4.80918e-05 3.73452e-05 0)
(-5.46079e-05 3.03113e-05 0)
(-5.95665e-05 2.2912e-05 0)
(-6.28761e-05 1.53456e-05 0)
(-6.45529e-05 7.81813e-06 0)
(-6.45813e-05 4.98314e-07 0)
(-6.30796e-05 -6.42629e-06 0)
(-6.01578e-05 -1.28128e-05 0)
(-5.59008e-05 -1.85355e-05 0)
(-5.04872e-05 -2.34847e-05 0)
(-4.40989e-05 -2.75958e-05 0)
(-3.69334e-05 -3.07998e-05 0)
(-2.91851e-05 -3.31069e-05 0)
(-2.10524e-05 -3.45002e-05 0)
(-1.27525e-05 -3.50149e-05 0)
(-4.48041e-06 -3.46785e-05 0)
(3.58946e-06 -3.35921e-05 0)
(1.12736e-05 -3.18101e-05 0)
(1.84405e-05 -2.94327e-05 0)
(2.49648e-05 -2.65507e-05 0)
(3.07212e-05 -2.32861e-05 0)
(3.56337e-05 -1.97137e-05 0)
(3.96452e-05 -1.59601e-05 0)
(4.27143e-05 -1.21168e-05 0)
(4.48371e-05 -8.27588e-06 0)
(4.60183e-05 -4.52868e-06 0)
(4.62825e-05 -9.43488e-07 0)
(4.56767e-05 2.39958e-06 0)
(4.42644e-05 5.46289e-06 0)
(4.21152e-05 8.18898e-06 0)
(3.93155e-05 1.05507e-05 0)
(3.59586e-05 1.25156e-05 0)
(3.21398e-05 1.40834e-05 0)
(2.79656e-05 1.52493e-05 0)
(2.35318e-05 1.60082e-05 0)
(1.89469e-05 1.63918e-05 0)
(1.43086e-05 1.64038e-05 0)
(9.70841e-06 1.60874e-05 0)
(5.23634e-06 1.5462e-05 0)
(9.75503e-07 1.45684e-05 0)
(-2.99677e-06 1.34487e-05 0)
(-6.63788e-06 1.21396e-05 0)
(-9.89112e-06 1.06768e-05 0)
(-1.27053e-05 9.10557e-06 0)
(-1.50556e-05 7.46289e-06 0)
(-1.6921e-05 5.78614e-06 0)
(-1.82876e-05 4.11373e-06 0)
(-1.91571e-05 2.47028e-06 0)
(-1.95386e-05 8.90996e-07 0)
(-1.94446e-05 -6.00746e-07 0)
(-1.89031e-05 -1.98486e-06 0)
(-1.7942e-05 -3.24226e-06 0)
(-1.65967e-05 -4.35847e-06 0)
(-1.491e-05 -5.32191e-06 0)
(-1.29285e-05 -6.12573e-06 0)
(-1.06992e-05 -6.76599e-06 0)
(-8.26995e-06 -7.24327e-06 0)
(-5.69427e-06 -7.55845e-06 0)
(-3.02457e-06 -7.71402e-06 0)
(-3.08675e-07 -7.72324e-06 0)
(2.40178e-06 -7.58823e-06 0)
(5.06074e-06 -7.32486e-06 0)
(7.62253e-06 -6.9394e-06 0)
(1.00432e-05 -6.4518e-06 0)
(1.22857e-05 -5.86988e-06 0)
(1.43185e-05 -5.21588e-06 0)
(1.61109e-05 -4.4999e-06 0)
(1.76367e-05 -3.73875e-06 0)
(1.88818e-05 -2.95014e-06 0)
(1.98299e-05 -2.14214e-06 0)
(2.04733e-05 -1.3333e-06 0)
(2.08081e-05 -5.32274e-07 0)
(2.08295e-05 2.49455e-07 0)
(2.05467e-05 1.00408e-06 0)
(1.99644e-05 1.72013e-06 0)
(1.90933e-05 2.39368e-06 0)
(1.79467e-05 3.01494e-06 0)
(1.65391e-05 3.58296e-06 0)
(1.48946e-05 4.09049e-06 0)
(1.30284e-05 4.5337e-06 0)
(1.09657e-05 4.91069e-06 0)
(8.73314e-06 5.21565e-06 0)
(6.35788e-06 5.44909e-06 0)
(3.86979e-06 5.60635e-06 0)
(1.30016e-06 5.6862e-06 0)
(4.48284e-06 -0.000217298 0)
(1.34039e-05 -0.000217082 0)
(2.24454e-05 -0.000216601 0)
(3.15716e-05 -0.000215883 0)
(4.07702e-05 -0.000214945 0)
(5.00448e-05 -0.000213789 0)
(5.93714e-05 -0.000212442 0)
(6.87243e-05 -0.000210902 0)
(7.80234e-05 -0.000209112 0)
(8.75116e-05 -0.000207083 0)
(9.70869e-05 -0.000204766 0)
(0.000106872 -0.000202285 0)
(0.00011685 -0.000199641 0)
(0.000126576 -0.000196889 0)
(0.000136148 -0.000194059 0)
(0.000145473 -0.00019112 0)
(0.000154648 -0.000188124 0)
(0.000163699 -0.000184961 0)
(0.000172527 -0.00018166 0)
(0.000181216 -0.000178145 0)
(0.000189908 -0.000174432 0)
(0.000198657 -0.000170503 0)
(0.000207397 -0.000166359 0)
(0.000216202 -0.000161891 0)
(0.000225228 -0.00015726 0)
(0.000234173 -0.00015223 0)
(0.000243353 -0.000146962 0)
(0.000252579 -0.000141403 0)
(0.000261282 -0.000135487 0)
(0.000270217 -0.000129451 0)
(0.000278798 -0.000122998 0)
(0.000286841 -0.000116314 0)
(0.000294852 -0.000109218 0)
(0.000302245 -0.000101601 0)
(0.000309372 -9.34725e-05 0)
(0.000316473 -8.47008e-05 0)
(0.000322928 -7.53319e-05 0)
(0.000328884 -6.52258e-05 0)
(0.000334304 -5.44996e-05 0)
(0.000338977 -4.31228e-05 0)
(0.000342887 -3.11208e-05 0)
(0.000345886 -1.85165e-05 0)
(0.000347877 -5.38674e-06 0)
(0.000348683 8.21632e-06 0)
(0.000348173 2.22408e-05 0)
(0.000346283 3.65869e-05 0)
(0.000343014 5.11601e-05 0)
(0.000338339 6.58452e-05 0)
(0.000332226 8.05374e-05 0)
(0.000324645 9.51076e-05 0)
(0.000315607 0.000109444 0)
(0.00030514 0.000123355 0)
(0.000293168 0.000136741 0)
(0.000279757 0.000149464 0)
(0.000264927 0.000161317 0)
(0.000248664 0.000172209 0)
(0.000231297 0.000181966 0)
(0.000212832 0.000190417 0)
(0.000193243 0.000197478 0)
(0.000172737 0.000203009 0)
(0.000151437 0.000206919 0)
(0.000129644 0.000209107 0)
(0.000107704 0.000209532 0)
(8.5522e-05 0.000208046 0)
(6.33621e-05 0.000204771 0)
(4.16772e-05 0.000199555 0)
(2.05113e-05 0.000192522 0)
(1.36363e-07 0.000183625 0)
(-1.91932e-05 0.000173003 0)
(-3.72753e-05 0.000160693 0)
(-5.38694e-05 0.000146868 0)
(-6.87496e-05 0.000131641 0)
(-8.17061e-05 0.000115253 0)
(-9.26196e-05 9.78313e-05 0)
(-0.000101291 7.96712e-05 0)
(-0.000107615 6.0985e-05 0)
(-0.00011152 4.20582e-05 0)
(-0.000112901 2.31349e-05 0)
(-0.00011175 4.50259e-06 0)
(-0.000108038 -1.35004e-05 0)
(-0.000102017 -3.06419e-05 0)
(-9.38335e-05 -4.66314e-05 0)
(-8.34244e-05 -6.11665e-05 0)
(-7.11025e-05 -7.40385e-05 0)
(-5.71093e-05 -8.50162e-05 0)
(-4.16956e-05 -9.39046e-05 0)
(-2.52188e-05 -0.000100546 0)
(-7.95074e-06 -0.000104826 0)
(9.65745e-06 -0.000106676 0)
(2.72529e-05 -0.000106074 0)
(4.44809e-05 -0.000103036 0)
(6.09445e-05 -9.76695e-05 0)
(7.62809e-05 -9.00886e-05 0)
(9.01255e-05 -8.05054e-05 0)
(0.000102191 -6.91326e-05 0)
(0.000112164 -5.62937e-05 0)
(0.000119822 -4.22436e-05 0)
(0.000124963 -2.74133e-05 0)
(0.000127519 -1.20856e-05 0)
(0.000127444 3.26935e-06 0)
(0.000124706 1.83606e-05 0)
(0.000119427 3.27705e-05 0)
(0.000111756 4.61802e-05 0)
(0.000101869 5.82328e-05 0)
(9.00321e-05 6.8656e-05 0)
(7.66046e-05 7.72437e-05 0)
(6.19057e-05 8.38019e-05 0)
(4.63146e-05 8.82185e-05 0)
(3.02783e-05 9.04285e-05 0)
(1.41361e-05 9.0476e-05 0)
(-1.66419e-06 8.83976e-05 0)
(-1.67687e-05 8.43391e-05 0)
(-3.08825e-05 7.84754e-05 0)
(-4.35945e-05 7.10371e-05 0)
(-5.47359e-05 6.22647e-05 0)
(-6.40683e-05 5.24602e-05 0)
(-7.14173e-05 4.19062e-05 0)
(-7.67096e-05 3.09288e-05 0)
(-7.98924e-05 1.98164e-05 0)
(-8.10397e-05 8.85567e-06 0)
(-8.01865e-05 -1.65981e-06 0)
(-7.74477e-05 -1.15437e-05 0)
(-7.30162e-05 -2.05438e-05 0)
(-6.70457e-05 -2.85182e-05 0)
(-5.97906e-05 -3.53118e-05 0)
(-5.14617e-05 -4.08483e-05 0)
(-4.23531e-05 -4.50599e-05 0)
(-3.27133e-05 -4.79579e-05 0)
(-2.27618e-05 -4.9563e-05 0)
(-1.27411e-05 -4.99176e-05 0)
(-2.91755e-06 -4.90891e-05 0)
(6.48518e-06 -4.72283e-05 0)
(1.53521e-05 -4.44241e-05 0)
(2.34875e-05 -4.08232e-05 0)
(3.07333e-05 -3.65552e-05 0)
(3.70319e-05 -3.17887e-05 0)
(4.22898e-05 -2.66591e-05 0)
(4.6442e-05 -2.13135e-05 0)
(4.94975e-05 -1.58914e-05 0)
(5.14364e-05 -1.05214e-05 0)
(5.22991e-05 -5.31287e-06 0)
(5.21322e-05 -3.78563e-07 0)
(5.1014e-05 4.20652e-06 0)
(4.9021e-05 8.36531e-06 0)
(4.62328e-05 1.20308e-05 0)
(4.27622e-05 1.51934e-05 0)
(3.87302e-05 1.77958e-05 0)
(3.42455e-05 1.98363e-05 0)
(2.94124e-05 2.13255e-05 0)
(2.43645e-05 2.22523e-05 0)
(1.92051e-05 2.2666e-05 0)
(1.40387e-05 2.25756e-05 0)
(8.97351e-06 2.20498e-05 0)
(4.08724e-06 2.11052e-05 0)
(-5.13737e-07 1.98157e-05 0)
(-4.76007e-06 1.82231e-05 0)
(-8.61895e-06 1.6379e-05 0)
(-1.20268e-05 1.43457e-05 0)
(-1.4937e-05 1.21726e-05 0)
(-1.73302e-05 9.91519e-06 0)
(-1.91867e-05 7.62086e-06 0)
(-2.05007e-05 5.34057e-06 0)
(-2.12809e-05 3.11119e-06 0)
(-2.15333e-05 9.76448e-07 0)
(-2.12899e-05 -1.0365e-06 0)
(-2.05774e-05 -2.89362e-06 0)
(-1.94257e-05 -4.5762e-06 0)
(-1.78805e-05 -6.06267e-06 0)
(-1.59876e-05 -7.34226e-06 0)
(-1.37965e-05 -8.4031e-06 0)
(-1.13602e-05 -9.24371e-06 0)
(-8.73092e-06 -9.86058e-06 0)
(-5.9638e-06 -1.02623e-05 0)
(-3.11323e-06 -1.04516e-05 0)
(-2.29197e-07 -1.044e-05 0)
(2.63363e-06 -1.02388e-05 0)
(5.42755e-06 -9.86332e-06 0)
(8.10893e-06 -9.33203e-06 0)
(1.06304e-05 -8.65888e-06 0)
(1.29551e-05 -7.86803e-06 0)
(1.50519e-05 -6.9749e-06 0)
(1.68909e-05 -6.00537e-06 0)
(1.84458e-05 -4.9776e-06 0)
(1.97038e-05 -3.91228e-06 0)
(2.06528e-05 -2.8295e-06 0)
(2.12829e-05 -1.74234e-06 0)
(2.1593e-05 -6.72112e-07 0)
(2.15826e-05 3.72307e-07 0)
(2.12591e-05 1.38009e-06 0)
(2.06303e-05 2.33395e-06 0)
(1.97055e-05 3.22998e-06 0)
(1.85019e-05 4.05695e-06 0)
(1.70365e-05 4.81054e-06 0)
(1.53285e-05 5.48489e-06 0)
(1.33985e-05 6.07299e-06 0)
(1.127e-05 6.57318e-06 0)
(8.97039e-06 6.978e-06 0)
(6.52783e-06 7.28637e-06 0)
(3.97176e-06 7.49344e-06 0)
(1.33457e-06 7.5995e-06 0)
(5.42777e-06 -0.000298734 0)
(1.61396e-05 -0.000298229 0)
(2.68543e-05 -0.000297526 0)
(3.74673e-05 -0.000296429 0)
(4.79571e-05 -0.000294878 0)
(5.82881e-05 -0.000292837 0)
(6.84989e-05 -0.000290189 0)
(7.90348e-05 -0.00028694 0)
(8.97974e-05 -0.000282923 0)
(0.000100785 -0.000278208 0)
(0.000111413 -0.000272744 0)
(0.000121381 -0.000266628 0)
(0.000131014 -0.000259944 0)
(0.000140247 -0.000252912 0)
(0.000149637 -0.000245661 0)
(0.000158966 -0.000238442 0)
(0.00016848 -0.000231429 0)
(0.000178471 -0.000224797 0)
(0.000188659 -0.000218747 0)
(0.000198994 -0.000213279 0)
(0.000209333 -0.000208431 0)
(0.000219591 -0.000204201 0)
(0.000230253 -0.000200444 0)
(0.000240506 -0.000197031 0)
(0.000250992 -0.000193743 0)
(0.000261659 -0.000190382 0)
(0.00027157 -0.000186737 0)
(0.000281909 -0.000182808 0)
(0.000291038 -0.000178106 0)
(0.000300109 -0.000172845 0)
(0.00030951 -0.000166832 0)
(0.000318378 -0.000159968 0)
(0.000328108 -0.000152187 0)
(0.000337921 -0.000143455 0)
(0.000347811 -0.000133602 0)
(0.000357612 -0.000122731 0)
(0.000367212 -0.00011063 0)
(0.000376326 -9.73872e-05 0)
(0.000384458 -8.30005e-05 0)
(0.000391899 -6.74717e-05 0)
(0.000398416 -5.08977e-05 0)
(0.000403679 -3.33474e-05 0)
(0.00040761 -1.48951e-05 0)
(0.000410135 4.26326e-06 0)
(0.000410926 2.41161e-05 0)
(0.000409892 4.44824e-05 0)
(0.000406971 6.51986e-05 0)
(0.000402121 8.61292e-05 0)
(0.000395296 0.000107133 0)
(0.000386502 0.000127918 0)
(0.000375518 0.00014839 0)
(0.000362405 0.00016829 0)
(0.000347494 0.00018742 0)
(0.000330333 0.000205522 0)
(0.000311221 0.000222407 0)
(0.000290308 0.000237845 0)
(0.000267506 0.000251657 0)
(0.000243224 0.000263555 0)
(0.000217539 0.000273457 0)
(0.000190667 0.000281143 0)
(0.000162745 0.000286454 0)
(0.000134284 0.000289367 0)
(0.000105349 0.000289647 0)
(7.63175e-05 0.000287276 0)
(4.75635e-05 0.000282239 0)
(1.91943e-05 0.000274529 0)
(-8.30237e-06 0.000264117 0)
(-3.46504e-05 0.000251134 0)
(-5.95381e-05 0.000235649 0)
(-8.26161e-05 0.000217843 0)
(-0.000103612 0.000197886 0)
(-0.000122213 0.000176011 0)
(-0.000138178 0.000152486 0)
(-0.000151259 0.000127614 0)
(-0.000161238 0.00010172 0)
(-0.000168022 7.51586e-05 0)
(-0.000171482 4.83269e-05 0)
(-0.000171658 2.16199e-05 0)
(-0.000168352 -4.53125e-06 0)
(-0.000161703 -2.9775e-05 0)
(-0.000151918 -5.37081e-05 0)
(-0.000139089 -7.58826e-05 0)
(-0.000123494 -9.59179e-05 0)
(-0.000105406 -0.000113513 0)
(-8.51658e-05 -0.000128311 0)
(-6.31842e-05 -0.00014009 0)
(-3.99034e-05 -0.000148594 0)
(-1.57751e-05 -0.000153717 0)
(8.67851e-06 -0.000155338 0)
(3.29775e-05 -0.000153504 0)
(5.65582e-05 -0.000148226 0)
(7.89091e-05 -0.000139677 0)
(9.95551e-05 -0.000128053 0)
(0.000118018 -0.000113672 0)
(0.000133865 -9.68571e-05 0)
(0.000146805 -7.80473e-05 0)
(0.000156476 -5.77297e-05 0)
(0.000162709 -3.63686e-05 0)
(0.000165378 -1.45282e-05 0)
(0.00016441 7.22306e-06 0)
(0.000159999 2.84038e-05 0)
(0.00015223 4.84673e-05 0)
(0.000141302 6.69354e-05 0)
(0.000127498 8.33373e-05 0)
(0.000111334 9.73589e-05 0)
(9.32317e-05 0.00010866 0)
(7.36357e-05 0.000117008 0)
(5.30851e-05 0.000122331 0)
(3.21971e-05 0.000124566 0)
(1.14529e-05 0.00012373 0)
(-8.66626e-06 0.000120069 0)
(-2.76231e-05 0.000113663 0)
(-4.50195e-05 0.000104902 0)
(-6.04947e-05 9.40376e-05 0)
(-7.37378e-05 8.15379e-05 0)
(-8.45082e-05 6.77385e-05 0)
(-9.26931e-05 5.30991e-05 0)
(-9.82064e-05 3.80428e-05 0)
(-0.000101057 2.29538e-05 0)
(-0.000101288 8.23861e-06 0)
(-9.90886e-05 -5.75216e-06 0)
(-9.46707e-05 -1.86943e-05 0)
(-8.82407e-05 -3.03725e-05 0)
(-8.00633e-05 -4.05538e-05 0)
(-7.04438e-05 -4.91114e-05 0)
(-5.9709e-05 -5.59078e-05 0)
(-4.82028e-05 -6.09409e-05 0)
(-3.62605e-05 -6.42059e-05 0)
(-2.4124e-05 -6.57581e-05 0)
(-1.20764e-05 -6.56913e-05 0)
(-4.68371e-07 -6.4118e-05 0)
(1.05005e-05 -6.12229e-05 0)
(2.06746e-05 -5.71721e-05 0)
(2.98703e-05 -5.21337e-05 0)
(3.79429e-05 -4.6317e-05 0)
(4.47824e-05 -3.9888e-05 0)
(5.03548e-05 -3.30935e-05 0)
(5.46078e-05 -2.60823e-05 0)
(5.75445e-05 -1.90267e-05 0)
(5.92108e-05 -1.21089e-05 0)
(5.96456e-05 -5.44802e-06 0)
(5.8928e-05 8.0563e-07 0)
(5.71616e-05 6.58427e-06 0)
(5.44284e-05 1.17785e-05 0)
(5.08856e-05 1.63334e-05 0)
(4.6637e-05 2.01875e-05 0)
(4.17911e-05 2.33488e-05 0)
(3.65264e-05 2.57801e-05 0)
(3.09373e-05 2.74962e-05 0)
(2.51674e-05 2.85269e-05 0)
(1.9346e-05 2.88939e-05 0)
(1.35901e-05 2.86471e-05 0)
(7.99841e-06 2.78435e-05 0)
(2.6612e-06 2.65377e-05 0)
(-2.312e-06 2.48221e-05 0)
(-6.87354e-06 2.27292e-05 0)
(-1.09635e-05 2.03381e-05 0)
(-1.45315e-05 1.77215e-05 0)
(-1.7538e-05 1.49562e-05 0)
(-1.99645e-05 1.20919e-05 0)
(-2.17989e-05 9.2067e-06 0)
(-2.30416e-05 6.34106e-06 0)
(-2.37058e-05 3.56262e-06 0)
(-2.38122e-05 9.00699e-07 0)
(-2.33873e-05 -1.5957e-06 0)
(-2.24685e-05 -3.89035e-06 0)
(-2.10976e-05 -5.958e-06 0)
(-1.93201e-05 -7.78092e-06 0)
(-1.71885e-05 -9.33776e-06 0)
(-1.47589e-05 -1.06247e-05 0)
(-1.20867e-05 -1.16336e-05 0)
(-9.22935e-06 -1.23672e-05 0)
(-6.24557e-06 -1.28309e-05 0)
(-3.19012e-06 -1.30344e-05 0)
(-1.17937e-07 -1.29903e-05 0)
(2.91684e-06 -1.27172e-05 0)
(5.86268e-06 -1.22271e-05 0)
(8.67627e-06 -1.15457e-05 0)
(1.13099e-05 -1.06953e-05 0)
(1.37264e-05 -9.6969e-06 0)
(1.5894e-05 -8.57812e-06 0)
(1.77813e-05 -7.36753e-06 0)
(1.93674e-05 -6.09046e-06 0)
(2.06377e-05 -4.76945e-06 0)
(2.15836e-05 -3.43087e-06 0)
(2.21969e-05 -2.09184e-06 0)
(2.24783e-05 -7.72968e-07 0)
(2.24317e-05 5.11823e-07 0)
(2.20608e-05 1.74677e-06 0)
(2.13761e-05 2.9173e-06 0)
(2.0393e-05 4.01202e-06 0)
(1.91252e-05 5.02391e-06 0)
(1.75918e-05 5.94321e-06 0)
(1.58146e-05 6.76607e-06 0)
(1.38124e-05 7.48357e-06 0)
(1.16103e-05 8.0923e-06 0)
(9.23529e-06 8.58636e-06 0)
(6.71676e-06 8.95976e-06 0)
(4.0853e-06 9.21184e-06 0)
(1.37253e-06 9.34009e-06 0)
(6.60694e-06 -0.000335616 0)
(1.96435e-05 -0.000332828 0)
(3.30208e-05 -0.000329624 0)
(4.68867e-05 -0.000324791 0)
(6.12389e-05 -0.000318323 0)
(7.63308e-05 -0.000310413 0)
(9.19156e-05 -0.000301224 0)
(0.000108255 -0.000291272 0)
(0.000124905 -0.000280667 0)
(0.000141439 -0.000270601 0)
(0.000157591 -0.000261554 0)
(0.000172774 -0.000253885 0)
(0.000186474 -0.000247738 0)
(0.000198127 -0.000243095 0)
(0.000207777 -0.000239858 0)
(0.000215184 -0.000237801 0)
(0.000220869 -0.000236648 0)
(0.00022481 -0.000236138 0)
(0.000227748 -0.000236015 0)
(0.000230542 -0.000236086 0)
(0.000233314 -0.00023616 0)
(0.000236905 -0.000236179 0)
(0.00024184 -0.000235993 0)