/*--------------------------------*- C++ -*----------------------------------*\
  =========                 |
  \\      /  F ield         | OpenFOAM: The Open Source CFD Toolbox
   \\    /   O peration     | Website:  https://openfoam.org
    \\  /    A nd           | Version:  12
     \\/     M anipulation  |
\*---------------------------------------------------------------------------*/
FoamFile
{
    format      ascii;
    class       volVectorField;
    location    "4";
    object      zeta;
}
// * * * * * * * * * * * * * * * * * * * * * * * * * * * * * * * * * * * * * //

dimensions      [0 1 0 0 0 0 0];

internalField   uniform (0 0 0);

boundaryField
{
    freeSurface
    {
        type            calculated;
        value           nonuniform List<vector> 
181
(
(0 0.00258409 0)
(0 0.00258394 0)
(0 0.00258365 0)
(0 0.00258321 0)
(0 0.00258286 0)
(0 0.0025824 0)
(0 0.00258217 0)
(0 0.00258172 0)
(0 0.000325374 0)
(0 0.000327192 0)
(0 0.000332726 0)
(0 0.000339404 0)
(0 0.000348015 0)
(0 0.000358184 0)
(0 0.000369483 0)
(0 0.000381568 0)
(0 0.000394119 0)
(0 0.000406702 0)
(0 0.00041891 0)
(0 0.00043028 0)
(0 0.000440444 0)
(0 0.000449118 0)
(0 0.00045598 0)
(0 0.000460775 0)
(0 0.000463309 0)
(0 0.000463321 0)
(0 0.000460644 0)
(0 0.000455117 0)
(0 0.000446629 0)
(0 0.000435122 0)
(0 0.0004206 0)
(0 0.000403034 0)
(0 0.000382499 0)
(0 0.000359078 0)
(0 0.000332898 0)
(0 0.000304124 0)
(0 0.000272963 0)
(0 0.000239665 0)
(0 0.000204492 0)
(0 0.00016778 0)
(0 0.000129875 0)
(0 9.1145e-05 0)
(0 5.20178e-05 0)
(0 1.2915e-05 0)
(0 -2.57264e-05 0)
(0 -6.34467e-05 0)
(0 -9.97411e-05 0)
(0 -0.000134201 0)
(0 -0.00016634 0)
(0 -0.00019574 0)
(0 -0.000221961 0)
(0 -0.000244637 0)
(0 -0.000263408 0)
(0 -0.000278003 0)
(0 -0.000288182 0)
(0 -0.000293755 0)
(0 -0.000294628 0)
(0 -0.000290748 0)
(0 -0.000282157 0)
(0 -0.000269002 0)
(0 -0.000251507 0)
(0 -0.00022996 0)
(0 -0.000204736 0)
(0 -0.000176332 0)
(0 -0.000145249 0)
(0 -0.000112106 0)
(0 -7.7554e-05 0)
(0 -4.22648e-05 0)
(0 -6.96738e-06 0)
(0 2.75885e-05 0)
(0 6.0666e-05 0)
(0 9.15477e-05 0)
(0 0.000119501 0)
(0 0.000143891 0)
(0 0.000164146 0)
(0 0.000179779 0)
(0 0.000190436 0)
(0 0.000195912 0)
(0 0.000196165 0)
(0 0.000191318 0)
(0 0.000181636 0)
(0 0.000167577 0)
(0 0.000149694 0)
(0 0.000128682 0)
(0 0.000105305 0)
(0 8.03458e-05 0)
(0 5.46363e-05 0)
(0 2.89729e-05 0)
(0 4.07475e-06 0)
(0 -1.9373e-05 0)
(0 -4.08124e-05 0)
(0 -5.97798e-05 0)
(0 -7.59403e-05 0)
(0 -8.90702e-05 0)
(0 -9.90707e-05 0)
(0 -0.000105948 0)
(0 -0.00010978 0)
(0 -0.000110771 0)
(0 -0.000109165 0)
(0 -0.000105255 0)
(0 -9.93872e-05 0)
(0 -9.18945e-05 0)
(0 -8.31389e-05 0)
(0 -7.34698e-05 0)
(0 -6.32157e-05 0)
(0 -5.26807e-05 0)
(0 -4.21569e-05 0)
(0 -3.18904e-05 0)
(0 -2.20927e-05 0)
(0 -1.29451e-05 0)
(0 -4.59049e-06 0)
(0 2.86721e-06 0)
(0 9.35307e-06 0)
(0 1.48282e-05 0)
(0 1.92794e-05 0)
(0 2.27211e-05 0)
(0 2.51822e-05 0)
(0 2.67099e-05 0)
(0 2.73622e-05 0)
(0 2.72107e-05 0)
(0 2.6332e-05 0)
(0 2.48103e-05 0)
(0 2.27343e-05 0)
(0 2.01933e-05 0)
(0 1.72757e-05 0)
(0 1.40717e-05 0)
(0 1.06684e-05 0)
(0 7.14658e-06 0)
(0 3.57667e-06 0)
(0 3.09702e-08 0)
(0 -3.43921e-06 0)
(0 -6.77348e-06 0)
(0 -9.93031e-06 0)
(0 -1.28648e-05 0)
(0 -1.55432e-05 0)
(0 -1.79433e-05 0)
(0 -2.00465e-05 0)
(0 -2.18415e-05 0)
(0 -2.33212e-05 0)
(0 -2.44864e-05 0)
(0 -2.53421e-05 0)
(0 -2.58961e-05 0)
(0 -2.61624e-05 0)
(0 -2.61585e-05 0)
(0 -2.59044e-05 0)
(0 -2.54229e-05 0)
(0 -2.47371e-05 0)
(0 -2.38732e-05 0)
(0 -2.28586e-05 0)
(0 -2.17228e-05 0)
(0 -2.04978e-05 0)
(0 -1.92138e-05 0)
(0 -1.78979e-05 0)
(0 -1.65722e-05 0)
(0 -1.52577e-05 0)
(0 -1.39745e-05 0)
(0 -1.27419e-05 0)
(0 -1.15764e-05 0)
(0 -1.0491e-05 0)
(0 -9.49325e-06 0)
(0 -8.58927e-06 0)
(0 -7.78286e-06 0)
(0 -7.07737e-06 0)
(0 -6.47461e-06 0)
(0 -5.97436e-06 0)
(0 -5.57608e-06 0)
(0 -5.27823e-06 0)
(0 -5.07524e-06 0)
(0 -4.95947e-06 0)
(0 -4.91816e-06 0)
(0 -4.93868e-06 0)
(0 -5.00905e-06 0)
(0 -5.1192e-06 0)
(0 -5.25851e-06 0)
(0 -5.41359e-06 0)
(0 -5.56934e-06 0)
(0 -5.71348e-06 0)
(0 -5.83856e-06 0)
(0 -5.94008e-06 0)
(0 -6.01294e-06 0)
(0 -6.05113e-06 0)
)
;
    }
    walls
    {
        type            calculated;
        value           uniform (0 0 0);
    }
    floatingObject
    {
        type            calculated;
        value           uniform (0 0 0);
    }
    frontAndBack
    {
        type            empty;
    }
}


// ************************************************************************* //
