/*--------------------------------*- C++ -*----------------------------------*\
  =========                 |
  \\      /  F ield         | OpenFOAM: The Open Source CFD Toolbox
   \\    /   O peration     | Website:  https://openfoam.org
    \\  /    A nd           | Version:  12
     \\/     M anipulation  |
\*---------------------------------------------------------------------------*/
FoamFile
{
    format      ascii;
    class       volVectorField;
    location    "6.22";
    object      zeta;
}
// * * * * * * * * * * * * * * * * * * * * * * * * * * * * * * * * * * * * * //

dimensions      [0 1 0 0 0 0 0];

internalField   uniform (0 0 0);

boundaryField
{
    freeSurface
    {
        type            calculated;
        value           nonuniform List<vector> 
181
(
(0 0.000343411 0)
(0 0.000342764 0)
(0 0.000342654 0)
(0 0.000342381 0)
(0 0.000342282 0)
(0 0.000341991 0)
(0 0.00034215 0)
(0 0.000341694 0)
(0 -0.000658434 0)
(0 -0.000648958 0)
(0 -0.000641396 0)
(0 -0.000627239 0)
(0 -0.000609333 0)
(0 -0.000586689 0)
(0 -0.000559786 0)
(0 -0.000528148 0)
(0 -0.000492677 0)
(0 -0.000453165 0)
(0 -0.000410115 0)
(0 -0.000363781 0)
(0 -0.000314255 0)
(0 -0.000261987 0)
(0 -0.000207231 0)
(0 -0.000150525 0)
(0 -9.2212e-05 0)
(0 -3.28169e-05 0)
(0 2.72087e-05 0)
(0 8.74001e-05 0)
(0 0.00014722 0)
(0 0.000206135 0)
(0 0.000263576 0)
(0 0.000319 0)
(0 0.000371863 0)
(0 0.000421621 0)
(0 0.00046769 0)
(0 0.000509599 0)
(0 0.000546816 0)
(0 0.00057886 0)
(0 0.000605341 0)
(0 0.000625873 0)
(0 0.000640085 0)
(0 0.000647729 0)
(0 0.00064861 0)
(0 0.000642587 0)
(0 0.000629572 0)
(0 0.000609634 0)
(0 0.000582874 0)
(0 0.000549465 0)
(0 0.000509749 0)
(0 0.000464111 0)
(0 0.000413027 0)
(0 0.000357138 0)
(0 0.000297126 0)
(0 0.000233761 0)
(0 0.000167905 0)
(0 0.000100481 0)
(0 3.24716e-05 0)
(0 -3.50897e-05 0)
(0 -0.000101123 0)
(0 -0.000164609 0)
(0 -0.000224485 0)
(0 -0.000279723 0)
(0 -0.000329289 0)
(0 -0.000372322 0)
(0 -0.000407959 0)
(0 -0.000435522 0)
(0 -0.000454451 0)
(0 -0.000464313 0)
(0 -0.000464872 0)
(0 -0.000456077 0)
(0 -0.000438075 0)
(0 -0.000411243 0)
(0 -0.000376159 0)
(0 -0.000333576 0)
(0 -0.000284478 0)
(0 -0.000230032 0)
(0 -0.000171552 0)
(0 -0.000110485 0)
(0 -4.83911e-05 0)
(0 1.31136e-05 0)
(0 7.23397e-05 0)
(0 0.000127707 0)
(0 0.000177645 0)
(0 0.000220736 0)
(0 0.0002557 0)
(0 0.000281555 0)
(0 0.000297512 0)
(0 0.000303107 0)
(0 0.000298225 0)
(0 0.000283077 0)
(0 0.00025831 0)
(0 0.000224861 0)
(0 0.000184041 0)
(0 0.000137368 0)
(0 8.67036e-05 0)
(0 3.40056e-05 0)
(0 -1.86212e-05 0)
(0 -6.91042e-05 0)
(0 -0.00011537 0)
(0 -0.000155467 0)
(0 -0.000187739 0)
(0 -0.000210795 0)
(0 -0.000223654 0)
(0 -0.000225877 0)
(0 -0.000217521 0)
(0 -0.000199221 0)
(0 -0.000172173 0)
(0 -0.000138027 0)
(0 -9.88599e-05 0)
(0 -5.69811e-05 0)
(0 -1.47956e-05 0)
(0 2.53574e-05 0)
(0 6.13445e-05 0)
(0 9.13809e-05 0)
(0 0.000114119 0)
(0 0.000128747 0)
(0 0.000135008 0)
(0 0.000133122 0)
(0 0.000123824 0)
(0 0.000108229 0)
(0 8.77232e-05 0)
(0 6.3864e-05 0)
(0 3.82725e-05 0)
(0 1.25023e-05 0)
(0 -1.20197e-05 0)
(0 -3.40832e-05 0)
(0 -5.27492e-05 0)
(0 -6.73527e-05 0)
(0 -7.75201e-05 0)
(0 -8.31665e-05 0)
(0 -8.44586e-05 0)
(0 -8.17715e-05 0)
(0 -7.56494e-05 0)
(0 -6.67542e-05 0)
(0 -5.58126e-05 0)
(0 -4.35646e-05 0)
(0 -3.07348e-05 0)
(0 -1.79952e-05 0)
(0 -5.92942e-06 0)
(0 4.96834e-06 0)
(0 1.43111e-05 0)
(0 2.1828e-05 0)
(0 2.73598e-05 0)
(0 3.08488e-05 0)
(0 3.23383e-05 0)
(0 3.1947e-05 0)
(0 2.98627e-05 0)
(0 2.6322e-05 0)
(0 2.15964e-05 0)
(0 1.59795e-05 0)
(0 9.7705e-06 0)
(0 3.2642e-06 0)
(0 -3.26513e-06 0)
(0 -9.5686e-06 0)
(0 -1.54305e-05 0)
(0 -2.06715e-05 0)
(0 -2.51561e-05 0)
(0 -2.87913e-05 0)
(0 -3.15217e-05 0)
(0 -3.3333e-05 0)
(0 -3.42411e-05 0)
(0 -3.42917e-05 0)
(0 -3.35539e-05 0)
(0 -3.21158e-05 0)
(0 -3.00821e-05 0)
(0 -2.75673e-05 0)
(0 -2.46915e-05 0)
(0 -2.15708e-05 0)
(0 -1.83135e-05 0)
(0 -1.50216e-05 0)
(0 -1.17859e-05 0)
(0 -8.68353e-06 0)
(0 -5.7777e-06 0)
(0 -3.11859e-06 0)
(0 -7.44711e-07 0)
(0 1.31636e-06 0)
(0 3.04737e-06 0)
(0 4.44025e-06 0)
(0 5.49305e-06 0)
(0 6.20234e-06 0)
(0 6.5623e-06 0)
)
;
    }
    walls
    {
        type            calculated;
        value           uniform (0 0 0);
    }
    floatingObject
    {
        type            calculated;
        value           uniform (0 0 0);
    }
    frontAndBack
    {
        type            empty;
    }
}


// ************************************************************************* //
