/*--------------------------------*- C++ -*----------------------------------*\
  =========                 |
  \\      /  F ield         | OpenFOAM: The Open Source CFD Toolbox
   \\    /   O peration     | Website:  https://openfoam.org
    \\  /    A nd           | Version:  12
     \\/     M anipulation  |
\*---------------------------------------------------------------------------*/
FoamFile
{
    format      ascii;
    class       surfaceScalarField;
    location    "3.36";
    object      phi;
}
// * * * * * * * * * * * * * * * * * * * * * * * * * * * * * * * * * * * * * //

dimensions      [1 0 -1 0 0 0 0];

internalField   nonuniform List<scalar> 
7429
(
-8.82222e-05
8.82221e-05
-0.000177578
8.93552e-05
-0.000268434
9.08559e-05
-0.000361026
9.25926e-05
-0.000455607
9.45801e-05
-0.000552412
9.68049e-05
-0.000651665
9.92528e-05
-0.000753549
0.000101885
-0.000858244
0.000104695
-0.000965874
0.00010763
-0.00107649
0.000110618
-0.0011901
0.000113609
-0.00130665
0.000116548
-0.00142599
0.000119344
-0.00154794
0.000121943
-0.00167218
0.000124242
-0.00179834
0.000126158
-0.00192595
0.000127614
-0.00205448
0.000128532
-0.00218332
0.000128835
-0.00231177
0.000128451
-0.00243908
0.000127311
-0.00256446
0.000125379
-0.00268705
0.000122589
-0.00280598
0.000118936
-0.00292036
0.000114379
-0.0030293
0.000108938
-0.0031319
0.000102602
-0.00322731
9.54131e-05
-0.00331472
8.74004e-05
-0.00339334
7.86219e-05
-0.00346246
6.91229e-05
-0.00352145
5.8985e-05
-0.00356972
4.82729e-05
-0.0036068
3.70772e-05
-0.00363229
2.54931e-05
-0.0036459
1.36091e-05
-0.0036477
1.80166e-06
-0.00363698
-1.07206e-05
-0.00361402
-2.29545e-05
-0.00357893
-3.50927e-05
-0.00353186
-4.70679e-05
-0.00347307
-5.87924e-05
-0.00340291
-7.01654e-05
-0.0033218
-8.11104e-05
-0.00323026
-9.15319e-05
-0.0031289
-0.000101366
-0.00301838
-0.000110515
-0.00289945
-0.000118929
-0.00277294
-0.000126511
-0.00263973
-0.000133217
-0.00250074
-0.000138984
-0.002357
-0.000143744
-0.00220953
-0.000147471
-0.00205941
-0.000150121
-0.00190772
-0.000151685
-0.00175568
-0.000152037
-0.0016044
-0.000151283
-0.00145512
-0.000149286
-0.0013089
-0.00014622
-0.00116695
-0.00014195
-0.00103032
-0.000136626
-0.000900163
-0.000130157
-0.000777566
-0.000122598
-0.000663336
-0.000114229
-0.000558501
-0.000104835
-0.00046372
-9.47812e-05
-0.000379749
-8.39708e-05
-0.000307141
-7.26082e-05
-0.000246352
-6.0789e-05
-0.000197703
-4.86487e-05
-0.00016133
-3.63731e-05
-0.000137159
-2.41709e-05
-0.000125086
-1.2073e-05
-0.000125112
2.57072e-08
-0.000136566
1.1454e-05
-0.000158758
2.2192e-05
-0.000190767
3.20091e-05
-0.000231633
4.0866e-05
-0.000280219
4.85854e-05
-0.00033528
5.5061e-05
-0.000395481
6.02019e-05
-0.00045934
6.38585e-05
-0.000525363
6.60227e-05
-0.000591943
6.65802e-05
-0.000657524
6.55816e-05
-0.000720501
6.29762e-05
-0.000779344
5.88437e-05
-0.000832611
5.32665e-05
-0.000878934
4.6323e-05
-0.000917116
3.8182e-05
-0.000946063
2.89472e-05
-0.000964999
1.89356e-05
-0.000973199
8.20062e-06
-0.000969176
-4.02356e-06
-0.000953093
-1.6083e-05
-0.000925395
-2.76976e-05
-0.000886517
-3.88786e-05
-0.000836892
-4.96247e-05
-0.000777195
-5.96974e-05
-0.000708278
-6.89169e-05
-0.000631201
-7.70764e-05
-0.00054723
-8.39711e-05
-0.000457718
-8.95124e-05
-0.00036419
-9.35276e-05
-0.000268188
-9.60025e-05
-0.000171346
-9.68421e-05
-7.5232e-05
-9.61137e-05
1.8586e-05
-9.38179e-05
0.000108625
-9.00388e-05
0.000193482
-8.48577e-05
0.000271853
-7.83709e-05
0.000342676
-7.08223e-05
0.00040495
-6.22741e-05
0.000457959
-5.30095e-05
0.000501115
-4.3156e-05
0.000534066
-3.29512e-05
0.000556626
-2.25595e-05
0.000568839
-1.22136e-05
0.000570885
-2.04563e-06
0.000563211
7.67448e-06
0.000546279
1.69311e-05
0.000520846
2.54333e-05
0.000487646
3.32002e-05
0.000447637
4.00085e-05
0.000401782
4.58552e-05
0.000351104
5.06779e-05
0.000296702
5.44022e-05
0.000239586
5.71159e-05
0.0001809
5.86861e-05
0.000121668
5.92321e-05
6.28505e-05
5.88176e-05
5.48041e-06
5.73701e-05
-4.96649e-05
5.51453e-05
-0.000101765
5.21003e-05
-0.000150142
4.83765e-05
-0.000194175
4.40336e-05
-0.000233371
3.91957e-05
-0.00026734
3.39688e-05
-0.000295784
2.84441e-05
-0.000318513
2.27292e-05
-0.000335433
1.692e-05
-0.000346554
1.11209e-05
-0.000351936
5.3817e-06
-0.000351816
-1.19489e-07
-0.000346418
-5.3985e-06
-0.000336048
-1.03702e-05
-0.00032107
-1.4978e-05
-0.0003019
-1.91694e-05
-0.000278993
-2.29074e-05
-0.000252835
-2.61575e-05
-0.000223919
-2.89165e-05
-0.000192775
-3.11437e-05
-0.000159924
-3.28509e-05
-0.000125872
-3.40519e-05
-9.11287e-05
-3.47436e-05
-5.61777e-05
-3.49511e-05
-2.14787e-05
-3.4699e-05
1.25278e-05
-3.40064e-05
4.54621e-05
-3.29344e-05
7.69459e-05
-3.14837e-05
0.000106671
-2.97251e-05
0.000134354
-2.76827e-05
0.000159754
-2.54006e-05
0.000182699
-2.2945e-05
0.000203023
-2.0324e-05
0.000220644
-1.76212e-05
0.00023548
-1.48352e-05
0.000247509
-1.20297e-05
0.000256752
-9.24286e-06
0.000263243
-6.49086e-06
0.000267082
-3.83915e-06
0.000268377
-1.29473e-06
0.000267286
1.09093e-06
0.000263971
3.31488e-06
0.000258616
5.35544e-06
0.000251424
7.19173e-06
0.000242607
8.81726e-06
0.000232406
1.0201e-05
0.000221045
1.13608e-05
0.000208774
1.22706e-05
0.000195812
1.29619e-05
0.000182383
1.3429e-05
0.000168691
1.3692e-05
0.000154927
1.37643e-05
0.000141254
1.3673e-05
0.000127818
1.3436e-05
0.000114737
1.30816e-05
0.000102127
1.26099e-05
9.00505e-05
1.20762e-05
7.85554e-05
1.1495e-05
6.77025e-05
1.08529e-05
5.74812e-05
1.02214e-05
4.7898e-05
9.58314e-06
3.88982e-05
8.99981e-06
3.04427e-05
8.45551e-06
2.24419e-05
8.0008e-06
1.47866e-05
7.65528e-06
7.35172e-06
7.4349e-06
7.35172e-06
-6.6978e-05
0.0001552
-0.000135075
0.000157452
-0.00020502
0.000160801
-0.000277443
0.000165015
-0.000352897
0.000170034
-0.000431919
0.000175827
-0.000515017
0.00018235
-0.000602678
0.000189546
-0.000695367
0.000197384
-0.000793255
0.000205517
-0.000896697
0.000214059
-0.00100561
0.000222517
-0.00112002
0.000230963
-0.00123962
0.000238944
-0.00136382
0.000246146
-0.00149285
0.000253265
-0.00162568
0.000258991
-0.00176194
0.00026387
-0.00190089
0.000267488
-0.00204162
0.000269558
-0.00218305
0.000269884
-0.00232415
0.000268405
-0.00246377
0.000265001
-0.00260055
0.000259374
-0.00273335
0.000251734
-0.00286091
0.000241937
-0.00298195
0.000229973
-0.00309527
0.000215923
-0.00319985
0.000199997
-0.00329461
0.000182159
-0.00337868
0.000162688
-0.00345115
0.0001416
-0.00351149
0.000119321
-0.00355924
9.60228e-05
-0.00359376
7.16006e-05
-0.00361448
4.62072e-05
-0.00362153
2.06626e-05
-0.00361492
-4.80848e-06
-0.0035951
-3.05451e-05
-0.0035619
-5.61485e-05
-0.00351558
-8.14129e-05
-0.00345649
-0.000106162
-0.00338507
-0.000130211
-0.00330185
-0.000153387
-0.00320743
-0.00017553
-0.0031025
-0.000196461
-0.00298781
-0.000216055
-0.00286417
-0.000234154
-0.00273247
-0.000250628
-0.00259363
-0.000265353
-0.00244866
-0.000278184
-0.00229859
-0.000289062
-0.0021445
-0.000297825
-0.00198751
-0.000304468
-0.00182878
-0.000308844
-0.00166951
-0.000310958
-0.00151093
-0.000310621
-0.00135415
-0.000308064
-0.00120044
-0.000302991
-0.00105092
-0.000295737
-0.000906804
-0.00028607
-0.000769227
-0.000274203
-0.000639422
-0.000259961
-0.000518185
-0.000243835
-0.000406702
-0.000225713
-0.000305751
-0.000205786
-0.000216069
-0.000184463
-0.000138287
-0.000161753
-7.29079e-05
-0.000137987
-2.04377e-05
-0.000113259
1.90547e-05
-8.81412e-05
4.5388e-05
-6.27064e-05
5.84956e-05
-3.72785e-05
5.87476e-05
-1.2325e-05
4.67408e-05
1.20325e-05
2.30972e-05
3.50976e-05
-1.13842e-05
5.66734e-05
-5.59997e-05
7.66246e-05
-0.000109647
9.45138e-05
-0.000171009
0.000109947
-0.000238668
0.000122721
-0.000311042
0.000132576
-0.000386545
0.000139361
-0.000463472
0.000142949
-0.000540187
0.000143295
-0.00061496
0.000140355
-0.000686095
0.000134111
-0.000752002
0.000124752
-0.000811194
0.000112458
-0.000862283
9.74124e-05
-0.000904033
7.99321e-05
-0.000935313
6.02266e-05
-0.000955486
3.91089e-05
-0.000963622
1.6337e-05
-0.000958994
-8.65169e-06
-0.000941981
-3.30961e-05
-0.00091287
-5.68085e-05
-0.000872004
-7.97447e-05
-0.000819969
-0.00010166
-0.000757623
-0.000122044
-0.000686032
-0.000140508
-0.000606431
-0.000156677
-0.00052026
-0.000170143
-0.000429038
-0.000180734
-0.000334328
-0.000188237
-0.000237819
-0.000192512
-0.000141146
-0.000193515
-4.59416e-05
-0.000191318
4.62805e-05
-0.00018604
0.00013398
-0.000177738
0.000215907
-0.000166785
0.00029077
-0.000153234
0.000357617
-0.000137669
0.000415579
-0.000120236
0.00046403
-0.000101461
0.000502549
-8.16751e-05
0.000530882
-6.12834e-05
0.000548947
-4.06246e-05
0.000556925
-2.01922e-05
0.000555163
-2.82986e-07
0.000544109
1.87281e-05
0.00052441
3.66299e-05
0.000496775
5.30686e-05
0.000462089
6.78859e-05
0.000421239
8.08584e-05
0.000375248
9.18466e-05
0.000325102
0.000100823
0.000271858
0.000107647
0.000216577
0.000112396
0.0001602
0.000115063
0.000103786
0.000115646
4.82393e-05
0.000114364
-5.69626e-06
0.000111306
-5.7128e-05
0.000106577
-0.00010541
0.000100382
-0.000149886
9.28527e-05
-0.000190077
8.42245e-05
-0.000225543
7.46616e-05
-0.000255978
6.44041e-05
-0.000281156
5.36217e-05
-0.000300945
4.25187e-05
-0.00031531
3.12848e-05
-0.000324284
2.00943e-05
-0.000327998
9.09565e-06
-0.000326664
-1.45266e-06
-0.00032053
-1.15328e-05
-0.000309892
-2.10083e-05
-0.000295111
-2.97593e-05
-0.000276594
-3.7686e-05
-0.000254763
-4.47383e-05
-0.000230078
-5.08423e-05
-0.000202996
-5.59991e-05
-0.000174017
-6.01229e-05
-0.000143605
-6.32627e-05
-0.000112222
-6.54341e-05
-8.03407e-05
-6.66254e-05
-4.8408e-05
-6.68838e-05
-1.67872e-05
-6.63197e-05
1.40822e-05
-6.48759e-05
4.38936e-05
-6.27457e-05
7.22916e-05
-5.98817e-05
9.90331e-05
-5.64666e-05
0.000123834
-5.24839e-05
0.000146542
-4.81082e-05
0.000166955
-4.33583e-05
0.000184986
-3.83553e-05
0.000200531
-3.31658e-05
0.000213537
-2.78409e-05
0.00022402
-2.2513e-05
0.000231969
-1.71922e-05
0.000237434
-1.1956e-05
0.000240513
-6.91795e-06
0.000241318
-2.10006e-06
0.000239987
2.42208e-06
0.000236675
6.62739e-06
0.000231545
1.04853e-05
0.000224802
1.39345e-05
0.000216613
1.70066e-05
0.000207219
1.95947e-05
0.0001968
2.17802e-05
0.000185615
2.34556e-05
0.000173843
2.47334e-05
0.000161691
2.55807e-05
0.000149364
2.60191e-05
0.000136957
2.61716e-05
0.000124696
2.59342e-05
0.000112672
2.54595e-05
0.000101008
2.4746e-05
8.97546e-05
2.38631e-05
7.90158e-05
2.2815e-05
6.88533e-05
2.16576e-05
5.92498e-05
2.04564e-05
5.02373e-05
1.92338e-05
4.1791e-05
1.80294e-05
3.39014e-05
1.68895e-05
2.64905e-05
1.58664e-05
1.94973e-05
1.4994e-05
1.28326e-05
1.432e-05
6.38124e-06
1.38862e-05
1.3733e-05
-2.70786e-05
0.000182278
-5.54936e-05
0.000185867
-8.67144e-05
0.000192021
-0.000122028
0.000200329
-0.000162752
0.000210758
-0.000210221
0.000223296
-0.000265672
0.000237801
-0.000330238
0.000254111
-0.000404865
0.00027201
-0.000490503
0.000291154
-0.000587603
0.000311159
-0.000696706
0.00033162
-0.000817869
0.000352125
-0.000950973
0.000372048
-0.00109583
0.000391
-0.00125094
0.000408381
-0.00141564
0.000423691
-0.0015883
0.000436527
-0.0017672
0.000446391
-0.00195054
0.000452892
-0.00213633
0.000455676
-0.00232239
0.000454468
-0.00250648
0.000449087
-0.00268647
0.000439366
-0.00286003
0.000425293
-0.00302506
0.000406963
-0.00317958
0.000384494
-0.00332186
0.000358211
-0.0034503
0.000328434
-0.0035636
0.000295454
-0.00366082
0.000259911
-0.00374124
0.000222021
-0.00380425
0.000182329
-0.00384956
0.000141331
-0.00387722
9.92658e-05
-0.00388787
5.68542e-05
-0.00388219
1.49794e-05
-0.00385803
-2.89672e-05
-0.00381716
-7.1412e-05
-0.00376046
-0.000112849
-0.00368865
-0.00015322
-0.00360249
-0.00019233
-0.00350277
-0.000229927
-0.00339034
-0.000265817
-0.00326611
-0.000299756
-0.00313104
-0.000331531
-0.00298612
-0.00036098
-0.00283244
-0.000387832
-0.00267103
-0.000412036
-0.00250316
-0.000433225
-0.00232986
-0.000451488
-0.00215238
-0.00046654
-0.00197204
-0.000478166
-0.00179006
-0.000486448
-0.00160767
-0.000491229
-0.00142619
-0.000492438
-0.00124711
-0.000489706
-0.00107158
-0.000483591
-0.000901247
-0.000473323
-0.000737196
-0.000459788
-0.00058061
-0.000442656
-0.000433131
-0.000421682
-0.000295363
-0.000397729
-0.000168676
-0.000370522
-5.40622e-05
-0.000340327
4.77967e-05
-0.000307645
0.000135825
-0.000272491
0.000209313
-0.000235241
0.00026771
-0.000196384
0.000310843
-0.000156393
0.00033843
-0.000115727
0.000350618
-7.48951e-05
0.000347673
-3.43328e-05
0.000329889
5.4582e-06
0.000298164
4.37582e-05
0.000253245
8.00162e-05
0.000196071
0.000113847
0.000128052
0.000144644
5.07302e-05
0.000171836
-3.43584e-05
0.000195035
-0.000125749
0.000214111
-0.000221379
0.000228206
-0.00031939
0.000237372
-0.000417743
0.000241303
-0.00051446
0.000240012
-0.000607567
0.000233462
-0.000695126
0.000221669
-0.000775312
0.000204938
-0.000846382
0.000183527
-0.000906883
0.000157914
-0.000955637
0.000128686
-0.00099151
9.61004e-05
-0.00101367
6.12636e-05
-0.00102163
2.43023e-05
-0.00101476
-1.55172e-05
-0.000993853
-5.40076e-05
-0.000959159
-9.15029e-05
-0.000911208
-0.000127696
-0.000850939
-0.000161928
-0.000779488
-0.000193495
-0.000698354
-0.000221643
-0.000609081
-0.00024595
-0.000513444
-0.000265779
-0.000413234
-0.000280944
-0.000310296
-0.000291176
-0.00020653
-0.000296278
-0.00010373
-0.000296315
-3.64155e-06
-0.000291406
9.20593e-05
-0.000281741
0.000181884
-0.000267563
0.000264534
-0.000249435
0.000338853
-0.000227552
0.00040391
-0.000202727
0.000458934
-0.00017526
0.000503471
-0.000145997
0.000537353
-0.000115557
0.000560461
-8.43923e-05
0.000572906
-5.30689e-05
0.000574994
-2.22803e-05
0.000567422
7.28929e-06
0.000550666
3.54833e-05
0.00052559
6.17066e-05
0.000492992
8.5666e-05
0.000453893
0.000106985
0.000409278
0.000125474
0.000360234
0.00014089
0.000307749
0.000153308
0.000252903
0.000162494
0.000196745
0.000168554
0.000140274
0.000171534
8.4329e-05
0.000171591
2.98754e-05
0.000168818
-2.23663e-05
0.000163547
-7.16589e-05
0.00015587
-0.000117407
0.00014613
-0.000159102
0.000134548
-0.000196324
0.000121447
-0.000228736
0.000107074
-0.0002561
9.17685e-05
-0.00027826
7.57811e-05
-0.000295176
5.94351e-05
-0.000306858
4.29667e-05
-0.00031342
2.66567e-05
-0.000314958
1.0633e-05
-0.000311854
-4.55664e-06
-0.000304298
-1.90887e-05
-0.00029263
-3.26764e-05
-0.000277223
-4.51661e-05
-0.000258481
-5.64276e-05
-0.000236828
-6.63913e-05
-0.000212682
-7.49882e-05
-0.000186506
-8.21758e-05
-0.000158779
-8.78498e-05
-0.000129882
-9.21594e-05
-0.000100295
-9.50216e-05
-7.04459e-05
-9.64743e-05
-4.06274e-05
-9.67022e-05
-1.13444e-05
-9.56028e-05
1.71138e-05
-9.33342e-05
4.44442e-05
-9.0076e-05
7.03481e-05
-8.57857e-05
9.46145e-05
-8.0733e-05
0.000117015
-7.48847e-05
0.000137397
-6.84899e-05
0.000155614
-6.15755e-05
0.000171584
-5.43248e-05
0.000185241
-4.68227e-05
0.000196557
-3.91576e-05
0.000205543
-3.14987e-05
0.000212211
-2.386e-05
0.000216645
-1.63896e-05
0.000218896
-9.16978e-06
0.000219086
-2.28989e-06
0.000217388
4.12066e-06
0.000213889
1.01259e-05
0.000208765
1.56098e-05
0.000202186
2.05128e-05
0.000194382
2.48108e-05
0.000185509
2.84678e-05
0.000175811
3.14778e-05
0.000165419
3.38478e-05
0.000154566
3.55864e-05
0.000143421
3.67259e-05
0.000132127
3.73129e-05
0.000120909
3.73903e-05
0.000109802
3.70407e-05
9.89866e-05
3.6275e-05
8.85229e-05
3.52097e-05
7.84799e-05
3.39061e-05
6.89303e-05
3.23647e-05
5.98749e-05
3.0713e-05
5.14058e-05
2.89255e-05
4.34697e-05
2.71699e-05
3.60648e-05
2.54344e-05
2.91789e-05
2.37754e-05
2.27477e-05
2.22975e-05
1.67169e-05
2.10249e-05
1.09859e-05
2.0051e-05
5.4541e-06
1.9418e-05
1.91871e-05
5.04935e-05
0.000131785
9.89245e-05
0.000137436
0.000142763
0.000148182
0.000178597
0.000164495
0.000204267
0.000185087
0.000216251
0.000211311
0.000211574
0.000242478
0.000187892
0.000277793
0.000143085
0.000316818
7.54647e-05
0.000358774
-1.58717e-05
0.000402496
-0.000131335
0.000447083
-0.000270718
0.000491508
-0.000433271
0.000534602
-0.000617684
0.000575413
-0.00082229
0.000612987
-0.00104482
0.000646216
-0.00128258
0.000674289
-0.00153237
0.000696179
-0.00179086
0.000711388
-0.0020542
0.000719015
-0.00231867
0.000718935
-0.00257986
0.000710273
-0.00283433
0.000693843
-0.00307775
0.00066871
-0.00330667
0.000635888
-0.00351774
0.000595559
-0.00370809
0.000548556
-0.00387554
0.000495892
-0.00401852
0.000438435
-0.00413574
0.000377128
-0.00422671
0.000312993
-0.00429139
0.000247011
-0.00432991
0.000179846
-0.00434275
0.000112106
-0.00433214
4.62444e-05
-0.00429903
-1.81277e-05
-0.00424626
-8.17366e-05
-0.00417394
-0.000143739
-0.00408302
-0.000203771
-0.00397473
-0.000261506
-0.00385035
-0.00031671
-0.00371124
-0.000369041
-0.00355871
-0.000418345
-0.00339408
-0.000464388
-0.00321868
-0.00050693
-0.00303379
-0.000545871
-0.00284076
-0.000580858
-0.0026409
-0.000611891
-0.00243533
-0.000638804
-0.00222556
-0.000661257
-0.00201317
-0.000678926
-0.00179933
-0.000692009
-0.00158552
-0.000700257
-0.00137329
-0.000703458
-0.00116405
-0.000701676
-0.000959367
-0.00069439
-0.000760271
-0.000682686
-0.000568639
-0.000664955
-0.000385479
-0.000642949
-0.00021292
-0.000615214
-5.1373e-05
-0.000583229
9.73722e-05
-0.000546474
0.000231884
-0.000505034
0.000351128
-0.000459571
0.000453969
-0.000410485
0.000539853
-0.000358375
0.000608085
-0.000303473
0.00065817
-0.000246469
0.000689806
-0.000188029
0.000702994
-0.000128915
0.000698011
-6.99122e-05
0.000675382
-1.17042e-05
0.000635307
4.55331e-05
0.000579004
0.000100062
0.000507657
0.000151363
0.000422667
0.000198837
0.000325642
0.000241669
0.000218422
0.000279056
0.000103046
0.000310411
-1.81472e-05
0.000335304
-0.000143033
0.000353092
-0.000269248
0.000363587
-0.000394324
0.000366379
-0.000515876
0.000361564
-0.000631552
0.000349138
-0.00073911
0.000329227
-0.000836431
0.00030226
-0.000921785
0.000268881
-0.000993377
0.000229506
-0.0010495
0.000184807
-0.00108979
0.000136391
-0.00111262
8.4089e-05
-0.0011189
3.05904e-05
-0.00110767
-2.67549e-05
-0.00107995
-8.17265e-05
-0.00103612
-0.000135325
-0.000977224
-0.000186596
-0.000904562
-0.000234591
-0.000819838
-0.000278219
-0.00072496
-0.000316521
-0.000621855
-0.000349054
-0.000512822
-0.000374812
-0.000399724
-0.000394043
-0.000284996
-0.000405904
-0.000170763
-0.00041051
-5.90641e-05
-0.000408014
4.82774e-05
-0.000398747
0.000149377
-0.000382841
0.000242893
-0.000361079
0.000327366
-0.000333908
0.000401791
-0.000301978
0.000465278
-0.000266213
0.000517413
-0.000227395
0.000557828
-0.000186412
0.000586519
-0.000144248
0.000603654
-0.000101528
0.000609541
-5.89554e-05
0.00060478
-1.75196e-05
0.000590264
2.18055e-05
0.000566676
5.90706e-05
0.000534985
9.3398e-05
0.000496258
0.000124393
0.000451546
0.000151697
0.000402028
0.000174992
0.000348698
0.00019422
0.000292805
0.000209201
0.00023534
0.000219959
0.000177466
0.000226428
0.000119882
0.000229118
6.3792e-05
0.000227681
9.7239e-06
0.000222886
-4.1487e-05
0.000214758
-8.9191e-05
0.000203574
-0.000132978
0.000189917
-0.000172341
0.000173911
-0.000206907
0.000156012
-0.000236477
0.000136644
-0.000260904
0.000116195
-0.000280136
9.50126e-05
-0.000294189
7.3489e-05
-0.000303135
5.19126e-05
-0.000307179
3.07e-05
-0.000306604
1.00588e-05
-0.000301552
-9.60894e-06
-0.000292374
-2.82664e-05
-0.000279433
-4.56181e-05
-0.000263122
-6.14763e-05
-0.000243831
-7.57191e-05
-0.000221971
-8.82512e-05
-0.000198018
-9.89416e-05
-0.000172373
-0.00010782
-0.000145425
-0.000114797
-0.000117646
-0.000119938
-8.94122e-05
-0.000123256
-6.1102e-05
-0.000124784
-3.31355e-05
-0.000124669
-5.79385e-06
-0.000122944
2.06412e-05
-0.000119769
4.58564e-05
-0.000115291
6.96206e-05
-0.00010955
9.17186e-05
-0.000102831
0.000112013
-9.51793e-05
0.000130324
-8.6801e-05
0.000146587
-7.78384e-05
0.000160703
-6.84408e-05
0.000172663
-5.87827e-05
0.000182425
-4.89193e-05
0.000190038
-3.91115e-05
0.00019554
-2.93626e-05
0.000198971
-1.982e-05
0.000200422
-1.06212e-05
0.000200028
-1.89536e-06
0.000197892
6.2566e-06
0.000194136
1.38816e-05
0.000188961
2.07853e-05
0.000182486
2.69875e-05
0.000174934
3.2363e-05
0.000166473
3.69282e-05
0.000157298
4.0653e-05
0.000147556
4.35904e-05
0.000137457
4.56852e-05
0.000127167
4.70162e-05
0.000116809
4.76704e-05
0.000106542
4.76574e-05
9.64758e-05
4.71067e-05
8.67018e-05
4.60491e-05
7.72977e-05
4.46137e-05
6.83006e-05
4.29033e-05
5.97834e-05
4.08818e-05
5.1799e-05
3.86974e-05
4.42723e-05
3.64523e-05
3.73179e-05
3.41243e-05
3.08872e-05
3.1865e-05
2.48992e-05
2.97634e-05
1.93569e-05
2.78398e-05
1.41709e-05
2.62108e-05
9.29405e-06
2.49279e-05
4.60484e-06
2.41072e-05
2.37919e-05
0.000197979
-6.61942e-05
0.000392841
-5.74269e-05
0.000575657
-3.46339e-05
0.000736181
3.97045e-06
0.000874627
4.66413e-05
0.000989113
9.68254e-05
0.00107291
0.000158684
0.00111955
0.000231147
0.00112363
0.000312734
0.00108106
0.000401352
0.000989691
0.000493862
0.000849028
0.000587746
0.000660209
0.000680327
0.000425823
0.000768988
0.000149568
0.000851668
-0.000163841
0.000926396
-0.000508926
0.000991301
-0.000879772
0.00104514
-0.0012701
0.0010865
-0.00167285
0.00111414
-0.00208078
0.00112695
-0.00248603
0.00112419
-0.00288123
0.00110547
-0.00325805
0.00107066
-0.00360975
0.00102041
-0.00392939
0.000955527
-0.0042113
0.000877475
-0.00445193
0.000789183
-0.00464948
0.000693443
-0.00480384
0.000592799
-0.00491663
0.000489913
-0.0049901
0.000386461
-0.00502711
0.000284028
-0.00503078
0.000183513
-0.00500559
8.69165e-05
-0.00495278
-6.56673e-06
-0.00486897
-0.000101942
-0.00476118
-0.000189524
-0.00463261
-0.000272306
-0.00448558
-0.000350798
-0.00432208
-0.000425012
-0.00414382
-0.000494964
-0.00395231
-0.000560556
-0.00374896
-0.000621695
-0.00353517
-0.000678181
-0.00331246
-0.000729634
-0.00308193
-0.000776398
-0.00284489
-0.000817904
-0.00260266
-0.000854125
-0.00235708
-0.00088438
-0.00210907
-0.000909266
-0.00186003
-0.000927963
-0.00161147
-0.000940571
-0.00136467
-0.000947054
-0.00112121
-0.000946927
-0.000882446
-0.000940436
-0.000650512
-0.000926324
-0.000426786
-0.000906413
-0.000213039
-0.000878702
-1.0751e-05
-0.000845237
0.000178859
-0.000804824
0.000353717
-0.000758087
0.00051233
-0.000705087
0.000653591
-0.000646294
0.000776482
-0.000582462
0.000879773
-0.000513776
0.000962575
-0.000441177
0.00102423
-0.00036513
0.00106432
-0.000286555
0.00108263
-0.000206337
0.00107927
-0.000125556
0.00105442
-4.50677e-05
0.00100867
3.40513e-05
0.000943486
0.000110714
0.000859742
0.000183806
0.000758945
0.00025216
0.000642898
0.000314884
0.000513778
0.000370789
0.000373787
0.000419046
0.000225532
0.000458667
7.15773e-05
0.000489258
-8.51416e-05
0.000509811
-0.000241817
0.000520263
-0.000395522
0.000520084
-0.000543443
0.000509484
-0.000682947
0.000488643
-0.000811255
0.000457534
-0.000926001
0.000417006
-0.00102491
0.000367793
-0.00110625
0.00031084
-0.00116933
0.000247886
-0.00121192
0.000178981
-0.00123447
0.000106645
-0.00123569
3.18064e-05
-0.00121786
-4.45866e-05
-0.00118056
-0.000119023
-0.00112474
-0.00019114
-0.00105211
-0.000259234
-0.000964376
-0.000322321
-0.00086385
-0.000378744
-0.000752814
-0.000427557
-0.000633824
-0.000468045
-0.00050925
-0.000499386
-0.000382005
-0.000521289
-0.000254378
-0.00053353
-0.000128886
-0.000536003
-7.85051e-06
-0.000529049
0.000106917
-0.000513515
0.000213343
-0.000489267
0.000310186
-0.000457922
0.000396081
-0.000419803
0.000470021
-0.000375917
0.000531455
-0.000327647
0.000579905
-0.000275845
0.000615531
-0.000222039
0.000638373
-0.00016709
0.000648851
-0.000112006
0.000647433
-5.75374e-05
0.000635424
-5.51091e-06
0.000613418
4.38114e-05
0.000582589
8.98994e-05
0.000544037
0.00013195
0.000498951
0.000169479
0.000448408
0.00020224
0.00039382
0.00022958
0.00033636
0.00025168
0.000277056
0.000268505
0.0002171
0.000279914
0.000157344
0.000286184
9.8936e-05
0.000287527
4.25341e-05
0.000284083
-1.10448e-05
0.000276465
-6.10986e-05
0.000264812
-0.000107324
0.000249799
-0.000149052
0.000231645
-0.000186002
0.000210861
-0.000217909
0.000187919
-0.00024478
0.000163515
-0.00026644
0.000137856
-0.000282906
0.000111479
-0.000294215
8.47976e-05
-0.000300618
5.83153e-05
-0.000302285
3.23675e-05
-0.000299461
7.23467e-06
-0.000292533
-1.65374e-05
-0.000281797
-3.90024e-05
-0.000267615
-5.97997e-05
-0.000250432
-7.86598e-05
-0.000230577
-9.55741e-05
-0.00020852
-0.000110308
-0.000184659
-0.000122803
-0.00015943
-0.000133049
-0.00013319
-0.000141038
-0.000106377
-0.000146751
-7.93512e-05
-0.000150282
-5.24862e-05
-0.000151649
-2.61043e-05
-0.000151051
-4.88146e-07
-0.000148561
2.40954e-05
-0.000144353
4.73886e-05
-0.000138585
6.92317e-05
-0.000131393
8.93758e-05
-0.000122975
0.000107752
-0.000113556
0.000124194
-0.000103243
0.000138686
-9.23308e-05
0.000151135
-8.08891e-05
0.000161564
-6.92124e-05
0.000169949
-5.73039e-05
0.000176339
-4.55013e-05
0.000180782
-3.38053e-05
0.000183306
-2.2344e-05
0.000184045
-1.1361e-05
0.000183096
-9.46443e-07
0.000180549
8.80353e-06
0.000176578
1.7853e-05
0.00017133
2.6033e-05
0.000164973
3.33449e-05
0.000157643
3.96926e-05
0.00014955
4.50217e-05
0.000140813
4.93898e-05
0.000131663
5.27408e-05
0.000122231
5.51168e-05
0.00011268
5.65669e-05
0.000103172
5.71789e-05
9.37968e-05
5.70325e-05
8.46761e-05
5.62274e-05
7.58402e-05
5.48849e-05
6.73451e-05
5.31088e-05
5.9321e-05
5.09274e-05
5.17173e-05
4.84854e-05
4.45822e-05
4.58325e-05
3.79961e-05
4.30384e-05
3.18838e-05
4.02366e-05
2.62527e-05
3.74961e-05
2.10894e-05
3.49267e-05
1.63222e-05
3.2607e-05
1.19103e-05
3.06227e-05
7.78535e-06
2.90529e-05
3.85266e-06
2.80399e-05
2.76446e-05
0.000419349
-0.000485543
0.00083607
-0.000474148
0.0012403
-0.000438861
0.00162582
-0.000381554
0.00197399
-0.000301528
0.00226859
-0.000197776
0.00249221
-6.49304e-05
0.00262949
9.38622e-05
0.00268312
0.00025911
0.00265142
0.000433043
0.00253607
0.000609212
0.00234185
0.000781971
0.00207394
0.000948237
0.00173819
0.00110474
0.00134046
0.0012494
0.000887097
0.00137976
0.0003852
0.0014932
-0.000156926
0.00158726
-0.00072975
0.00165933
-0.00132245
0.00170684
-0.00192293
0.00172742
-0.00251869
0.00171995
-0.00309702
0.00168379
-0.00364462
0.00161827
-0.00414987
0.00152566
-0.00460031
0.00140596
-0.00498576
0.00126293
-0.00529315
0.00109657
-0.00552702
0.000927309
-0.00568907
0.000754855
-0.00578667
0.000587514
-0.00582647
0.00042626
-0.00581424
0.000271797
-0.00575752
0.000126791
-0.00566606
-4.55017e-06
-0.00554239
-0.000130232
-0.00539656
-0.000247778
-0.00522823
-0.000357853
-0.00503987
-0.000460663
-0.00483411
-0.000556561
-0.00461349
-0.000645623
-0.00438001
-0.000728448
-0.00413566
-0.000804903
-0.00388228
-0.000875076
-0.00362099
-0.000939478
-0.00335301
-0.000997611
-0.00307985
-0.00104955
-0.00280282
-0.00109494
-0.00252266
-0.00113428
-0.00224075
-0.0011663
-0.00195811
-0.0011919
-0.00167613
-0.00120994
-0.00139623
-0.00122047
-0.00111967
-0.00122361
-0.000848834
-0.00121776
-0.000584511
-0.00120476
-0.000329154
-0.00118168
-8.41921e-05
-0.00115137
0.000149326
-0.00111222
0.000368714
-0.00106462
0.000572281
-0.00100839
0.000758416
-0.000944223
0.00092566
-0.000872331
0.00107229
-0.000792923
0.00119718
-0.000707352
0.00129918
-0.000615775
0.00137724
-0.000519237
0.00143074
-0.00041863
0.0014592
-0.000315012
0.00146262
-0.000209759
0.00144105
-0.000103992
0.00139509
8.99853e-07
0.00132563
0.000103508
0.00123379
0.000202558
0.00112121
0.000296382
0.00098981
0.000383558
0.000841771
0.000462923
0.000679596
0.000532965
0.000506145
0.000592497
0.00032445
0.000640362
0.000137588
0.00067612
-5.10586e-05
0.000698458
-0.000238011
0.000707215
-0.00041994
0.000702013
-0.000593513
0.000683057
-0.000755503
0.000650632
-0.000903069
0.000605101
-0.00103336
0.000547296
-0.00114422
0.000478655
-0.00123394
0.000400554
-0.00130067
0.000314625
-0.00134379
0.000222099
-0.00136339
0.00012624
-0.00135852
2.69406e-05
-0.00133109
-7.20181e-05
-0.0012816
-0.000168511
-0.00121176
-0.000260986
-0.00112349
-0.0003475
-0.00101922
-0.000426592
-0.000901725
-0.000496239
-0.000773758
-0.000555524
-0.000638201
-0.000603602
-0.000498428
-0.000639159
-0.00035709
-0.000662627
-0.000217294
-0.000673326
-8.13838e-05
-0.000671913
4.812e-05
-0.000658553
0.000169183
-0.000634578
0.000279771
-0.000599855
0.000378684
-0.000556835
0.000464656
-0.000505775
0.000536894
-0.000448155
0.000595094
-0.000385848
0.000639076
-0.000319827
0.000668984
-0.000251947
0.000685269
-0.000183375
0.000688588
-0.000115324
0.000679779
-4.87283e-05
0.00066045
1.38187e-05
0.000631078
7.31827e-05
0.000593155
0.000127823
0.000548063
0.000177042
0.000497041
0.000220501
0.000441415
0.000257866
0.000382372
0.000288624
0.000321353
0.000312698
0.000259254
0.000330605
0.000197326
0.000341843
0.000136517
0.000346993
7.77127e-05
0.000346331
2.16515e-05
0.000340144
-3.10242e-05
0.000329141
-7.97917e-05
0.000313579
-0.000124091
0.000294098
-0.000163588
0.000271143
-0.000198087
0.000245359
-0.000227517
0.00021735
-0.000251606
0.000187603
-0.000270474
0.000156724
-0.000284214
0.000125219
-0.000292969
9.35526e-05
-0.00029692
6.22662e-05
-0.000296345
3.17925e-05
-0.000291675
2.56477e-06
-0.000283087
-2.5126e-05
-0.00027098
-5.11089e-05
-0.000255769
-7.5011e-05
-0.000237828
-9.66007e-05
-0.000217582
-0.00011582
-0.000195465
-0.000132425
-0.000171832
-0.000146436
-0.000147119
-0.000157762
-0.000121656
-0.000166501
-9.58573e-05
-0.00017255
-7.00551e-05
-0.000176084
-4.45949e-05
-0.00017711
-1.97198e-05
-0.000175926
4.24931e-06
-0.00017253
2.71042e-05
-0.000167208
4.86335e-05
-0.000160114
6.8653e-05
-0.000151413
8.70403e-05
-0.000141362
0.000103627
-0.000130142
0.000118402
-0.000118018
0.000131255
-0.000105183
0.000142229
-9.18637e-05
0.000151265
-7.82478e-05
0.000158438
-6.4477e-05
0.000163741
-5.0804e-05
0.000167214
-3.7279e-05
0.000168989
-2.41186e-05
0.000169112
-1.14845e-05
0.000167693
4.73173e-07
0.000164855
1.16408e-05
0.000160736
2.19729e-05
0.000155448
3.13208e-05
0.000149179
3.96135e-05
0.000142122
4.675e-05
0.00013433
5.28136e-05
0.000126071
5.76484e-05
0.00011747
6.13425e-05
0.000108675
6.39115e-05
9.98176e-05
6.54242e-05
9.10369e-05
6.59596e-05
8.24666e-05
6.56028e-05
7.41553e-05
6.45388e-05
6.61784e-05
6.28618e-05
5.85582e-05
6.0729e-05
5.13472e-05
5.81383e-05
4.45691e-05
5.52636e-05
3.8276e-05
5.21256e-05
3.2443e-05
4.88713e-05
2.71078e-05
4.55718e-05
2.22324e-05
4.23715e-05
1.77608e-05
3.93983e-05
1.36823e-05
3.66855e-05
9.94298e-06
3.4362e-05
6.47443e-06
3.25214e-05
3.19828e-06
3.13161e-05
3.08428e-05