#           v             n
     0.523599   0.000893771
     0.648652   0.000224634
     0.790112   0.000281049
     0.953116   0.000367032
      1.13449   0.000473906
      1.34047   0.000634806
      1.56672    0.00083553
      1.82069     0.0011317
      2.09677    0.00149331
      2.40376    0.00200732
      2.73462    0.00259937
      3.09966     0.0033864
      3.49026    0.00418933
      3.91837    0.00513382
      4.37366    0.00586409
      4.86986     0.0065065
       5.3948    0.00656546
      5.96412    0.00627097
      6.56366    0.00525935
      7.21112    0.00401434
      7.89023    0.00252724
      8.62085     0.0013274
      9.38447   0.000479888
      10.2033   9.91518e-05
      11.0564             0
      11.9684             0
      12.9159             0
      13.9262             0
      14.9731             0
