/*--------------------------------*- C++ -*----------------------------------*\
  =========                 |
  \\      /  F ield         | OpenFOAM: The Open Source CFD Toolbox
   \\    /   O peration     | Website:  https://openfoam.org
    \\  /    A nd           | Version:  12
     \\/     M anipulation  |
\*---------------------------------------------------------------------------*/
FoamFile
{
    format      ascii;
    class       volScalarField;
    location    "0.25";
    object      epsilon;
}
// * * * * * * * * * * * * * * * * * * * * * * * * * * * * * * * * * * * * * //

dimensions      [0 2 -3 0 0 0 0];

internalField   nonuniform List<scalar> 
12225
(
278.515
263.66
249.434
236.839
226.738
219.483
215.069
213.262
213.705
215.989
219.71
224.5
230.038
236.06
242.364
248.781
255.347
264.853
61.116
86.6952
97.9911
107.207
118.464
132.555
149.408
168.608
189.572
211.674
234.325
257.012
279.331
300.985
321.878
341.847
362.402
380.93
25.2776
36.183
43.3817
48.6212
53.3861
58.3357
63.7698
69.8243
76.5243
83.8213
91.6253
99.8267
108.314
116.987
125.779
134.667
143.8
153.17
17.5217
21.2986
24.7145
27.6099
30.1618
32.5399
34.8664
37.2275
39.6764
42.2396
44.9246
47.7268
50.6351
53.6372
56.724
59.9031
63.1925
66.6179
15.4878
16.7519
18.1858
19.5889
20.9094
22.1489
23.3262
24.465
25.5861
26.7047
27.8307
28.9696
30.1243
31.2963
32.4871
33.7016
34.9445
36.2125
14.9084
15.2396
15.7463
16.334
16.9476
17.5589
18.1558
18.7355
19.3
19.8524
20.3959
20.9331
21.4663
21.997
22.5271
23.0589
23.594
24.1267
14.7451
14.7391
14.8342
15.0036
15.2215
15.4679
15.7285
15.9948
16.2619
16.5273
16.7901
17.0497
17.3063
17.5601
17.8117
18.0617
18.3106
18.5543
14.7012
14.5825
14.5116
14.4858
14.4981
14.5403
14.6043
14.6837
14.7736
14.8707
14.9724
15.0771
15.1836
15.2912
15.3994
15.5081
15.6171
15.7235
14.6901
14.5373
14.407
14.3009
14.2182
14.1571
14.1145
14.0875
14.0732
14.0692
14.0735
14.0844
14.1006
14.1211
14.1452
14.1721
14.2015
14.2317
14.6874
14.5252
14.3761
14.2411
14.1204
14.0137
13.9203
13.8391
13.7688
13.7083
13.6564
13.6119
13.574
13.5418
13.5147
13.4919
13.473
13.4572
14.6868
14.5221
14.3677
14.2236
14.0896
13.9656
13.8512
13.746
13.6495
13.5611
13.4801
13.4061
13.3383
13.2764
13.2197
13.1678
13.1203
13.0771
14.6866
14.5213
14.3656
14.219
14.0812
13.9518
13.8305
13.7169
13.6105
13.5111
13.4182
13.3314
13.2504
13.1747
13.104
13.038
12.9764
12.9194
14.6865
14.521
14.3648
14.2175
14.0785
13.9473
13.8234
13.7065
13.5963
13.4922
13.3941
13.3016
13.2143
13.1319
13.0543
12.981
12.912
12.8476
14.6864
14.5208
14.3645
14.2169
14.0774
13.9456
13.8209
13.7029
13.5913
13.4855
13.3853
13.2904
13.2005
13.1153
13.0345
12.9579
12.8853
12.8172
14.6864
14.5207
14.3643
14.2165
14.0769
13.9449
13.8199
13.7016
13.5895
13.4832
13.3824
13.2868
13.196
13.1098
13.0279
12.9501
12.8762
12.8068
14.6863
14.5206
14.3641
14.2163
14.0766
13.9444
13.8194
13.7009
13.5886
13.4822
13.3812
13.2854
13.1943
13.1079
13.0257
12.9475
12.8732
12.8034
14.6863
14.5205
14.364
14.2161
14.0763
13.9441
13.8189
13.7004
13.5881
13.4815
13.3805
13.2845
13.1934
13.1068
13.0245
12.9462
12.8718
12.8018
14.6863
14.5204
14.3639
14.216
14.0761
13.9439
13.8186
13.7001
13.5877
13.4811
13.3799
13.2839
13.1927
13.1061
13.0237
12.9454
12.8709
12.8008
14.6863
14.5204
14.3639
14.2159
14.0761
13.9438
13.8186
13.6999
13.5875
13.4809
13.3797
13.2837
13.1924
13.1057
13.0233
12.9449
12.8704
12.8002
14.6863
14.5205
14.3639
14.216
14.0762
13.9439
13.8187
13.7001
13.5877
13.4811
13.38
13.284
13.1928
13.1061
13.0237
12.9453
12.8709
12.8007
14.6863
14.5205
14.364
14.2162
14.0764
13.9443
13.8192
13.7007
13.5885
13.4821
13.3812
13.2854
13.1945
13.1082
13.0262
12.9482
12.8742
12.8046
14.6863
14.5206
14.3643
14.2167
14.0773
13.9457
13.8214
13.7039
13.5928
13.4878
13.3886
13.2947
13.2059
13.1218
13.0423
12.9669
12.8956
12.8288
14.6865
14.5212
14.3659
14.2202
14.0837
13.956
13.8368
13.7256
13.6218
13.525
13.4348
13.3506
13.272
13.1986
13.13
13.0659
13.006
12.9505
14.6876
14.5264
14.3793
14.2467
14.1282
14.0231
13.9302
13.8484
13.7762
13.7126
13.6565
13.6068
13.5628
13.5237
13.489
13.4581
13.4306
13.4066
14.6976
14.5664
14.4707
14.4075
14.3715
14.3568
14.3585
14.372
14.3941
14.4224
14.4551
14.4908
14.5287
14.5681
14.6085
14.6497
14.6913
14.7333
14.7737
14.8187
14.9603
15.1591
15.3863
15.6233
15.8598
16.0905
16.3134
16.5284
16.7359
16.9365
17.1313
17.3211
17.5066
17.6884
17.8669
18.0418
15.2587
16.1151
17.0712
17.9727
18.7879
19.5239
20.1945
20.8149
21.3989
21.9574
22.4988
23.0291
23.5528
24.0727
24.5904
25.1069
25.6224
26.1343
18.0414
22.0079
24.9885
27.1532
28.8883
30.405
31.8126
33.1786
34.544
35.9314
37.3517
38.8088
40.3018
41.8268
43.3781
44.9495
46.5343
48.1196
34.024
45.6879
51.3769
54.9426
58.0812
61.2984
64.7515
68.4842
72.4805
76.6976
81.0852
85.5935
90.176
94.791
99.4028
103.982
108.514
112.971
163.308
157.417
151.704
146.261
141.3
136.947
133.25
130.206
127.781
125.919
124.559
123.637
123.094
122.871
122.918
123.188
123.642
124.243
0.199178
0.245949
0.407629
0.550754
0.698528
0.87366
1.07694
1.31466
1.59379
1.90593
2.23569
2.58324
2.94613
3.32133
3.7058
4.09668
4.4913
4.88712
5.28171
5.6727
6.05767
6.43413
6.79936
7.15041
7.48411
7.79729
8.087
8.35079
8.58676
8.79311
8.96691
9.10227
9.19002
9.22709
9.24517
9.30927
9.23311
39.9352
40.0157
9.40448
9.47294
9.46806
9.42137
40.4113
42.6318
45.5806
48.7508
52.107
55.6405
59.3475
63.2267
67.2781
71.503
75.903
80.4801
85.2362
90.1735
95.2938
100.599
106.091
111.77
117.639
123.697
129.944
136.382
143.008
149.823
156.825
164.012
171.382
178.932
186.659
194.559
202.627
210.86
219.252
227.797
236.49
245.323
254.29
263.384
272.597
281.92
291.346
300.865
310.468
320.146
329.888
339.685
349.525
359.397
369.29
379.191
389.09
398.973
408.831
418.655
428.444
438.206
447.972
457.717
467.331
476.813
486.155
495.345
504.367
513.206
521.847
530.273
538.468
546.419
554.11
561.526
568.653
575.478
581.988
588.17
594.013
599.506
604.638
609.399
613.782
617.778
621.381
624.584
627.382
629.77
631.746
633.307
634.452
635.18
635.492
635.391
634.878
633.958
632.634
630.913
628.802
626.306
623.436
620.2
616.608
612.671
608.401
603.809
598.908
593.712
588.235
582.491
576.494
570.261
563.805
557.144
550.293
543.267
536.081
528.757
521.305
513.743
506.091
498.347
490.563
482.711
474.864
467.1
460.315
457.128
454.467
451.82
449.163
446.496
443.816
441.118
438.381
435.557
432.547
429.115
424.656
417.694
401.777
0.762048
0.478283
0.493527
0.567292
0.675976
0.813851
0.979561
1.17372
1.3955
1.64181
1.90875
2.19364
2.49425
2.80857
3.13478
3.47127
3.81656
4.16939
4.52867
4.89355
5.26344
5.63808
6.01757
6.40252
6.79417
7.19469
7.60757
8.03818
8.49447
8.98822
9.53713
10.169
10.9272
11.8575
12.9152
13.8569
15.0727
17.258
18.5474
19.1652
20.2934
21.5035
23.49
25.6287
27.2713
28.8903
30.5404
32.2427
34.0041
35.8265
37.7116
39.6608
41.6756
43.7569
45.9059
48.1232
50.4097
52.7658
55.192
57.6886
60.2557
62.8934
65.6016
68.38
71.2283
74.1459
77.1322
80.1863
83.3074
86.4942
89.7456
93.0602
96.4363
99.8724
103.366
106.917
110.521
114.177
117.882
121.634
125.43
129.267
133.143
137.053
140.996
144.968
148.965
152.983
157.019
161.068
165.128
169.192
173.259
177.322
181.38
185.429
189.468
193.501
197.535
201.589
205.673
209.72
213.719
217.666
221.554
225.378
229.131
232.809
236.403
239.91
243.322
246.635
249.842
252.937
255.916
258.773
261.504
264.103
266.567
268.89
271.07
273.102
274.982
276.709
278.278
279.689
280.938
282.024
282.945
283.701
284.291
284.715
284.972
285.064
284.991
284.754
284.355
283.797
283.08
282.209
281.186
280.014
278.697
277.24
275.645
273.918
272.065
270.088
267.995
265.789
263.478
261.066
258.559
255.964
253.286
250.531
247.707
244.819
241.873
238.877
235.826
232.751
229.618
226.492
223.417
220.583
218.417
216.442
214.506
212.581
210.663
208.751
206.845
204.946
203.05
201.148
199.218
197.247
195.111
193.862
1.52573
0.805407
0.746301
0.796438
0.889775
1.01579
1.17137
1.35488
1.56435
1.79722
2.05065
2.32216
2.60965
2.91149
3.22641
3.55347
3.892
4.24162
4.6022
4.97394
5.35735
5.75336
6.16335
6.58921
7.03345
7.49931
7.99087
8.51312
9.07201
9.67441
10.3281
11.0418
11.8249
12.6814
13.5899
14.5174
15.511
16.614
17.7141
18.8104
19.952
21.1457
22.4305
23.7546
25.0902
26.446
27.8387
29.2782
30.7681
32.3094
33.9026
35.5483
37.2467
38.9984
40.8036
42.6627
44.576
46.5436
48.5657
50.6424
52.7736
54.9592
57.1992
59.4933
61.841
64.2421
66.696
69.202
71.7595
74.3676
77.0255
79.732
82.4861
85.2865
88.1319
91.0208
93.9517
96.9229
99.9326
102.979
106.06
109.174
112.318
115.49
118.688
121.909
125.151
128.411
131.687
134.975
138.274
141.581
144.892
148.208
151.525
154.843
158.162
161.484
164.81
168.141
171.459
174.747
177.998
181.207
184.368
187.478
190.531
193.522
196.446
199.298
202.074
204.768
207.377
209.896
212.319
214.644
216.866
218.981
220.986
222.877
224.651
226.305
227.836
229.241
230.52
231.668
232.686
233.571
234.322
234.939
235.421
235.768
235.979
236.056
235.999
235.809
235.488
235.036
234.456
233.75
232.921
231.971
230.903
229.72
228.426
227.025
225.52
223.915
222.214
220.423
218.545
216.585
214.546
212.437
210.259
208.016
205.719
203.366
200.966
198.526
196.03
193.529
191.001
188.472
185.97
183.576
181.412
179.357
177.343
175.349
173.369
171.404
169.457
167.531
165.631
163.77
161.963
160.275
158.792
158.312
2.43625
1.18502
1.0344
1.04993
1.12856
1.24699
1.39758
1.57677
1.78196
2.01063
2.26031
2.52875
2.8141
3.11491
3.43019
3.75932
4.10206
4.45844
4.82883
5.21385
5.61444
6.03185
6.46764
6.92372
7.40231
7.90602
8.43776
9.0007
9.59812
10.2332
10.9088
11.6271
12.3899
13.1977
14.0472
14.9352
15.8672
16.8464
17.8641
18.9202
20.0183
21.1607
22.3506
23.582
24.8496
26.1528
27.4961
28.8836
30.3179
31.8003
33.3316
34.9125
36.5434
38.2248
39.9572
41.7408
43.576
45.4632
47.4026
49.3943
51.4387
53.5357
55.6854
57.8878
60.1427
62.45
64.8094
67.2204
69.6827
72.1957
74.7586
77.3707
80.0311
82.7387
85.4925
88.2911
91.1331
94.0172
96.9416
99.9047
102.905
105.939
109.007
112.105
115.232
118.384
121.561
124.758
127.974
131.207
134.453
137.712
140.979
144.254
147.534
150.819
154.106
157.395
160.682
163.959
167.213
170.436
173.624
176.769
179.868
182.914
185.904
188.831
191.691
194.479
197.191
199.82
202.364
204.816
207.174
209.432
211.587
213.634
215.571
217.393
219.098
220.682
222.143
223.479
224.688
225.767
226.715
227.531
228.213
228.762
229.177
229.457
229.603
229.616
229.496
229.245
228.863
228.354
227.719
226.959
226.078
225.08
223.965
222.739
221.404
219.965
218.425
216.788
215.059
213.241
211.341
209.362
207.307
205.185
202.998
200.747
198.446
196.092
193.692
191.264
188.8
186.318
183.819
181.315
178.828
176.399
174.076
171.822
169.606
167.415
165.245
163.098
160.977
158.888
156.843
154.861
152.973
151.258
149.828
149.151
3.342
1.57221
1.31785
1.29901
1.3631
1.47437
1.62071
1.79669
1.999
2.22506
2.47257
2.73951
3.02421
3.32541
3.64228
3.97434
4.32151
4.684
5.0623
5.45716
5.86955
6.30067
6.75191
7.22485
7.72126
8.24307
8.79235
9.37128
9.982
10.6265
11.3065
12.0235
12.7784
13.5721
14.4051
15.2779
16.1918
17.1479
18.1458
19.1861
20.2694
21.3961
22.5669
23.781
25.0371
26.3355
27.6777
29.0656
30.5011
31.9852
33.5191
35.1035
36.7393
38.427
40.1676
41.9614
43.8092
45.7116
47.669
49.6819
51.7509
53.8762
56.0583
58.2974
60.5935
62.9469
65.3575
67.8251
70.3495
72.9304
75.5672
78.2594
81.0062
83.8066
86.6596
89.5641
92.5186
95.5217
98.5718
101.667
104.805
107.985
111.204
114.459
117.749
121.07
124.42
127.798
131.198
134.62
138.061
141.517
144.986
148.465
151.952
155.444
158.939
162.434
165.918
169.383
172.821
176.226
179.591
182.912
186.181
189.394
192.545
195.628
198.638
201.57
204.418
207.177
209.842
212.408
214.871
217.225
219.467
221.592
223.597
225.477
227.231
228.853
230.343
231.696
232.912
233.989
234.924
235.717
236.367
236.873
237.235
237.453
237.528
237.461
237.252
236.904
236.418
235.796
235.04
234.154
233.14
232.002
230.743
229.366
227.877
226.278
224.575
222.772
220.873
218.882
216.808
214.653
212.419
210.119
207.754
205.318
202.842
200.319
197.754
195.157
192.53
189.883
187.221
184.553
181.896
179.273
176.709
174.192
171.711
169.259
166.833
164.438
162.077
159.761
157.503
155.325
153.267
151.402
149.825
148.797
4.18851
1.9259
1.57935
1.52931
1.57974
1.68393
1.8258
1.99823
2.19725
2.42011
2.6646
2.92888
3.21147
3.51124
3.82744
4.15971
4.50799
4.87255
5.25387
5.65269
6.06992
6.50664
6.96407
7.44358
7.94664
8.47488
9.03001
9.61381
10.2281
10.8747
11.5551
12.2708
13.0232
13.8134
14.6426
15.5117
16.422
17.3744
18.3697
19.4086
20.4916
21.6193
22.7924
24.0113
25.2761
26.5876
27.9467
29.3549
30.8135
32.3237
33.8867
35.5037
37.1758
38.904
40.6894
42.5328
44.4354
46.3981
48.4216
50.507
52.655
54.8664
57.1419
59.4819
61.8871
64.3577
66.8942
69.4965
72.1648
74.8988
77.6982
80.5626
83.4913
86.4835
89.5381
92.6539
95.8295
99.0633
102.354
105.698
109.095
112.542
116.037
119.576
123.158
126.779
130.436
134.127
137.847
141.594
145.365
149.155
152.962
156.782
160.612
164.447
168.284
172.118
175.933
179.724
183.483
187.203
190.879
194.504
198.072
201.576
205.009
208.367
211.641
214.827
217.918
220.909
223.794
226.567
229.223
231.757
234.165
236.441
238.582
240.583
242.442
244.154
245.717
247.129
248.387
249.489
250.434
251.221
251.849
252.318
252.628
252.779
252.772
252.608
252.289
251.817
251.194
250.423
249.507
248.448
247.25
245.918
244.456
242.867
241.156
239.328
237.389
235.344
233.196
230.951
228.619
226.203
223.699
221.131
218.5
215.806
213.063
210.274
207.444
204.581
201.691
198.779
195.854
192.923
189.999
187.098
184.234
181.408
178.616
175.855
173.127
170.438
167.792
165.202
162.682
160.259
157.97
155.882
154.061
152.652
4.91269
2.23838
1.81135
1.73311
1.77058
1.86749
2.00427
2.1723
2.36697
2.58533
2.8252
3.08487
3.36302
3.65865
3.97109
4.30004
4.64547
5.00765
5.38706
5.78441
6.20055
6.63651
7.09345
7.57262
8.07542
8.60334
9.158
9.74107
10.3543
10.9994
11.678
12.3918
13.1422
13.9307
14.7585
15.6269
16.5371
17.4904
18.4877
19.53
20.6183
21.7535
22.9366
24.1684
25.45
26.7823
28.1665
29.6039
31.0961
32.6444
34.2504
35.9155
37.6412
39.4289
41.2802
43.1963
45.1789
47.2291
49.3485
51.5383
53.7996
56.1338
58.5419
61.0248
63.5835
66.2186
68.9307
71.7204
74.5877
77.5329
80.5556
83.6557
86.8324
90.085
93.4125
96.8135
100.287
103.83
107.441
111.119
114.859
118.661
122.521
126.435
130.401
134.415
138.473
142.572
146.709
150.878
155.076
159.298
163.541
167.8
172.07
176.347
180.625
184.89
189.131
193.342
197.515
201.644
205.722
209.74
213.691
217.569
221.366
225.074
228.688
232.199
235.601
238.888
242.053
245.09
247.994
250.757
253.377
255.846
258.161
260.317
262.311
264.138
265.797
267.284
268.597
269.735
270.695
271.478
272.082
272.508
272.755
272.825
272.719
272.439
271.985
271.362
270.572
269.619
268.505
267.234
265.81
264.24
262.528
260.678
258.696
256.583
254.354
252.011
249.558
246.995
244.346
241.61
238.788
235.895
232.936
229.914
226.84
223.719
220.557
217.362
214.14
210.898
207.643
204.384
201.129
197.892
194.683
191.507
188.365
185.259
182.193
179.171
176.204
173.302
170.484
167.774
165.209
162.844
160.722
158.925
5.52914
2.5089
2.01069
1.90643
1.93117
2.0203
2.15113
2.31369
2.50273
2.71511
2.94864
3.20173
3.47314
3.76202
4.0678
4.39023
4.72934
5.08539
5.4589
5.85055
6.26121
6.69189
7.14373
7.61799
8.11603
8.63934
9.1895
9.76817
10.3771
11.0179
11.6924
12.4024
13.1493
13.9348
14.7603
15.6274
16.5373
17.4916
18.4916
19.5385
20.6336
21.7784
22.9741
24.2221
25.5238
26.8807
28.2944
29.7664
31.2985
32.8926
34.5504
36.274
38.0653
39.9261
41.8585
43.8644
45.9457
48.1043
50.3422
52.6611
55.0627
57.5487
60.1207
62.7801
65.5282
68.366
71.2945
74.3145
77.4265
80.6306
83.927
87.3154
90.7953
94.3657
98.0257
101.774
105.608
109.526
113.527
117.607
121.762
125.991
130.29
134.654
139.081
143.565
148.103
152.69
157.321
161.992
166.698
171.433
176.192
180.969
185.759
190.556
195.351
200.122
204.864
209.569
214.229
218.835
223.381
227.857
232.255
236.566
240.783
244.897
248.9
252.784
256.542
260.166
263.65
266.986
270.168
273.19
276.046
278.73
281.238
283.564
285.704
287.655
289.414
290.979
292.346
293.514
294.483
295.251
295.818
296.185
296.351
296.319
296.09
295.667
295.05
294.245
293.256
292.085
290.738
289.217
287.527
285.677
283.673
281.519
279.22
276.775
274.209
271.522
268.718
265.804
262.792
259.687
256.496
253.228
249.889
246.488
243.031
239.527
235.982
232.404
228.8
225.177
221.542
217.904
214.272
210.655
207.064
203.504
199.98
196.497
193.06
189.677
186.356
183.112
179.963
176.933
174.054
171.373
168.912
166.723
6.0336
2.73505
2.17544
2.04733
2.05947
2.1402
2.26413
2.42005
2.60221
2.80721
3.03286
3.27761
3.54037
3.82038
4.11717
4.43058
4.76069
5.10782
5.47249
5.85542
6.2575
6.67975
7.12331
7.58948
8.07963
8.59525
9.13791
9.70929
10.3111
10.9451
11.6131
12.3169
13.0582
13.8388
14.6603
15.5244
16.4329
17.3873
18.3894
19.4408
20.5432
21.6984
22.9081
24.1743
25.4987
26.8834
28.3303
29.8416
31.4195
33.0663
34.7843
36.5761
38.444
40.3907
42.4186
44.5303
46.7284
49.0153
51.3934
53.8653
56.4331
59.0991
61.8653
64.7337
67.7059
70.7835
73.9677
77.2597
80.6601
84.1695
87.7879
91.5152
95.3508
99.2938
103.343
107.496
111.752
116.108
120.561
125.108
129.745
134.468
139.274
144.157
149.114
154.138
159.226
164.371
169.568
174.811
180.094
185.412
190.757
196.122
201.502
206.888
212.257
217.595
222.896
228.151
233.352
238.489
243.553
248.533
253.421
258.207
262.882
267.435
271.859
276.145
280.284
284.268
288.09
291.741
295.215
298.505
301.604
304.508
307.209
309.703
311.985
314.052
315.902
317.531
318.937
320.12
321.077
321.809
322.316
322.597
322.655
322.492
322.109
321.51
320.698
319.675
318.449
317.024
315.405
313.596
311.599
309.428
307.09
304.591
301.936
299.131
296.189
293.118
289.922
286.611
283.194
279.68
276.075
272.389
268.63
264.806
260.925
256.996
253.027
249.025
244.998
240.954
236.9
232.845
228.798
224.767
220.762
216.79
212.858
208.972
205.139
201.368
197.669
194.057
190.55
187.171
183.949
180.921
178.095
175.511
6.42636
2.91622
2.30531
2.15568
2.15544
2.22717
2.34326
2.49148
2.66559
2.86201
3.0785
3.31357
3.56621
3.83579
4.12194
4.42457
4.74383
5.0801
5.43394
5.8061
6.19748
6.60914
7.04225
7.4981
7.9781
8.48376
9.01667
9.57851
10.1711
10.7961
11.4556
12.1513
12.8853
13.6593
14.4755
15.3357
16.2419
17.1961
18.2005
19.257
20.3678
21.5352
22.7614
24.0488
25.3999
26.817
28.3029
29.8603
31.4919
33.2006
34.9896
36.8617
38.8203
40.8684
43.0093
45.2462
47.5824
50.021
52.5651
55.2177
57.9817
60.8599
63.8549
66.969
70.2045
73.5632
77.0469
80.6567
84.3938
88.2585
92.2513
96.3716
100.619
104.992
109.49
114.11
118.849
123.706
128.675
133.754
138.938
144.222
149.601
155.07
160.622
166.253
171.955
177.723
183.551
189.43
195.355
201.317
207.309
213.323
219.35
225.375
231.366
237.317
243.221
249.068
254.847
260.549
266.163
271.676
277.08
282.361
287.511
292.52
297.376
302.072
306.597
310.943
315.101
319.063
322.822
326.37
329.702
332.81
335.688
338.331
340.734
342.894
344.808
346.474
347.891
349.056
349.97
350.633
351.044
351.204
351.117
350.784
350.21
349.397
348.347
347.066
345.564
343.844
341.913
339.776
337.438
334.911
332.203
329.321
326.272
323.064
319.709
316.215
312.59
308.843
304.984
301.023
296.967
292.828
288.613
284.331
279.992
275.605
271.178
266.719
262.237
257.741
253.238
248.737
244.246
239.775
235.332
230.925
226.563
222.254
218.004
213.825
209.728
205.727
201.841
198.091
194.502
191.104
187.896
184.913
6.712
3.05375
2.40159
2.23291
2.22063
2.2829
2.39035
2.52996
2.69507
2.88194
3.08832
3.31275
3.55432
3.81247
4.08693
4.37771
4.68501
5.00926
5.35107
5.71122
6.09063
6.49039
6.91169
7.35585
7.82431
8.3186
8.84036
9.39134
9.97336
10.5884
11.2383
11.9253
12.6514
13.4188
14.2299
15.0867
15.9918
16.9475
17.9564
19.021
20.1441
21.3282
22.5765
23.8917
25.277
26.7356
28.2706
29.8856
31.5841
33.3696
35.246
37.2171
39.2868
41.459
43.7377
46.127
48.6308
51.253
53.9974
56.8677
59.8673
62.9996
66.2676
69.6743
73.2222
76.9136
80.7503
84.7339
88.8653
93.1451
97.5734
102.15
106.873
111.742
116.755
121.908
127.199
132.624
138.178
143.857
149.656
155.568
161.587
167.706
173.919
180.218
186.597
193.048
199.564
206.137
212.757
219.418
226.109
232.822
239.544
246.232
252.876
259.469
266.001
272.46
278.836
285.116
291.289
297.342
303.263
309.039
314.659
320.113
325.39
330.48
335.373
340.059
344.529
348.776
352.79
356.566
360.095
363.373
366.392
369.144
371.627
373.838
375.774
377.433
378.815
379.918
380.743
381.289
381.557
381.55
381.27
380.721
379.908
378.834
377.505
375.926
374.105
372.049
369.764
367.258
364.539
361.616
358.498
355.195
351.714
348.067
344.262
340.31
336.222
332.006
327.673
323.233
318.696
314.073
309.373
304.606
299.782
294.91
289.999
285.06
280.099
275.128
270.153
265.184
260.229
255.298
250.399
245.542
240.735
235.987
231.307
226.705
222.195
217.791
213.51
209.373
205.402
201.618
198.018
194.634
6.89893
3.15056
2.4668
2.28165
2.25785
2.3104
2.40863
2.53893
2.69435
2.87104
3.06672
3.28
3.51001
3.75628
4.01864
4.29714
4.59206
4.90388
5.23323
5.58095
5.94798
6.33543
6.74454
7.17666
7.63329
8.11603
8.62659
9.16682
9.73868
10.3442
10.9857
11.6653
12.3855
13.1488
13.9578
14.8152
15.7238
16.6865
17.7065
18.7868
19.9308
21.1419
22.4237
23.7798
25.2141
26.7306
28.3333
30.0264
31.8144
33.7017
35.693
37.7929
40.0062
42.3379
44.7926
47.3753
50.0907
52.9436
55.9383
59.0792
62.3703
65.8152
69.4176
73.1805
77.1069
81.1991
85.4592
89.8885
94.4879
99.2577
104.198
109.307
114.583
120.025
125.63
131.393
137.311
143.379
149.592
155.944
162.428
169.037
175.762
182.595
189.529
196.555
203.666
210.852
218.106
225.418
232.779
240.18
247.61
255.059
262.473
269.838
277.145
284.383
291.542
298.608
305.569
312.413
319.127
325.699
332.11
338.349
344.404
350.265
355.921
361.36
366.573
371.55
376.281
380.757
384.972
388.916
392.585
395.975
399.073
401.873
404.374
406.572
408.467
410.058
411.342
412.321
412.995
413.364
413.432
413.2
412.673
411.854
410.75
409.365
407.706
405.779
403.592
401.153
398.471
395.553
392.41
389.05
385.484
381.722
377.775
373.653
369.366
364.926
360.343
355.63
350.796
345.852
340.81
335.68
330.474
325.201
319.871
314.496
309.085
303.648
298.193
292.731
287.271
281.821
276.39
270.988
265.624
260.307
255.046
249.852
244.733
239.702
234.771
229.956
225.271
220.738
216.374
212.197
208.199
204.416
6.99881
3.21082
2.50437
2.30535
2.27075
2.31358
2.40232
2.52294
2.66835
2.83462
3.01948
3.22157
3.4401
3.67467
3.92517
4.19172
4.47465
4.77449
5.09193
5.42782
5.78319
6.15918
6.5571
6.9784
7.42465
7.89758
8.39906
8.9311
9.49586
10.0957
10.733
11.4104
12.1308
12.897
13.7122
14.5795
15.5024
16.4844
17.5294
18.6412
19.8238
21.0817
22.4192
23.8409
25.3515
26.9559
28.6592
30.4665
32.3832
34.4148
36.5669
38.8452
41.2555
43.8034
46.4948
49.3353
52.3306
55.486
58.8068
62.2976
65.9626
69.8055
73.8299
78.0392
82.4361
87.023
91.8015
96.7725
101.936
107.293
112.84
118.578
124.501
130.609
136.895
143.357
149.987
156.779
163.729
170.827
178.067
185.441
192.934
200.539
208.245
216.046
223.93
231.89
239.916
247.997
256.124
264.287
272.475
280.625
288.716
296.74
304.684
312.537
320.284
327.914
335.413
342.767
349.967
357
363.835
370.467
376.885
383.078
389.033
394.742
400.192
405.374
410.28
414.9
419.226
423.252
426.97
430.377
433.464
436.226
438.66
440.765
442.538
443.98
445.089
445.868
446.316
446.437
446.234
445.709
444.868
443.716
442.259
440.504
438.458
436.128
433.523
430.652
427.525
424.152
420.541
416.705
412.654
408.399
403.952
399.324
394.527
389.573
384.473
379.239
373.883
368.418
362.853
357.202
351.475
345.684
339.839
333.951
328.031
322.088
316.133
310.176
304.225
298.29
292.38
286.504
280.673
274.896
269.182
263.541
257.984
252.523
247.171
241.942
236.853
231.921
227.162
222.592
218.199
214.022
7.02599
3.23964
2.51835
2.30805
2.26363
2.2971
2.37647
2.48753
2.6231
2.77927
2.9538
3.14538
3.35328
3.57716
3.81699
4.07294
4.34542
4.63501
4.94249
5.26879
5.61501
5.98244
6.3725
6.78678
7.22706
7.69527
8.19354
8.72417
9.28966
9.8927
10.5362
11.2233
11.9573
12.7417
13.5803
14.4771
15.4362
16.462
17.5593
18.7329
19.988
21.3299
22.7643
24.2969
25.9335
27.68
29.5424
31.5272
33.6409
35.8901
38.2815
40.8217
43.5175
46.3754
49.402
52.6038
55.9868
59.5573
63.3208
67.2827
71.4459
75.813
80.3874
85.1721
90.1694
95.3807
100.807
106.448
112.302
118.369
124.644
131.126
137.809
144.689
151.759
159.014
166.445
174.045
181.805
189.718
197.777
205.976
214.284
222.698
231.208
239.807
248.483
257.227
266.03
274.881
283.769
292.682
301.541
310.331
319.039
327.652
336.158
344.541
352.79
360.889
368.825
376.584
384.153
391.518
398.661
405.569
412.23
418.634
424.769
430.624
436.189
441.455
446.413
451.054
455.371
459.359
463.009
466.319
469.281
471.893
474.151
476.054
477.602
478.794
479.63
480.114
480.246
480.031
479.472
478.574
477.342
475.784
473.905
471.713
469.217
466.426
463.348
459.995
456.376
452.502
448.384
444.034
439.463
434.685
429.71
424.551
419.222
413.733
408.099
402.331
396.442
390.444
384.35
378.172
371.921
365.609
359.247
352.847
346.42
339.975
333.524
327.075
320.64
314.226
307.844
301.504
295.214
288.984
282.825
276.747
270.761
264.879
259.113
253.478
247.991
242.666
237.518
232.561
227.781
223.222
6.99708
3.24263
2.51316
2.29417
2.24128
2.26626
2.33703
2.43937
2.56612
2.71343
2.87913
3.06197
3.26131
3.47689
3.70875
3.95718
4.22269
4.50599
4.80798
5.12977
5.47265
5.83812
6.22786
6.64378
7.08797
7.56276
8.07072
8.61465
9.19761
9.8229
10.4941
11.2152
11.9902
12.8238
13.7206
14.6856
15.7241
16.8416
18.0442
19.338
20.7298
22.2264
23.835
25.563
27.4179
29.4058
31.534
33.8103
36.2425
38.8383
41.6053
44.5511
47.683
51.0079
54.5327
58.264
62.2078
66.3702
70.7575
75.3775
80.2272
85.3041
90.6127
96.1551
101.932
107.943
114.187
120.662
127.365
134.291
141.436
148.794
156.359
164.122
172.076
180.213
188.522
196.994
205.619
214.387
223.286
232.306
241.431
250.649
259.95
269.324
278.761
288.252
297.786
307.359
316.929
326.424
335.831
345.138
354.329
363.392
372.312
381.074
389.666
398.073
406.281
414.276
422.045
429.574
436.849
443.857
450.586
457.026
463.165
468.993
474.502
479.681
484.524
489.023
493.17
496.961
500.39
503.453
506.145
508.465
510.41
511.98
513.174
513.993
514.44
514.516
514.226
513.573
512.562
511.199
509.491
507.445
505.069
502.371
499.361
496.048
492.443
488.556
484.399
479.984
475.322
470.426
465.308
459.981
454.458
448.752
442.877
436.845
430.669
424.363
417.939
411.411
404.791
398.091
391.323
384.5
377.633
370.734
363.813
356.882
349.95
343.028
336.125
329.251
322.416
315.629
308.9
302.238
295.653
289.157
282.76
276.474
270.312
264.288
258.417
252.714
247.192
241.864
236.713
231.788
6.92743
3.22509
2.49287
2.2679
2.20836
2.22644
2.29027
2.38578
2.50596
2.64707
2.80706
2.9848
3.17979
3.3919
3.62135
3.86862
4.13445
4.41979
4.72588
5.05416
5.40633
5.78435
6.19043
6.62707
7.09704
7.60342
8.1496
8.73934
9.37673
10.0662
10.8124
11.6207
12.4968
13.4469
14.4776
15.5951
16.8061
18.1181
19.5391
21.0773
22.7415
24.5405
26.4838
28.5817
30.8465
33.2777
35.8854
38.6792
41.668
44.86
48.263
51.8842
55.7304
59.8078
64.1219
68.6777
73.4794
78.5306
83.8342
89.3923
95.2035
101.266
107.578
114.139
120.945
127.992
135.277
142.793
150.534
158.494
166.663
175.035
183.599
192.345
201.264
210.344
219.574
228.943
238.438
248.049
257.764
267.57
277.454
287.406
297.415
307.472
317.566
327.695
337.837
347.913
357.887
367.746
377.478
387.068
396.503
405.769
414.851
423.738
432.415
440.869
449.087
457.055
464.763
472.197
479.344
486.194
492.736
498.958
504.853
510.41
515.622
520.48
524.979
529.11
532.87
536.252
539.254
541.872
544.103
545.946
547.4
548.465
549.142
549.433
549.341
548.869
548.022
546.805
545.224
543.285
540.996
538.366
535.402
532.114
528.512
524.608
520.411
515.933
511.187
506.184
500.938
495.461
489.765
483.865
477.775
471.506
465.073
458.49
451.769
444.924
437.969
430.916
423.778
416.568
409.298
401.98
394.625
387.246
379.853
372.456
365.067
357.695
350.35
343.042
335.779
328.571
321.428
314.36
307.376
300.487
293.703
287.038
280.503
274.112
267.879
261.819
255.943
250.264
244.764
239.496
6.85078
3.19745
2.46627
2.23905
2.17656
2.19175
2.25316
2.34699
2.46648
2.6081
2.77002
2.95135
3.15186
3.37174
3.6116
3.87235
4.15524
4.46185
4.79409
5.15421
5.5448
5.96884
6.42968
6.93109
7.47731
8.07295
8.72309
9.43348
10.2105
11.0606
11.9903
13.0075
14.1209
15.3401
16.6765
18.1372
19.7288
21.4628
23.3503
25.4022
27.6292
30.0421
32.6517
35.4684
38.5019
41.759
45.2474
48.9749
52.9482
57.1734
61.6555
66.3984
71.4052
76.678
82.2176
88.0244
94.0973
100.435
107.034
113.891
121.001
128.359
135.956
143.788
151.846
160.122
168.608
177.295
186.173
195.232
204.462
213.853
223.392
233.069
242.873
252.791
262.813
272.926
283.121
293.384
303.707
314.078
324.486
334.927
345.385
355.865
366.345
376.745
387.017
397.158
407.155
416.994
426.662
436.146
445.435
454.516
463.376
472.004
480.387
488.515
496.375
503.957
511.249
518.24
524.921
531.282
537.313
543.005
548.351
553.342
557.972
562.235
566.124
569.634
572.762
575.504
577.856
579.817
581.386
582.561
583.344
583.735
583.736
583.35
582.581
581.433
579.911
578.021
575.77
573.165
570.214
566.927
563.311
559.378
555.138
550.602
545.781
540.687
535.333
529.731
523.895
517.836
511.569
505.107
498.464
491.652
484.687
477.58
470.347
462.999
455.55
448.013
440.401
432.726
425.001
417.237
409.445
401.637
393.823
386.015
378.222
370.453
362.719
355.029
347.391
339.815
332.31
324.886
317.552
310.319
303.196
296.197
289.333
282.617
276.063
269.684
263.492
257.498
251.686
246.111
6.79006
3.16844
2.44204
2.21792
2.15861
2.1779
2.2449
2.34627
2.47562
2.62984
2.80753
3.00835
3.23268
3.48148
3.75622
4.05888
4.39191
4.75828
5.1615
5.60564
6.09535
6.63597
7.23342
7.89428
8.62622
9.43731
10.3354
11.3309
12.436
13.6622
15.015
16.5083
18.1557
19.9707
21.967
24.1566
26.5513
29.1636
32.0055
35.0885
38.423
42.0184
45.8827
50.0229
54.4439
59.1487
64.1392
69.416
74.9784
80.8244
86.9508
93.3533
100.026
106.964
114.158
121.602
129.286
137.203
145.342
153.694
162.249
170.997
179.928
189.03
198.293
207.708
217.264
226.949
236.755
246.671
256.686
266.791
276.975
287.23
297.544
307.909
318.315
328.756
339.22
349.7
360.192
370.687
381.17
391.671
402.133
412.482
422.68
432.728
442.614
452.328
461.859
471.197
480.33
489.249
497.942
506.4
514.611
522.566
530.255
537.669
544.796
551.629
558.157
564.372
570.265
575.829
581.054
585.934
590.463
594.633
598.44
601.877