/*--------------------------------*- C++ -*----------------------------------*\
  =========                 |
  \\      /  F ield         | OpenFOAM: The Open Source CFD Toolbox
   \\    /   O peration     | Website:  https://openfoam.org
    \\  /    A nd           | Version:  12
     \\/     M anipulation  |
\*---------------------------------------------------------------------------*/
FoamFile
{
    format      ascii;
    class       volScalarField;
    location    "0.25";
    object      k;
}
// * * * * * * * * * * * * * * * * * * * * * * * * * * * * * * * * * * * * * //

dimensions      [0 2 -2 0 0 0 0];

internalField   nonuniform List<scalar> 
12225
(
0.353921
0.335043
0.316966
0.300961
0.288125
0.278906
0.273297
0.271001
0.271563
0.274466
0.279195
0.285281
0.292319
0.299971
0.307981
0.316137
0.32448
0.33656
0.436864
0.448979
0.438084
0.43306
0.438786
0.453583
0.474795
0.499972
0.527126
0.554772
0.581881
0.607788
0.632114
0.654682
0.675598
0.694757
0.714222
0.729512
0.395187
0.410874
0.410631
0.405747
0.40201
0.400923
0.402613
0.406806
0.413078
0.420974
0.430058
0.439951
0.450341
0.460986
0.471744
0.482502
0.493542
0.504234
0.379641
0.38484
0.386546
0.38573
0.383905
0.382026
0.380567
0.379738
0.379605
0.380146
0.381299
0.382982
0.385112
0.387615
0.390437
0.393542
0.396948
0.400552
0.374976
0.3759
0.376239
0.375721
0.37457
0.373084
0.371496
0.369967
0.368593
0.367426
0.366484
0.365767
0.365266
0.364966
0.364852
0.364917
0.365155
0.365534
0.373488
0.372555
0.371759
0.370807
0.369631
0.368275
0.366809
0.3653
0.363804
0.362358
0.36099
0.359714
0.358537
0.357461
0.356487
0.355615
0.354843
0.354166
0.373012
0.371296
0.369813
0.368416
0.367025
0.36561
0.364169
0.362712
0.361258
0.359824
0.358426
0.357073
0.355774
0.354533
0.353354
0.35224
0.351191
0.350215
0.372865
0.370838
0.369004
0.367311
0.365711
0.364174
0.362679
0.361216
0.359783
0.358381
0.357015
0.355688
0.354402
0.353161
0.351967
0.350822
0.349728
0.348696
0.37282
0.37068
0.368691
0.366836
0.365095
0.363449
0.36188
0.360376
0.358928
0.357531
0.356183
0.35488
0.353622
0.352409
0.351241
0.350118
0.349042
0.348023
0.372806
0.370628
0.368578
0.366648
0.364829
0.36311
0.361482
0.359934
0.358457
0.357046
0.355694
0.354397
0.353153
0.351959
0.350812
0.349713
0.34866
0.347664
0.372801
0.370609
0.368537
0.366576
0.36472
0.362964
0.361299
0.359719
0.358216
0.356785
0.355421
0.354118
0.352874
0.351685
0.350547
0.34946
0.348421
0.34744
0.372799
0.370602
0.368522
0.36655
0.36468
0.362907
0.361225
0.359627
0.358109
0.356664
0.355289
0.353978
0.352729
0.351537
0.3504
0.349315
0.348279
0.347304
0.372797
0.370599
0.368514
0.366537
0.364661
0.36288
0.361188
0.359581
0.358053
0.3566
0.355216
0.353899
0.352644
0.351448
0.350308
0.349221
0.348185
0.34721
0.372796
0.370596
0.368509
0.366528
0.364649
0.362864
0.361168
0.359555
0.358022
0.356563
0.355174
0.353851
0.352592
0.351392
0.350248
0.349157
0.348119
0.347141
0.372795
0.370593
0.368505
0.366523
0.364641
0.362853
0.361154
0.359539
0.358003
0.35654
0.355148
0.353823
0.35256
0.351356
0.350209
0.349116
0.348074
0.347094
0.372794
0.370592
0.368502
0.366518
0.364634
0.362845
0.361145
0.359527
0.357989
0.356525
0.355131
0.353803
0.352538
0.351333
0.350184
0.349088
0.348044
0.347061
0.372794
0.37059
0.368499
0.366515
0.36463
0.362839
0.361137
0.359519
0.357979
0.356514
0.355118
0.353789
0.352523
0.351316
0.350165
0.349067
0.348021
0.347037
0.372794
0.370589
0.368498
0.366512
0.364627
0.362835
0.361132
0.359513
0.357972
0.356506
0.355109
0.353779
0.352511
0.351303
0.350151
0.349052
0.348005
0.347019
0.372793
0.370589
0.368497
0.366512
0.364626
0.362834
0.361131
0.359511
0.357969
0.356502
0.355105
0.353774
0.352506
0.351297
0.350144
0.349045
0.347997
0.34701
0.372794
0.37059
0.368498
0.366513
0.364628
0.362836
0.361133
0.359514
0.357973
0.356506
0.355109
0.353779
0.352511
0.351302
0.350149
0.349049
0.348001
0.347015
0.372794
0.370591
0.3685
0.366516
0.364632
0.362841
0.36114
0.359522
0.357982
0.356517
0.355122
0.353793
0.352526
0.351319
0.350167
0.349069
0.348023
0.347037
0.372795
0.370593
0.368504
0.366522
0.364641
0.362855
0.361158
0.359546
0.358012
0.356552
0.355163
0.353839
0.352578
0.351375
0.350228
0.349134
0.348091
0.347108
0.372796
0.370598
0.368518
0.366547
0.364681
0.362912
0.361235
0.359642
0.358127
0.356685
0.355311
0.354001
0.35275
0.351556
0.350415
0.349324
0.348282
0.347298
0.372804
0.370631
0.368592
0.366676
0.364872
0.363166
0.361548
0.360006
0.358532
0.357121
0.355767
0.354467
0.353219
0.352019
0.350867
0.349761
0.348701
0.347697
0.372856
0.370818
0.368973
0.367264
0.365645
0.364085
0.362567
0.361083
0.359631
0.358213
0.356833
0.355493
0.354196
0.352946
0.351743
0.35059
0.349486
0.348445
0.373166
0.37177
0.370579
0.369371
0.368049
0.366605
0.365072
0.363492
0.361905
0.360342
0.358826
0.357372
0.355991
0.354688
0.353468
0.352329
0.351272
0.350303
0.374797
0.375829
0.376175
0.375401
0.373834
0.371876
0.369792
0.36774
0.365814
0.364067
0.362524
0.361195
0.360075
0.359157
0.358425
0.357864
0.357457
0.35719
0.382729
0.39167
0.392375
0.388805
0.384384
0.380403
0.377247
0.374998
0.373621
0.373039
0.373153
0.373867
0.375084
0.376717
0.378686
0.380923
0.383366
0.385946
0.407499
0.414514
0.405423
0.395992
0.390555
0.389292
0.391456
0.396217
0.402838
0.410728
0.419436
0.428623
0.438032
0.447477
0.456822
0.465971
0.474881
0.483463
0.360554
0.347547
0.334933
0.322917
0.311965
0.302353
0.29419
0.287471
0.282115
0.278005
0.275002
0.272968
0.271768
0.271276
0.271379
0.271976
0.272979
0.274306
0.000694138
0.00390896
0.00647337
0.00873844
0.0110724
0.0138358
0.0170398
0.0207825
0.0251731
0.0300787
0.0352534
0.0406992
0.0463765
0.0522368
0.0582317
0.0643157
0.0704464
0.0765836
0.0826892
0.0887256
0.094655
0.100438
0.106032
0.111392
0.116469
0.121216
0.12559
0.129556
0.133084
0.136145
0.138685
0.140618
0.141848
0.142427
0.142787
0.14328
0.141833
0.141738
0.142729
0.145558
0.146441
0.145548
0.14518
0.145405
0.150985
0.157819
0.164988
0.172405
0.180039
0.18787
0.195886
0.204079
0.212444
0.220975
0.22967
0.238526
0.247539
0.256706
0.266026
0.275495
0.285108
0.294864
0.304757
0.314784
0.32494
0.335219
0.345616
0.356126
0.366742
0.377458
0.388266
0.39916
0.410133
0.421176
0.432281
0.443441
0.454646
0.465889
0.477159
0.488449
0.49975
0.511051
0.522345
0.53362
0.544869
0.556081
0.567247
0.578358
0.589402
0.600372
0.611255
0.622043
0.632724
0.64329
0.653729
0.664035
0.674202
0.684232
0.694138
0.703954
0.713657
0.723135
0.732393
0.741428
0.750231
0.758791
0.767099
0.775142
0.782911
0.790394
0.797582
0.804465
0.811034
0.817279
0.823192
0.828766
0.833993
0.838866
0.843378
0.847524
0.8513
0.854699
0.857719
0.860356
0.862608
0.864471
0.865946
0.867032
0.867727
0.868033
0.867952
0.867484
0.866633
0.865403
0.863797
0.861819
0.859476
0.856773
0.853716
0.850313
0.846571
0.842499
0.838106
0.833401
0.828394
0.823094
0.817514
0.811664
0.805555
0.7992
0.792611
0.7858
0.778779
0.771563
0.764163
0.756593
0.748868
0.740999
0.733001
0.72489
0.716664
0.708372
0.699985
0.691571
0.683208
0.675771
0.671842
0.668422
0.665011
0.661584
0.658142
0.654682
0.651198
0.64767
0.644052
0.640242
0.636011
0.630756
0.623004
0.606249
0.00265618
0.0111493
0.0168156
0.0213415
0.0255938
0.0297716
0.0341198
0.0387945
0.0438507
0.0492664
0.054985
0.0609567
0.0671353
0.073478
0.0799463
0.086505
0.0931221
0.0997677
0.106414
0.113034
0.1196
0.126087
0.132464
0.138705
0.144783
0.150675
0.156368
0.161862
0.167166
0.172294
0.177251
0.18203
0.186693
0.191476
0.196695
0.202392
0.208686
0.214497
0.221731
0.230218
0.2392
0.249516
0.260961
0.273144
0.285183
0.296913
0.308856
0.321218
0.333975
0.3471
0.360574
0.374384
0.388522
0.402983
0.417765
0.432864
0.448279
0.464007
0.480047
0.496396
0.513051
0.530009
0.547267
0.56482
0.582662
0.60079
0.619196
0.637873
0.656814
0.676011
0.695454
0.715135
0.735042
0.755166
0.775494
0.796014
0.816714
0.83758
0.8586
0.879759
0.901042
0.922435
0.943924
0.965492
0.987125
1.00881
1.03052
1.05225
1.07398
1.0957
1.11738
1.13901
1.16057
1.18206
1.20343
1.22469
1.24581
1.26676
1.28753
1.30803
1.32808
1.34783
1.3673
1.38647
1.40531
1.42381
1.44194
1.45969
1.47703
1.49394
1.5104
1.52638
1.54188
1.55686
1.57131
1.58521
1.59855
1.6113
1.62346
1.63501
1.64592
1.6562
1.66583
1.67479
1.68308
1.6907
1.69762
1.70385
1.70937
1.7142
1.71831
1.72172
1.72442
1.72641
1.7277
1.72828
1.72816
1.72735
1.72586
1.72369
1.72085
1.71736
1.71322
1.70845
1.70306
1.69707
1.69049
1.68334
1.67565
1.66742
1.65867
1.64944
1.63973
1.62958
1.619
1.60801
1.59664
1.58492
1.57287
1.56052
1.54786
1.53499
1.52182
1.50852
1.49516
1.48192
1.46923
1.45661
1.44396
1.43125
1.41852
1.40576
1.393
1.38023
1.36742
1.35455
1.34146
1.32802
1.31301
1.29357
0.00531841
0.0184947
0.0261917
0.0320784
0.037274
0.042308
0.0474403
0.0528104
0.0584781
0.0644481
0.0706939
0.0771778
0.0838605
0.0907055
0.0976807
0.104758
0.111915
0.11913
0.126386
0.133666
0.140957
0.148246
0.155521
0.162774
0.170002
0.177211
0.184417
0.191653
0.198963
0.206405
0.214036
0.221914
0.230125
0.238786
0.247985
0.257687
0.267969
0.278921
0.290585
0.302934
0.315883
0.32953
0.343971
0.358943
0.374226
0.389738
0.405596
0.421883
0.43861
0.455771
0.473356
0.491357
0.509766
0.528578
0.547788
0.567393
0.587389
0.607772
0.628539
0.649686
0.671209
0.693103
0.715362
0.737981
0.760954
0.784272
0.807927
0.831911
0.856214
0.880824
0.905732
0.930924
0.956388
0.982109
1.00807
1.03427
1.06067
1.08727
1.11405
1.14099
1.16808
1.19529
1.2226
1.25
1.27747
1.30499
1.33253
1.36008
1.38762
1.41512
1.44258
1.46995
1.49724
1.52441
1.55144
1.57832
1.60502
1.63154
1.65784
1.68376
1.70934
1.73457
1.75944
1.78392
1.80799
1.83162
1.85478
1.87745
1.89959
1.92118
1.94219
1.96259
1.98235
2.00147
2.01989
2.03762
2.05461
2.07086
2.08634
2.10103
2.11491
2.12797
2.14019
2.15156
2.16207
2.1717
2.18045
2.1883
2.19526
2.20131
2.20645
2.21068
2.214
2.21641
2.21791
2.21851
2.21822
2.21704
2.21497
2.21204
2.20826
2.20363
2.19818
2.19191
2.18485
2.17702
2.16844
2.15913
2.14911
2.13841
2.12706
2.11507
2.10247
2.0893
2.07559
2.06134
2.04663
2.03144
2.01583
1.99985
1.98342
1.9668
1.9499
1.93279
1.91554
1.89829
1.88124
1.86421
1.84714
1.83002
1.81288
1.79574
1.77862
1.76155
1.74455
1.72764
1.7108
1.6941
1.677
1.6591
0.00849341
0.0254362
0.0348339
0.0416869
0.0476695
0.0533732
0.0590864
0.0649649
0.0710854
0.0774728
0.0841197
0.0910023
0.0980905
0.105355
0.112769
0.12031
0.127963
0.135712
0.14355
0.151468
0.159464
0.167536
0.175685
0.183919
0.192251
0.200703
0.209306
0.218106
0.227156
0.236514
0.246242
0.256394
0.267029
0.278209
0.289977
0.302352
0.315365
0.329043
0.343382
0.358367
0.37398
0.390222
0.407094
0.42452
0.442402
0.460689
0.479399
0.498557
0.518177
0.538263
0.558815
0.57983
0.601305
0.623237
0.645623
0.668461
0.691748
0.715482
0.739658
0.764274
0.789325
0.814807
0.840715
0.867042
0.893781
0.920925
0.948466
0.976392
1.00469
1.03336
1.06238
1.09173
1.12141
1.1514
1.18167
1.21222
1.24302
1.27406
1.30531
1.33676
1.36838
1.40015
1.43205
1.46406
1.49615
1.5283
1.56048
1.59268
1.62487
1.65701
1.6891
1.72111
1.75301
1.78478
1.8164
1.84784
1.87908
1.9101
1.94082
1.97116
2.00111
2.03065
2.05978
2.08844
2.11662
2.14427
2.17136
2.19787
2.22375
2.24897
2.27351
2.29732
2.32038
2.34266
2.36413
2.38476
2.40453
2.42341
2.44138
2.45841
2.47448
2.48958
2.50369
2.51679
2.52887
2.53991
2.5499
2.55884
2.56672
2.57352
2.57925
2.58391
2.5875
2.59001
2.59146
2.59184
2.59117
2.58945
2.58671
2.58294
2.57816
2.5724
2.56566
2.55798
2.54937
2.53985
2.52945
2.5182
2.50613
2.49325
2.47961
2.46523
2.45013
2.43438
2.41798
2.40096
2.3834
2.36528
2.34667
2.32767
2.30825
2.28852
2.26848
2.24819
2.22771
2.20716
2.18665
2.16612
2.14555
2.12495
2.10433
2.08374
2.06322
2.04283
2.02261
2.00266
1.98306
1.96405
1.94542
1.92737
0.0116524
0.0318401
0.0425693
0.0503342
0.0570193
0.0632924
0.069478
0.0757548
0.0822197
0.0889172
0.095858
0.103033
0.110424
0.118008
0.125768
0.133685
0.141749
0.149952
0.15829
0.166764
0.175378
0.184138
0.193057
0.202152
0.211444
0.220964
0.230752
0.240853
0.25132
0.262207
0.273566
0.285445
0.297885
0.310924
0.32459
0.338901
0.353869
0.3695
0.385788
0.402718
0.420276
0.438452
0.457231
0.476583
0.496461
0.516838
0.537707
0.559076
0.580949
0.603333
0.626228
0.649637
0.673559
0.697995
0.722943
0.748403
0.774374
0.800855
0.827844
0.855337
0.883333
0.911828
0.940816
0.970292
1.00025
1.03068
1.06158
1.09293
1.12472
1.15695
1.18959
1.22263
1.25606
1.28986
1.32401
1.35848
1.39327
1.42834
1.46367
1.49924
1.53502
1.571
1.60713
1.6434
1.67977
1.71622
1.75273
1.78926
1.82579
1.86228
1.89871
1.93506
1.97129
2.00738
2.0433
2.07902
2.11451
2.14975
2.18459
2.21902
2.25301
2.28655
2.31959
2.35211
2.38407
2.41542
2.44613
2.47616
2.50546
2.53401
2.56176
2.58868
2.61474
2.63989
2.66412
2.68737
2.70964
2.73088
2.75107
2.77018
2.7882
2.80509
2.82085
2.83544
2.84887
2.86111
2.87215
2.88198
2.8906
2.89799
2.90416
2.9091
2.91281
2.91531
2.91658
2.91665
2.91551
2.91319
2.9097
2.90504
2.89924
2.89232
2.88431
2.87521
2.86507
2.8539
2.84174
2.82861
2.81455
2.79958
2.78375
2.7671
2.74962
2.73142
2.7125
2.69284
2.67262
2.65183
2.6305
2.6087
2.58646
2.56384
2.54087
2.51762
2.49414
2.47052
2.44686
2.42314
2.39938
2.37559
2.35181
2.32809
2.30449
2.2811
2.25799
2.23533
2.21327
2.19211
2.17182
2.15259
0.0146053
0.0373651
0.0493516
0.0579594
0.0652814
0.0720571
0.0786462
0.0852503
0.0919857
0.0989153
0.106067
0.113447
0.12105
0.128862
0.136872
0.145071
0.15345
0.162008
0.170746
0.179671
0.188791
0.198121
0.207678
0.217486
0.227572
0.23797
0.248721
0.25987
0.271464
0.283551
0.296174
0.309371
0.323175
0.337611
0.352698
0.368448
0.384865
0.401952
0.419702
0.438104
0.457146
0.476819
0.497109
0.518001
0.539473
0.561509
0.584102
0.607253
0.630963
0.655238
0.68008
0.705494
0.731481
0.758044
0.785185
0.812906
0.841208
0.87009
0.899554
0.929597
0.960219
0.991417
1.02319
1.05552
1.08842
1.12187
1.15587
1.1904
1.22546
1.26102
1.29708
1.33361
1.37061
1.40805
1.4459
1.48415
1.52278
1.56175
1.60103
1.64061
1.68045
1.72053
1.7608
1.80124
1.84182
1.88251
1.92327
1.96407
2.00487
2.04566
2.08638
2.12701
2.16752
2.20787
2.24804
2.28797
2.32765
2.36701
2.40592
2.44436
2.48231
2.51975
2.55663
2.59291
2.62854
2.66349
2.69771
2.73115
2.76378
2.79554
2.8264
2.85632
2.88526
2.91317
2.94003
2.9658
2.99044
3.01392
3.03621
3.05729
3.07713
3.0957
3.11299
3.12897
3.14363
3.15695
3.16893
3.17955
3.1888
3.19667
3.20318
3.2083
3.21206
3.21445
3.21547
3.21514
3.21348
3.21048
3.20618
3.20059
3.19372
3.1856
3.17627
3.16574
3.15404
3.1412
3.12726
3.11226
3.09622
3.07917
3.06118
3.04228
3.02245
3.00184
2.98047
2.95834
2.93556
2.91215
2.88816
2.86364
2.83864
2.81321
2.7874
2.76127
2.73488
2.7083
2.68162
2.65485
2.62803
2.60119
2.57439
2.54768
2.52115
2.49489
2.46904
2.44378
2.41931
2.39597
2.37374
2.35273
0.0171317
0.0421024
0.0551742
0.0645213
0.0724033
0.0796173
0.0865515
0.0934267
0.100375
0.107477
0.114775
0.12229
0.130028
0.137987
0.146163
0.154553
0.163155
0.171972
0.181011
0.19028
0.199794
0.209572
0.219635
0.23001
0.240727
0.251822
0.263332
0.2753
0.287767
0.300773
0.314356
0.328546
0.34337
0.358846
0.374989
0.391807
0.409305
0.427483
0.446337
0.465861
0.486048
0.506891
0.528382
0.550512
0.573273
0.596656
0.620658
0.645279
0.670522
0.696392
0.722893
0.750031
0.77781
0.806237
0.835316
0.865049
0.895442
0.926496
0.958213
0.990595
1.02364
1.05735
1.09172
1.12675
1.16243
1.19875
1.23571
1.2733
1.3115
1.35029
1.38968
1.42962
1.47011
1.51112
1.55263
1.59461
1.63704
1.67988
1.72311
1.76668
1.81057
1.85475
1.89917
1.9438
1.9886
2.03353
2.07856
2.12365
2.16876
2.21385
2.25889
2.30383
2.34864
2.39327
2.4377
2.48187
2.52576
2.56921
2.61216
2.65461
2.69651
2.73783
2.77852
2.81853
2.85781
2.89633
2.93401
2.97083
3.00672
3.04165
3.07556
3.10841
3.14016
3.17077
3.20019
3.22839
3.25533
3.28097
3.30529
3.32825
3.34982
3.36998
3.38871
3.40598
3.42179
3.43611
3.44893
3.46024
3.47004
3.47832
3.48507
3.4903
3.49402
3.49622
3.49692
3.49613
3.49386
3.49013
3.48496
3.47837
3.47038
3.46102
3.45032
3.43832
3.42503
3.41049
3.39476
3.37787
3.35984
3.34068
3.32054
3.29941
3.27732
3.25436
3.23057
3.20598
3.18067
3.15467
3.12804
3.10084
3.07311
3.04492
3.01631
2.98735
2.95809
2.92862
2.89899
2.86925
2.83946
2.80966
2.77991
2.75029
2.7209
2.69186
2.66332
2.63549
2.60861
2.58297
2.55856
2.53541
0.0192825
0.0460724
0.0600413
0.0700075
0.0783607
0.0859427
0.0931629
0.100256
0.107368
0.114592
0.121983
0.129575
0.137385
0.145423
0.153693
0.162196
0.170939
0.179928
0.189174
0.198689
0.208492
0.218603
0.229046
0.239851
0.251046
0.262667
0.274749
0.287329
0.300444
0.314129
0.328414
0.343327
0.35889
0.375119
0.392027
0.409622
0.42791
0.446893
0.466571
0.486942
0.508005
0.529756
0.552194
0.575315
0.599118
0.623601
0.648765
0.674614
0.701151
0.728384
0.756319
0.784966
0.81433
0.84442
0.875244
0.906807
0.939117
0.972177
1.00599
1.04057
1.0759
1.112
1.14885
1.18647
1.22483
1.26394
1.30379
1.34437
1.38565
1.42764
1.47031
1.51364
1.5576
1.60218
1.64734
1.69306
1.7393
1.78603
1.83322
1.88082
1.92879
1.9771
2.0257
2.07456
2.12362
2.17284
2.22219
2.27161
2.32106
2.3705
2.41988
2.46916
2.5183
2.56724
2.61595
2.66437
2.71245
2.76001
2.80702
2.85346
2.8993
2.94448
2.98895
3.03267
3.07557
3.1176
3.15871
3.19884
3.23795
3.27597
3.31287
3.34858
3.38307
3.41628
3.44819
3.47873
3.50788
3.5356
3.56185
3.58659
3.6098
3.63145
3.65152
3.66999
3.68684
3.70206
3.71564
3.72755
3.73781
3.74639
3.75331
3.75856
3.76214
3.76408
3.76438
3.76305
3.76011
3.75558
3.74948
3.74184
3.73267
3.72202
3.70992
3.69641
3.68151
3.66521
3.64767
3.62888
3.60888
3.58769
3.56542
3.54209
3.51775
3.49246
3.46627
3.43923
3.41141
3.38286
3.35363
3.32378
3.29337
3.26245
3.23109
3.19934
3.16727
3.13494
3.10244
3.06981
3.03711
3.00441
2.97179
2.93933
2.90715
2.87537
2.84418
2.8138
2.78445
2.75642
2.72963
2.70412
0.0210428
0.0492912
0.0639723
0.0744328
0.0831625
0.0910369
0.0984805
0.105739
0.112966
0.120265
0.127703
0.135324
0.143156
0.151216
0.159517
0.168069
0.176881
0.185965
0.195335
0.205007
0.215
0.225338
0.236045
0.247149
0.258681
0.270671
0.283153
0.29616
0.309725
0.323877
0.338645
0.354053
0.370121
0.386865
0.4043
0.422434
0.441276
0.460831
0.481104
0.502098
0.523816
0.546261
0.569434
0.593341
0.617983
0.643365
0.669494
0.696375
0.724017
0.75243
0.781624
0.81161
0.842399
0.874
0.906426
0.939684
0.973785
1.00874
1.04454
1.08121
1.11875
1.15715
1.19642
1.23656
1.27756
1.31942
1.36212
1.40567
1.45003
1.49519
1.54115
1.58786
1.63532
1.68348
1.73231
1.7818
1.83188
1.88254
1.93372
1.98538
2.03748
2.08997
2.14279
2.19591
2.24926
2.30281
2.35649
2.41027
2.46408
2.51788
2.57162
2.62525
2.67872
2.73198
2.78497
2.83766
2.88984
2.94146
2.99249
3.04289
3.0926
3.14159
3.18978
3.23713
3.28357
3.32903
3.37347
3.41683
3.45904
3.50006
3.53982
3.57828
3.61538
3.65109
3.68535
3.71811
3.74935
3.77901
3.80706
3.83346
3.85818
3.88119
3.90248
3.92202
3.93979
3.95579
3.97
3.9824
3.993
4.00179
4.00876
4.01392
4.01729
4.01888
4.01869
4.01674
4.01306
4.00766
4.00058
3.99183
3.98143
3.96944
3.95591
3.94087
3.92434
3.90637
3.88702
3.86635
3.84439
3.82119
3.79681
3.77131
3.74473
3.71714
3.6886
3.65915
3.62887
3.59781
3.56603
3.53359
3.50055
3.46698
3.43292
3.39845
3.36363
3.32854
3.29323
3.25779
3.22227
3.18676
3.15134
3.11612
3.0812
3.04675
3.01295
2.98002
2.94818
2.91768
2.8884
2.8604
0.0224135
0.0517918
0.0670085
0.0778401
0.0868503
0.0949389
0.102541
0.109909
0.117204
0.124535
0.131978
0.139585
0.147393
0.155429
0.16371
0.172254
0.181074
0.190186
0.199606
0.209353
0.219448
0.229914
0.240776
0.25206
0.263796
0.276013
0.288741
0.30201
0.31585
0.330288
0.345351
0.361061
0.377439
0.394502
0.412265
0.430742
0.449944
0.469881
0.490562
0.511994
0.534188
0.557149
0.580888
0.605412
0.63073
0.656853
0.68379
0.711554
0.740157
0.769613
0.799935
0.831137
0.863235
0.896242
0.930173
0.965039
1.00085
1.03763
1.07537
1.11408
1.15378
1.19445
1.23612
1.27877
1.32239
1.367
1.41256
1.45908
1.50653
1.5549
1.60416
1.6543
1.70527
1.75705
1.8096
1.86288
1.91684
1.97146
2.02667
2.08242
2.13867
2.19535
2.25242
2.30981
2.36746
2.42533
2.48334
2.54146
2.59961
2.65774
2.71581
2.77374
2.8315
2.88901
2.94622
3.00303
3.05924
3.11483
3.16977
3.224
3.27748
3.33013
3.38191
3.43275
3.48257
3.53132
3.57892
3.62533
3.67048
3.7143
3.75676
3.79778
3.83732
3.87533
3.91175
3.94655
3.97969
4.01111
4.04078
4.06866
4.09471
4.11891
4.14125
4.16169
4.18023
4.19685
4.21154
4.22429
4.2351
4.24395
4.25086
4.25583
4.25887
4.26001
4.25924
4.25659
4.25208
4.24575
4.23763
4.22773
4.2161
4.20277
4.18781
4.17123
4.1531
4.13344
4.11232
4.08979
4.06591
4.04072
4.01428
3.98666
3.9579
3.92808
3.89724
3.86546
3.8328
3.79931
3.76506
3.73012
3.69454
3.6584
3.62175
3.58465
3.54719
3.50942
3.47142
3.43327
3.39505
3.35683
3.31872
3.28082
3.24327
3.20622
3.16986
3.13441
3.10008
3.06708
3.03528
3.00475
0.0234106
0.0536245
0.0692127
0.080298
0.0894949
0.09772
0.105415
0.112837
0.12015
0.12747
0.134878
0.142434
0.15018
0.158149
0.166367
0.174853
0.183627
0.192708
0.202112
0.211861
0.221976
0.23248
0.243397
0.254753
0.266575
0.278891
0.291728
0.305116
0.319082
0.333652
0.348851
0.364702
0.381228
0.398449
0.416381
0.435043
0.45445
0.474616
0.495556
0.517284
0.539813
0.563157
0.587331
0.612348
0.638224
0.664973
0.692613
0.721159
0.750629
0.781041
0.812413
0.844763
0.878111
0.912473
0.947868
0.98431
1.02182
1.0604
1.10007
1.14083
1.1827
1.22567
1.26976
1.31495
1.36124
1.40863
1.4571
1.50664
1.55723
1.60885
1.66148
1.71508
1.76961
1.82505
1.88135
1.93846
1.99634
2.05493
2.11418
2.17403
2.23443
2.2953
2.35658
2.41821
2.48011
2.54224
2.60452
2.66689
2.72929
2.79166
2.85393
2.91605
2.97796
3.03959
3.10087
3.16156
3.22161
3.28098
3.33962
3.39748
3.45449
3.51059
3.56572
3.61981
3.67277
3.72454
3.77505
3.82425
3.87206
3.91843
3.96331
4.00662
4.04832
4.08837
4.1267
4.16327
4.19805
4.23099
4.26204
4.29115
4.3183
4.34346
4.36662
4.38775
4.40685
4.42389
4.43888
4.45182
4.46267
4.47143
4.47813
4.48277
4.48536
4.48593
4.4845
4.48107
4.47569
4.46838
4.45918
4.44812
4.43523
4.42056
4.40416
4.38608
4.36635
4.34504
4.32219
4.29786
4.27211
4.24499
4.21657
4.18691
4.15606
4.1241
4.09108
4.05707
4.02213
3.98634
3.94975
3.91242
3.87444
3.83585
3.79674
3.75716
3.71718
3.67688
3.63634
3.59563
3.55484
3.51406
3.47338
3.43294
3.39286
3.35332
3.31449
3.27659
3.23981
3.20435
3.17003
3.13698
0.0240634
0.0548536
0.0706644
0.0818951
0.09119
0.0994761
0.1072
0.114619
0.121903
0.129169
0.136504
0.143971
0.15162
0.159487
0.167601
0.175988
0.184669
0.193664
0.202994
0.212678
0.22274
0.2332
0.244084
0.255415
0.26722
0.279525
0.292358
0.305744
0.319711
0.334286
0.349494
0.36536
0.381909
0.399163
0.417144
0.435873
0.455371
0.475658
0.496754
0.518679
0.541452
0.565094
0.589626
0.615067
0.641438
0.668761
0.697058
0.726349
0.756659
0.788009
0.820423
0.853924
0.888534
0.924274
0.961165
0.999226
1.03848
1.07893
1.1206
1.16349
1.20761
1.25297
1.29956
1.34739
1.39644
1.44671
1.49818
1.55083
1.60465
1.6596
1.71566
1.77278
1.83094
1.89008
1.95015
2.01111
2.0729
2.13546
2.19873
2.26264
2.32712
2.39211
2.45752
2.52328
2.58931
2.65555
2.72194
2.78839
2.85485
2.92124
2.98752
3.0536
3.11943
3.18494
3.24988
3.31416
3.37774
3.44057
3.50258
3.56372
3.62392
3.68312
3.74125
3.79823
3.85396
3.90838
3.96142
4.01302
4.06312
4.11166
4.15858
4.20381
4.24731
4.28903
4.3289
4.3669
4.40298
4.43712
4.46923
4.49926
4.52721
4.55304
4.57674
4.5983
4.6177
4.63494
4.65
4.66288
4.67358
4.68209
4.68843
4.69261
4.69464
4.69455
4.69236
4.68809
4.68177
4.67344
4.66313
4.65088
4.63673
4.62073
4.60292
4.58336
4.56209
4.53917
4.51466
4.48861
4.46109
4.43215
4.40186
4.37027
4.33746
4.30349
4.26843
4.23234
4.19529
4.15735
4.11857
4.07905
4.03882
3.99798
3.95658
3.91469
3.87239
3.82975
3.78684
3.74376
3.70058
3.65741
3.61435
3.57153
3.52909
3.48718
3.44601
3.40577
3.36664
3.32879
3.29203
3.25654
0.0244125
0.0555544
0.0714559
0.0827337
0.0920448
0.100321
0.10801
0.115373
0.12258
0.129751
0.136976
0.144321
0.151839
0.159569
0.167546
0.175795
0.18434
0.193204
0.202407
0.211969
0.221913
0.232261
0.243037
0.254263
0.265966
0.278172
0.290907
0.304198
0.318073
0.33256
0.347686
0.363479
0.379966
0.397174
0.41513
0.433859
0.453388
0.473743
0.49495
0.517037
0.54003
0.563955
0.58884
0.614712
0.641599
0.669526
0.698522
0.728613
0.759829
0.792198
0.825745
0.860499
0.896486
0.93373
0.972255
1.01208
1.05323
1.09572
1.13955
1.18475
1.23131
1.27923
1.32851
1.37914
1.43111
1.48441
1.53902
1.59492
1.65208
1.71046
1.77004
1.83076
1.89257
1.95544
2.01929
2.08407
2.14972
2.21618
2.28336
2.35121
2.41964
2.48859
2.55793
2.6276
2.69752
2.76761
2.8378
2.90803
2.97822
3.04831
3.11822
3.18789
3.25727
3.32608
3.39423
3.46165
3.5283
3.59411
3.659
3.72293
3.78581
3.84758
3.9082
3.96759
4.02557
4.08212
4.13717
4.19067
4.24255
4.29276
4.34122
4.38789
4.43271
4.47563
4.5166
4.55557
4.59251
4.62738
4.66012
4.6907
4.71908
4.74525
4.76918
4.79087
4.8103
4.82746
4.84235
4.85497
4.86531
4.87339
4.8792
4.88277
4.88411
4.88325
4.88021
4.87502
4.86771
4.85832
4.84688
4.83344
4.81804
4.80074
4.78157
4.76059
4.73785
4.71342
4.68735
4.6597
4.63053
4.5999
4.56789
4.53455
4.49995
4.46416
4.42724
4.38927
4.35031
4.31042
4.26969
4.22817
4.18594
4.14307
4.09961
4.05565
4.01126
3.9665
3.92147
3.87624
3.83091
3.78558
3.74035
3.69536
3.65075
3.60668
3.56333
3.52091
3.47957
3.43945
3.40039
3.36258
0.024508
0.05581
0.071687
0.082925
0.092178
0.100378
0.107975
0.11523
0.122314
0.12935
0.136429
0.14362
0.150977
0.158542
0.166349
0.174428
0.182802
0.191495
0.200527
0.20992
0.219696
0.229877
0.240487
0.251549
0.263089
0.275135
0.287712
0.300851
0.314581
0.328931
0.343932
0.359616
0.376014
0.393158
0.411081
0.429814
0.449389
0.469841
0.491203
0.513508
0.536792
0.561089
0.586435
0.612864
0.640409
0.669101
0.698973
0.730059
0.762391
0.796003
0.830924
0.867187
0.904818
0.943844
0.984289
1.02618
1.06952
1.11435
1.16066
1.20848
1.25777
1.30854
1.36078
1.41447
1.4696
1.52615
1.5841
1.64341
1.70404
1.76596
1.82912
1.89347
1.95894
2.02549
2.09305
2.16154
2.23091
2.30106
2.37194
2.44345
2.51555
2.58817
2.6611
2.73428
2.80765
2.88114
2.95468
3.02818
3.10159
3.17483
3.24784
3.32055
3.39267
3.46412
3.53484
3.60475
3.67379
3.74189
3.80898
3.87499
3.93986
4.0035
4.06586
4.12686
4.18639
4.24439
4.30079
4.35554
4.40856
4.45981
4.50922
4.55673
4.60229
4.64586
4.68738
4.72681
4.76411
4.79924
4.83216
4.86284
4.89124
4.91735
4.94115
4.96262
4.98176
4.99855
5.013
5.0251
5.03487
5.04229
5.0474
5.0502
5.05072
5.04898
5.04501
5.03883
5.03048
5.02001
5.00745
4.99284
4.97623
4.95767
4.93721
4.91491
4.89082
4.86501
4.83752
4.80842
4.77778
4.74566
4.71213
4.67724
4.64107
4.60369
4.56516
4.52556
4.48495
4.44339
4.40097
4.35774
4.31378
4.26916
4.22394
4.17819
4.13199
4.08542
4.03854
3.99146
3.94425
3.89703
3.84991
3.80301
3.75647
3.71047
3.66517
3.62077
3.57741
3.53523
3.49405
3.4541
0.0244078
0.0557077
0.0714608
0.0825824
0.0917109
0.0997757
0.107226
0.114324
0.121244
0.128109
0.13501
0.142018
0.149188
0.156562
0.164175
0.172057
0.180232
0.188724
0.197556
0.206748
0.216324
0.226306
0.236719
0.247589
0.258942
0.270808
0.283216
0.296199
0.309788
0.324018
0.338924
0.354543
0.370913
0.388073
0.40606
0.424916
0.444678
0.465387
0.487087
0.509819
0.533628
0.558558
0.584654
0.611959
0.640516
0.670349
0.701495
0.733993
0.767881
0.803193
0.839964
0.878222
0.917996
0.95931
1.00218
1.04664
1.09268
1.14033
1.18961
1.24053
1.29303
1.34707
1.40263
1.45972
1.5183
1.57835
1.63983
1.70269
1.7669
1.8324
1.89913
1.96704
2.03605
2.1061
2.17713
2.24904
2.32176
2.39522
2.46933
2.54401
2.61917
2.69474
2.77058
2.84661
2.92275
2.99893
3.07506
3.15109
3.22695
3.30257
3.37783
3.45247
3.52643
3.59964
3.67203
3.74352
3.81405
3.88353
3.95191
4.01911
4.08505
4.14968
4.21291
4.27468
4.33491
4.39352
4.45045
4.50564
4.55903
4.61056
4.66017
4.70781
4.75343
4.79698
4.83841
4.87769
4.91477
4.94962
4.98219
5.01247
5.04043
5.06603
5.08928
5.11015
5.12864
5.14474
5.15845
5.16978
5.17873
5.1853
5.18952
5.19141
5.19098
5.18826
5.18327
5.17607
5.16667
5.15511
5.14145
5.12572
5.10798
5.08827
5.06664
5.04316
5.01788
4.99085
4.96214
4.93181
4.89993
4.86655
4.83175
4.79559
4.75814
4.71946
4.67963
4.6387
4.59676
4.55386
4.51008
4.46548
4.42013
4.37411
4.32747
4.28028
4.23263
4.18458
4.13621
4.08761
4.03887
3.9901
3.9414
3.8929
3.84474
3.79709
3.75012
3.70399
3.65887
3.61486
3.57181
3.52996
0.0241646
0.0553229
0.070861
0.0817941
0.0907334
0.0986033
0.105853
0.112747
0.11946
0.126116
0.132807
0.139603
0.146559
0.153717
0.161114
0.168777
0.176734
0.185008
0.193624
0.202604
0.211973
0.221758
0.231984
0.242682
0.253882
0.265617
0.277921
0.290833
0.304391
0.318635
0.333607
0.349353
0.365919
0.383357
0.401715
0.421038
0.44137
0.462763
0.48527
0.508945
0.53384
0.560011
0.587514
0.616411
0.646779
0.678561
0.711814
0.746586
0.782917
0.820838
0.860379
0.901562
0.944405
0.988923
1.03513
1.08302
1.13259
1.18386
1.2368
1.29141
1.34764
1.40545
1.46481
1.52568
1.58803
1.6518
1.71696
1.78345
1.85121
1.92018
1.99029
2.06148
2.13367
2.2068
2.28077
2.35552
2.43096
2.50701
2.58358
2.66059
2.73795
2.81558
2.89338
2.97126
3.04914
3.12696
3.20463
3.28211
3.35931
3.436
3.51207
3.58743
3.66203
3.73578
3.80862
3.88047
3.95126
4.02093
4.0894
4.15661
4.22248
4.28695
4.34995
4.41141
4.47127
4.52945
4.5859
4.64054
4.69334
4.74423
4.79315
4.84006
4.8849
4.92764
4.96823
5.00662
5.04279
5.0767
5.10832
5.13762
5.16457
5.18916
5.21138
5.23121
5.24865
5.26368
5.27632
5.28657
5.29443
5.29993
5.30306
5.30386
5.30234
5.29853
5.29247
5.28419
5.27372
5.2611
5.24638
5.2296
5.21081
5.19007
5.16741
5.14291
5.11661
5.08858
5.05888
5.02756
4.99469
4.96034
4.92456
4.88743
4.84901
4.80936
4.76856
4.72667
4.68375
4.63988
4.59511
4.54951
4.50316
4.45611
4.40844
4.36021
4.31148
4.26234
4.21286
4.16312
4.11322
4.06325
4.01333
3.96357
3.91413
3.86515
3.8168
3.76925
3.72264
3.67708
3.63242
3.58894
0.0238997
0.054805
0.0700592
0.0807467
0.089446
0.0970764
0.104088
0.110748
0.117231
0.123662
0.130132
0.136712
0.143454
0.150402
0.157592
0.165054
0.172818
0.180909
0.189356
0.198186
0.207428
0.217113
0.227276
0.237953
0.249182
0.261004
0.273464
0.286609
0.300492
0.315163
0.330668
0.347067
0.364424
0.38281
0.402308
0.422951
0.444761
0.467818
0.492187
0.517932
0.545112
0.573783
0.604001
0.635813
0.669264
0.704363
0.741138
0.779612
0.819807
0.861736
0.905408
0.950824
0.99798
1.04687
1.09747
1.14977
1.20374
1.25936
1.31659