/*--------------------------------*- C++ -*----------------------------------*\
  =========                 |
  \\      /  F ield         | OpenFOAM: The Open Source CFD Toolbox
   \\    /   O peration     | Website:  https://openfoam.org
    \\  /    A nd           | Version:  12
     \\/     M anipulation  |
\*---------------------------------------------------------------------------*/
FoamFile
{
    format      ascii;
    class       volScalarField;
    location    "0.25";
    object      nut;
}
// * * * * * * * * * * * * * * * * * * * * * * * * * * * * * * * * * * * * * //

dimensions      [0 2 -1 0 0 0 0];

internalField   nonuniform List<scalar> 
12225
(
4.04768e-05
3.83178e-05
3.62504e-05
3.44199e-05
3.29519e-05
3.18976e-05
3.12561e-05
3.09935e-05
3.10578e-05
3.13898e-05
3.19306e-05
3.26267e-05
3.34315e-05
3.43067e-05
3.52228e-05
3.61555e-05
3.71097e-05
3.84912e-05
0.000281048
0.000209266
0.000176267
0.00015744
0.000146272
0.000139688
0.000135794
0.000133431
0.000131916
0.000130859
0.000130045
0.000129358
0.00012874
0.000128162
0.000127623
0.00012708
0.000126683
0.000125737
0.000556048
0.000419908
0.000349816
0.000304738
0.000272451
0.000247988
0.000228773
0.000213309
0.000200682
0.000190282
0.000181669
0.000174503
0.000168516
0.000163485
0.000159238
0.000155589
0.000152451
0.000149394
0.000740308
0.000625822
0.000544118
0.000485002
0.000439776
0.000403657
0.00037385
0.000348616
0.000326869
0.00030791
0.000291266
0.00027659
0.000263612
0.000252103
0.000241867
0.000232689
0.000224411
0.000216755
0.000817069
0.000759142
0.000700547
0.00064858
0.000603902
0.00056559
0.000532483
0.000503526
0.000477895
0.000454981
0.000434339
0.000415633
0.000398607
0.000383048
0.000368779
0.000355616
0.000343414
0.000332078
0.0008421
0.000819688
0.000789925
0.000757608
0.000725557
0.000695169
0.000666974
0.000641028
0.00061719
0.000595258
0.000575029
0.000556317
0.000538956
0.0005228
0.000507721
0.000493588
0.000480301
0.000467906
0.000849261
0.000841808
0.000829742
0.000814189
0.000796483
0.000777765
0.000758855
0.000740264
0.00072228
0.00070505
0.000688633
0.000673038
0.000658243
0.000644212
0.000630897
0.000618245
0.000606215
0.000594934
0.00085112
0.000848748
0.000844481
0.000838237
0.000830247
0.000820898
0.000810602
0.000799727
0.000788562
0.000777324
0.000766168
0.000755201
0.000744494
0.000734088
0.000724007
0.000714261
0.000704862
0.000695964
0.00085156
0.000850665
0.00084917
0.000846887
0.000843742
0.00083976
0.000835036
0.000829697
0.000823879
0.000817712
0.000811307
0.000804761
0.000798149
0.000791532
0.000784957
0.000778461
0.000772081
0.000765952
0.000851652
0.000851133
0.000850468
0.000849564
0.000848347
0.000846773
0.000844827
0.000842521
0.000839886
0.000836961
0.000833794
0.000830429
0.000826912
0.00082328
0.000819571
0.000815815
0.000812046
0.000808362
0.000851668
0.00085123
0.000850778
0.000850278
0.000849698
0.000849007
0.000848183
0.000847212
0.000846089
0.000844816
0.000843401
0.000841856
0.000840197
0.000838438
0.000836596
0.000834687
0.000832732
0.000830786
0.000851669
0.000851245
0.000850835
0.000850429
0.000850014
0.000849575
0.000849101
0.00084858
0.000848003
0.000847366
0.000846665
0.000845902
0.000845079
0.0008442
0.000843269
0.000842294
0.000841284
0.000840273
0.000851668
0.000851244
0.000850843
0.000850459
0.000850088
0.000849726
0.000849365
0.000849001
0.000848629
0.000848243
0.000847841
0.000847421
0.00084698
0.000846519
0.000846038
0.000845538
0.000845024
0.000844513
0.000851667
0.000851242
0.000850839
0.000850458
0.000850096
0.000849751
0.000849421
0.000849102
0.000848793
0.000848491
0.000848195
0.000847902
0.000847611
0.000847321
0.000847032
0.000846742
0.000846454
0.000846181
0.000851666
0.000851239
0.000850835
0.000850452
0.00085009
0.000849746
0.000849419
0.000849108
0.000848812
0.000848528
0.000848257
0.000847996
0.000847746
0.000847505
0.000847272
0.000847048
0.000846832
0.000846638
0.000851665
0.000851236
0.000850831
0.000850447
0.000850083
0.000849737
0.000849409
0.000849098
0.000848801
0.000848519
0.000848251
0.000847994
0.00084775
0.000847517
0.000847294
0.000847082
0.000846881
0.000846703
0.000851664
0.000851235
0.000850828
0.000850442
0.000850077
0.00084973
0.000849401
0.000849088
0.00084879
0.000848507
0.000848237
0.00084798
0.000847735
0.000847502
0.000847279
0.000847066
0.000846866
0.000846688
0.000851663
0.000851234
0.000850826
0.00085044
0.000850073
0.000849725
0.000849395
0.000849081
0.000848782
0.000848498
0.000848227
0.000847969
0.000847722
0.000847488
0.000847264
0.00084705
0.000846848
0.000846669
0.000851663
0.000851233
0.000850825
0.000850439
0.000850072
0.000849724
0.000849393
0.000849078
0.000848779
0.000848494
0.000848222
0.000847963
0.000847716
0.000847481
0.000847256
0.000847041
0.000846838
0.000846658
0.000851664
0.000851234
0.000850826
0.00085044
0.000850074
0.000849726
0.000849396
0.000849081
0.000848782
0.000848497
0.000848225
0.000847965
0.000847717
0.00084748
0.000847253
0.000847037
0.000846831
0.000846648
0.000851664
0.000851235
0.000850829
0.000850443
0.000850078
0.00084973
0.000849399
0.000849082
0.000848779
0.000848489
0.000848209
0.00084794
0.000847679
0.000847427
0.000847182
0.000846944
0.000846715
0.000846505
0.000851665
0.000851237
0.00085083
0.000850442
0.000850068
0.000849706
0.000849351
0.000848999
0.000848647
0.000848293
0.000847934
0.000847569
0.000847198
0.000846819
0.000846432
0.000846038
0.00084564
0.000845251
0.000851664
0.000851228
0.000850794
0.000850348
0.00084987
0.000849345
0.000848761
0.00084811
0.000847388
0.000846592
0.000845727
0.000844795
0.000843804
0.000842759
0.000841669
0.000840541
0.000839384
0.000838222
0.000851634
0.000851073
0.000850343
0.000849363
0.000848079
0.000846467
0.00084453
0.000842291
0.000839784
0.00083705
0.000834132
0.000831072
0.000827906
0.000824668
0.000821388
0.000818091
0.000814802
0.000811566
0.000851287
0.000849596
0.000846721
0.000842577
0.000837262
0.000830978
0.00082397
0.000816468
0.00080867
0.000800733
0.000792778
0.000784894
0.000777149
0.000769585
0.000762234
0.000755114
0.000748241
0.000741668
0.000848318
0.000839425
0.00082616
0.000810016
0.000792355
0.000774222
0.000756314
0.000739034
0.000722581
0.000707035
0.000692407
0.00067867
0.000665777
0.000653674
0.000642305
0.000631614
0.000621555
0.000612138
0.000828548
0.000788842
0.000746032
0.000705698
0.000669457
0.000637491
0.000609432
0.000584722
0.000562823
0.00054328
0.000525724
0.000509856
0.000495435
0.000482265
0.000470189
0.000459075
0.000448818
0.00043937
0.000730725
0.000627344
0.000554503
0.000501054
0.00046031
0.000428337
0.00040262
0.000381453
0.000363691
0.000348559
0.000335511
0.00032415
0.000314178
0.000305364
0.00029753
0.000290531
0.000284247
0.000278596
0.000439249
0.00033847
0.000287933
0.000256866
0.000236359
0.000222507
0.00021299
0.000206309
0.000201503
0.000197957
0.000195269
0.000193175
0.000191498
0.000190115
0.000188946
0.000187932
0.000187036
0.000186209
7.16431e-05
6.90587e-05
6.65522e-05
6.41646e-05
6.19883e-05
6.00784e-05
5.84565e-05
5.71213e-05
5.60572e-05
5.52404e-05
5.46437e-05
5.42396e-05
5.40011e-05
5.39034e-05
5.39239e-05
5.40424e-05
5.42417e-05
5.45054e-05
2.17717e-07
5.59139e-06
9.25205e-06
1.24782e-05
1.57958e-05
1.972e-05
2.42648e-05
2.95683e-05
3.57836e-05
4.27222e-05
5.00304e-05
5.77098e-05
6.57033e-05
7.39408e-05
8.23531e-05
9.0875e-05
9.94461e-05
0.000108009
0.000116511
0.000124897
0.000133114
0.000141107
0.000148816
0.000156177
0.000163125
0.000169597
0.000175535
0.000180895
0.000185638
0.000189715
0.000193046
0.000195513
0.000197047
0.000197863
0.000198475
0.000198472
0.000196086
4.52751e-05
4.58184e-05
0.000202758
0.000203743
0.00020137
0.000201347
4.70869e-05
4.81256e-05
4.91789e-05
5.02535e-05
5.1339e-05
5.24304e-05
5.35247e-05
5.46197e-05
5.57143e-05
5.68076e-05
5.7899e-05
5.8988e-05
6.00743e-05
6.11575e-05
6.22373e-05
6.33136e-05
6.43858e-05
6.54539e-05
6.65174e-05
6.75761e-05
6.86295e-05
6.96774e-05
7.07193e-05
7.17549e-05
7.27837e-05
7.38053e-05
7.48193e-05
7.58252e-05
7.68226e-05
7.78111e-05
7.87901e-05
7.97592e-05
8.0718e-05
8.1666e-05
8.26027e-05
8.35278e-05
8.44407e-05
8.5341e-05
8.62284e-05
8.71024e-05
8.79626e-05
8.88086e-05
8.964e-05
9.04564e-05
9.12575e-05
9.20429e-05
9.28121e-05
9.35649e-05
9.43009e-05
9.50196e-05
9.57207e-05
9.6404e-05
9.70691e-05
9.77162e-05
9.83458e-05
9.89591e-05
9.9559e-05
0.000100144
0.000100706
0.000101247
0.000101767
0.000102264
0.00010274
0.000103194
0.000103624
0.000104032
0.000104417
0.000104777
0.000105114
0.000105427
0.000105715
0.000105978
0.000106217
0.00010643
0.000106618
0.000106781
0.000106918
0.00010703
0.000107116
0.000107177
0.000107211
0.000107221
0.000107204
0.000107162
0.000107095
0.000107003
0.000106885
0.000106742
0.000106575
0.000106383
0.000106167
0.000105927
0.000105663
0.000105376
0.000105065
0.000104733
0.000104378
0.000104001
0.000103603
0.000103184
0.000102745
0.000102286
0.000101808
0.000101311
0.000100796
0.000100264
9.97146e-05
9.91492e-05
9.85683e-05
9.79725e-05
9.73625e-05
9.67391e-05
9.61028e-05
9.54547e-05
9.47951e-05
9.41251e-05
9.34455e-05
9.27561e-05
9.20599e-05
9.1355e-05
9.06457e-05
8.99371e-05
8.92868e-05
8.88667e-05
8.84793e-05
8.80916e-05
8.77018e-05
8.731e-05
8.6916e-05
8.65195e-05
8.61189e-05
8.57113e-05
8.529e-05
8.48395e-05
8.43195e-05
8.36307e-05
8.23304e-05
8.3325e-07
2.33912e-05
5.15654e-05
7.22581e-05
8.72128e-05
9.80172e-05
0.000106961
0.000115404
0.000124012
0.000133052
0.000142555
0.000152447
0.000162631
0.000173011
0.000183498
0.000194016
0.000204492
0.000214857
0.000225044
0.000234982
0.000244589
0.000253775
0.000262434
0.000270444
0.000277677
0.000283995
0.000289263
0.000293341
0.000296074
0.000297242
0.000296484
0.000293258
0.000287069
0.000278278
0.000269604
0.000266048
0.000260039
0.000239936
0.000238567
0.000248891
0.000253752
0.000260573
0.000260921
0.000261998
0.000268401
0.00027463
0.000281113
0.000288011
0.000295215
0.000302656
0.000310283
0.000318065
0.000325981
0.000334018
0.000342167
0.000350421
0.000358777
0.000367231
0.00037578
0.000384423
0.000393157
0.00040198
0.000410891
0.000419888
0.000428967
0.000438128
0.000447366
0.000456678
0.000466062
0.000475513
0.000485028
0.000494601
0.000504228
0.000513904
0.000523624
0.000533382
0.000543173
0.000552991
0.00056283
0.000572685
0.000582549
0.000592416
0.000602282
0.000612139
0.000621984
0.000631809
0.000641612
0.000651386
0.000661126
0.00067083
0.000680492
0.000690107
0.000699671
0.000709177
0.000718617
0.000727977
0.000737236
0.000746357
0.000755284
0.00076385
0.000771814
0.000779607
0.000787277
0.000794824
0.000802245
0.000809534
0.000816685
0.000823694
0.000830553
0.000837259
0.000843805
0.000850187
0.000856399
0.000862437
0.000868296
0.000873972
0.00087946
0.000884757
0.000889857
0.000894759
0.000899457
0.00090395
0.000908234
0.000912307
0.000916167
0.00091981
0.000923235
0.000926441
0.000929425
0.000932188
0.000934727
0.000937042
0.000939133
0.000940999
0.000942642
0.000944061
0.000945258
0.000946233
0.000946987
0.000947523
0.000947843
0.000947948
0.000947841
0.000947525
0.000947004
0.00094628
0.000945358
0.000944241
0.000942933
0.00094144
0.000939767
0.000937917
0.000935897
0.000933713
0.00093137
0.000928873
0.000926233
0.000923452
0.00092054
0.000917508
0.000914348
0.000911095
0.000907743
0.000904258
0.000900542
0.000896024
0.000889473
0.000882248
0.000874808
0.000867265
0.000859657
0.000852
0.000844305
0.000836572
0.000828794
0.000820949
0.000812961
0.000804719
0.000795233
0.000776832
1.6685e-06
3.82227e-05
8.27285e-05
0.000116283
0.000140532
0.000158593
0.000172919
0.00018526
0.000196741
0.000207999
0.000219338
0.000230854
0.000242535
0.000254328
0.000266158
0.000277951
0.000289632
0.00030113
0.000312373
0.000323285
0.000333786
0.000343784
0.000353186
0.000361892
0.000369814
0.000376879
0.000383046
0.000388314
0.000392722
0.000396332
0.000399204
0.000401398
0.00040306
0.000404663
0.000407266
0.000411661
0.000416652
0.000421436
0.000429012
0.000439075
0.000450101
0.000462181
0.00047473
0.000488141
0.00050235
0.000516925
0.000531841
0.000547119
0.000562728
0.000578639
0.00059482
0.000611249
0.000627908
0.000644783
0.000661864
0.000679143
0.000696614
0.000714272
0.000732111
0.000750129
0.000768319
0.000786678
0.000805201
0.000823883
0.000842718
0.000861699
0.00088082
0.000900072
0.000919448
0.000938939
0.000958534
0.000978224
0.000997998
0.00101785
0.00103775
0.00105771
0.00107771
0.00109772
0.00111775
0.00113778
0.0011578
0.00117779
0.00119774
0.00121764
0.00123748
0.00125724
0.00127691
0.00129649
0.00131595
0.00133529
0.0013545
0.00137356
0.00139244
0.00141115
0.00142965
0.00144791
0.0014659
0.00148357
0.00150088
0.00151751
0.0015337
0.00154959
0.00156522
0.00158059
0.00159569
0.00161051
0.00162504
0.00163927
0.00165318
0.00166677
0.00168002
0.00169292
0.00170547
0.00171765
0.00172946
0.00174088
0.00175191
0.00176253
0.00177275
0.00178254
0.00179192
0.00180086
0.00180937
0.00181743
0.00182505
0.00183222
0.00183893
0.00184518
0.00185097
0.0018563
0.00186116
0.00186556
0.00186949
0.00187295
0.00187595
0.00187848
0.00188054
0.00188215
0.0018833
0.00188399
0.00188423
0.00188403
0.00188338
0.0018823
0.00188079
0.00187886
0.00187652
0.00187378
0.00187063
0.00186711
0.0018632
0.00185893
0.0018543
0.00184934
0.00184404
0.00183842
0.00183251
0.0018263
0.00181983
0.0018131
0.00180614
0.00179895
0.00179156
0.00178388
0.00177575
0.00176665
0.00175575
0.00174387
0.00173152
0.00171891
0.00170612
0.00169319
0.00168016
0.00166701
0.00165374
0.00164027
0.00162639
0.0016116
0.00159396
0.00156485
2.66493e-06
4.91382e-05
0.000105575
0.000148963
0.000181216
0.000205601
0.000224823
0.000240896
0.000255214
0.000268664
0.000281754
0.000294741
0.000307721
0.000320704
0.000333657
0.000346528
0.000359259
0.000371791
0.000384067
0.00039603
0.000407626
0.000418799
0.000429503
0.000439701
0.00044938
0.000458555
0.000467284
0.000475666
0.000483841
0.000491978
0.000500254
0.000508847
0.000517954
0.000527821
0.000538741
0.00055088
0.000564118
0.000578417
0.000594041
0.000610905
0.000628799
0.000647642
0.000667331
0.000687793
0.000708853
0.000730365
0.000752256
0.000774499
0.000797077
0.000819977
0.000843185
0.000866689
0.000890477
0.000914541
0.000938872
0.000963462
0.000988306
0.0010134
0.00103873
0.0010643
0.0010901
0.00111611
0.00114235
0.00116879
0.00119542
0.00122225
0.00124925
0.00127641
0.00130372
0.00133118
0.00135875
0.00138643
0.00141421
0.00144206
0.00146997
0.00149792
0.00152589
0.00155387
0.00158184
0.00160977
0.00163765
0.00166547
0.0016932
0.00172082
0.00174832
0.00177568
0.00180288
0.00182991
0.00185675
0.00188338
0.00190978
0.00193593
0.00196181
0.0019874
0.00201266
0.00203758
0.00206211
0.00208624
0.00210982
0.0021328
0.00215533
0.00217747
0.00219924
0.00222065
0.00224168
0.00226232
0.00228255
0.00230236
0.00232173
0.00234066
0.00235911
0.00237709
0.00239457
0.00241155
0.00242801
0.00244394
0.00245932
0.00247415
0.00248842
0.00250211
0.00251521
0.00252772
0.00253963
0.00255094
0.00256162
0.00257169
0.00258113
0.00258993
0.00259811
0.00260564
0.00261253
0.00261877
0.00262437
0.00262933
0.00263364
0.0026373
0.00264033
0.00264271
0.00264447
0.00264559
0.00264608
0.00264595
0.00264522
0.00264387
0.00264193
0.0026394
0.0026363
0.00263262
0.0026284
0.00262363
0.00261833
0.00261251
0.0026062
0.0025994
0.00259213
0.00258442
0.00257628
0.00256773
0.00255879
0.00254949
0.00253985
0.00252987
0.00251955
0.00250885
0.00249761
0.0024855
0.00247207
0.00245771
0.00244275
0.00242741
0.0024118
0.00239598
0.00237998
0.00236382
0.00234747
0.00233085
0.00231367
0.00229524
0.0022734
0.00224153
3.65654e-06
5.80339e-05
0.000123757
0.000175532
0.000214664
0.000244534
0.00026806
0.000287469
0.000304356
0.000319795
0.000334465
0.000348757
0.000362873
0.000376897
0.000390848
0.00040471
0.000418453
0.000432045
0.000445453
0.000458649
0.000471613
0.000484332
0.000496808
0.000509059
0.000521128
0.000533087
0.000545039
0.000557118
0.00056948
0.000582291
0.000595714
0.000609899
0.000624977
0.000641067
0.000658258
0.000676588
0.000696036
0.000716575
0.000738179
0.000760777
0.000784282
0.000808632
0.000833762
0.000859587
0.000885989
0.000912871
0.000940167
0.000967841
0.000995874
0.00102425
0.00105297
0.00108202
0.00111138
0.00114106
0.00117105
0.00120133
0.00123191
0.00126277
0.00129391
0.00132531
0.00135698
0.0013889
0.00142106
0.00145344
0.00148605
0.00151885
0.00155185
0.00158502
0.00161834
0.00165181
0.0016854
0.00171909
0.00175286
0.00178669
0.00182057
0.00185446
0.00188835
0.00192222
0.00195604
0.00198978
0.00202344
0.00205698
0.00209038
0.00212362
0.00215668
0.00218955
0.00222219
0.00225459
0.00228672
0.00231858
0.00235013
0.00238136
0.00241223
0.00244274
0.00247286
0.00250255
0.00253181
0.0025606
0.00258874
0.00261634
0.00264346
0.00267013
0.00269638
0.00272219
0.00274755
0.00277244
0.00279685
0.00282077
0.00284417
0.00286704
0.00288936
0.00291111
0.00293229
0.00295287
0.00297284
0.00299219
0.00301089
0.00302895
0.00304634
0.00306306
0.00307909
0.00309442
0.00310904
0.00312295
0.00313614
0.00314859
0.0031603
0.00317128
0.00318149
0.00319096
0.00319966
0.00320761
0.00321479
0.00322121
0.00322687
0.00323176
0.00323589
0.00323926
0.00324187
0.00324373
0.00324485
0.00324523
0.00324487
0.00324379
0.003242
0.0032395
0.0032363
0.00323242
0.00322788
0.00322267
0.00321683
0.00321036
0.00320328
0.00319561
0.00318737
0.00317859
0.00316927
0.00315945
0.00314915
0.00313839
0.0031272
0.00311557
0.00310351
0.003091
0.00307794
0.00306412
0.00304932
0.00303369
0.00301746
0.00300078
0.00298376
0.00296647
0.00294898
0.00293129
0.0029134
0.00289522
0.00287649
0.0028565
0.00283338
0.00280265
4.58359e-06
6.52441e-05
0.000138793
0.000197695
0.000242792
0.000277505
0.000304892
0.000327333
0.00034658
0.00036386
0.000379991
0.000395485
0.000410645
0.000425631
0.000440521
0.000455343
0.000470102
0.000484796
0.00049942
0.000513976
0.000528473
0.000542934
0.000557393
0.000571903
0.000586537
0.000601387
0.000616568
0.000632208
0.000648445
0.00066541
0.000683224
0.000701986
0.000721773
0.000742635
0.000764596
0.000787653
0.000811774
0.000836916
0.000863022
0.000890026
0.000917862
0.00094647
0.000975788
0.00100575
0.00103627
0.00106728
0.00109872
0.00113058
0.00116281
0.00119542
0.00122838
0.0012617
0.00129535
0.00132934
0.00136366
0.0013983
0.00143324
0.00146849
0.00150403
0.00153986
0.00157595
0.00161231
0.00164891
0.00168575
0.00172281
0.00176007
0.00179751
0.00183513
0.00187289
0.00191078
0.00194878
0.00198687
0.00202502
0.00206321
0.00210142
0.00213962
0.00217779
0.0022159
0.00225393
0.00229185
0.00232964
0.00236728
0.00240473
0.00244197
0.00247899
0.00251576
0.00255225
0.00258845
0.00262434
0.00265988
0.00269507
0.00272989
0.0027643
0.0027983
0.00283186
0.00286496
0.00289757
0.00292966
0.00296112
0.00299203
0.00302246
0.00305241
0.0030819
0.0031109
0.00313942
0.00316743
0.00319492
0.00322186
0.00324825
0.00327406
0.00329927
0.00332387
0.00334784
0.00337116
0.00339382
0.0034158
0.00343709
0.00345766
0.00347752
0.00349664
0.00351501
0.00353261
0.00354945
0.0035655
0.00358077
0.00359523
0.00360889
0.00362173
0.00363375
0.00364494
0.0036553
0.00366482
0.00367351
0.00368135
0.00368836
0.00369452
0.00369984
0.00370432
0.00370797
0.00371079
0.00371278
0.00371395
0.0037143
0.00371385
0.0037126
0.00371057
0.00370776
0.00370418
0.00369985
0.00369479
0.003689
0.00368251
0.00367534
0.00366749
0.00365899
0.00364987
0.00364014
0.00362983
0.00361896
0.00360756
0.00359565
0.00358324
0.00357034
0.00355693
0.00354296
0.00352832
0.0035129
0.00349676
0.00348004
0.00346285
0.00344528
0.00342742
0.00340932
0.00339103
0.00337256
0.00335384
0.00333466
0.00331443
0.00329167
0.00326351
5.37682e-06
7.12726e-05
0.000151256
0.000216183
0.000266468
0.000305492
0.000336384
0.000361629
0.000383093
0.000402123
0.000419653
0.000436303
0.000452466
0.000468381
0.000484183
0.000499949
0.000515722
0.000531528
0.000547392
0.000563338
0.000579399
0.00059562
0.000612053
0.000628767
0.000645844
0.000663379
0.000681475
0.000700242
0.000719786
0.000740206
0.000761581
0.000783972
0.000807417
0.000831931
0.000857509
0.00088413
0.000911754
0.000940333
0.000969809
0.00100012
0.00103121
0.00106302
0.00109549
0.00112857
0.00116219
0.00119631
0.00123088
0.00126587
0.00130126
0.00133703
0.00137317
0.00140967
0.00144653
0.00148373
0.00152126
0.00155911
0.00159728
0.00163576
0.00167453
0.00171358
0.00175291
0.00179249
0.00183231
0.00187236
0.00191263
0.00195309
0.00199372
0.00203451
0.00207544
0.00211648
0.00215761
0.00219881
0.00224006
0.00228134
0.0023226
0.00236384
0.00240502
0.00244612
0.00248712
0.00252797
0.00256867
0.00260918
0.00264948
0.00268953
0.00272933
0.00276884
0.00280804
0.00284691
0.00288543
0.00292358
0.00296134
0.00299869
0.00303562
0.0030721
0.00310811
0.00314365
0.00317869
0.00321313
0.00324699
0.00328034
0.00331319
0.00334556
0.00337745
0.00340884
0.00343973
0.00347009
0.00349991
0.00352917
0.00355784
0.00358592
0.00361338
0.0036402
0.00366637
0.00369186
0.00371667
0.00374076
0.00376414
0.00378677
0.00380865
0.00382975
0.00385007
0.00386959
0.00388831
0.0039062
0.00392326
0.00393948
0.00395485
0.00396937
0.00398301
0.00399579
0.00400768
0.00401869
0.00402881
0.00403805
0.0040464
0.00405385
0.00406041
0.00406608
0.00407086
0.00407476
0.00407778
0.00407992
0.00408119
0.0040816
0.00408116
0.00407988
0.00407776
0.00407481
0.00407106
0.00406653
0.0040612
0.0040551
0.00404826
0.00404069
0.00403241
0.00402345
0.00401383
0.00400357
0.00399269
0.00398122
0.00396918
0.00395659
0.00394346
0.00392978
0.00391554
0.00390067
0.00388514
0.00386897
0.00385223
0.00383503
0.00381744
0.00379954
0.00378141
0.00376309
0.00374462
0.00372599
0.00370704
0.00368731
0.00366571
0.00364036
6.05219e-06
7.61448e-05
0.00016136
0.000231372
0.000286167
0.000329037
0.000363129
0.000390986
0.000414554
0.000435272
0.000454168
0.000471954
0.000489104
0.000505929
0.000522623
0.000539309
0.000556066
0.00057295
0.000590009
0.000607286
0.00062483
0.000642695
0.000660944
0.000679648
0.000698885
0.000718741
0.000739303
0.000760656
0.000782881
0.000806044
0.000830196
0.000855371
0.000881581
0.000908825
0.000937084
0.000966327
0.000996511
0.00102759
0.00105951
0.00109221
0.00112565
0.00115976
0.0011945
0.00122982
0.00126567
0.00130201
0.00133881
0.00137603
0.00141365
0.00145166
0.00149005
0.00152879
0.00156789
0.00160732
0.00164709
0.00168718
0.00172758
0.00176827
0.00180926
0.00185052
0.00189204
0.00193382
0.00197582
0.00201805
0.00206047
0.00210309
0.00214586
0.00218879
0.00223184
0.00227499
0.00231823
0.00236153
0.00240487
0.00244822
0.00249155
0.00253484
0.00257807
0.00262121
0.00266422
0.00270709
0.00274979
0.00279228
0.00283455
0.00287656
0.00291829
0.00295972
0.00300082
0.00304158
0.00308196
0.00312196
0.00316155
0.00320072
0.00323945
0.00327772
0.00331552
0.00335283
0.00338963
0.00342584
0.00346153
0.00349672
0.00353143
0.00356567
0.00359943
0.0036327
0.00366546
0.00369769
0.00372938
0.0037605
0.00379104
0.00382097
0.00385028
0.00387894
0.00390693
0.00393425
0.00396086
0.00398675
0.00401191
0.00403631
0.00405993
0.00408277
0.0041048
0.00412601
0.00414639
0.00416593
0.00418461
0.00420243
0.00421938
0.00423544
0.00425061
0.00426487
0.00427823
0.00429066
0.00430219
0.00431279
0.00432248
0.00433124
0.00433907
0.00434597
0.00435194
0.004357
0.00436116
0.00436439
0.00436671
0.00436812
0.00436865
0.00436832
0.00436709
0.00436499
0.00436203
0.00435825
0.00435364
0.00434822
0.00434202
0.00433504
0.00432732
0.00431887
0.00430971
0.00429986
0.00428936
0.00427821
0.00426645
0.00425409
0.00424115
0.00422764
0.00421354
0.00419885
0.00418355
0.00416766
0.00415123
0.00413433
0.00411705
0.00409945
0.00408162
0.00406362
0.00404553
0.00402735
0.004009
0.00399016
0.00396999
0.00394727
6.60499e-06
7.99495e-05
0.000169308
0.000243548
0.000302233
0.000348516
0.000385516
0.0004158
0.000441364
0.00046371
0.000483941
0.000502844
0.000520966
0.00053868
0.000556233
0.000573793
0.000591472
0.000609354
0.000627505
0.000645982
0.000664845
0.000684151
0.000703964
0.000724351
0.000745381
0.000767126
0.000789655
0.000813032
0.000837315
0.000862546
0.000888757
0.000915962
0.000944161
0.000973341
0.00100348
0.00103453
0.00106647
0.00109924
0.0011328
0.0011671
0.00120208
0.0012377
0.00127391
0.00131068
0.00134796
0.00138571
0.00142392
0.00146254
0.00150155
0.00154095
0.00158072
0.00162084
0.0016613
0.0017021
0.00174321
0.00178464
0.00182637
0.00186838
0.00191068
0.00195324
0.00199606
0.00203912
0.00208241
0.00212591
0.00216961
0.00221349
0.00225753
0.00230172
0.00234604
0.00239047
0.00243498
0.00247956
0.00252418
0.00256882
0.00261346
0.00265806
0.0027026
0.00274706
0.0027914
0.00283561
0.00287964
0.00292349
0.0029671
0.00301047
0.00305355
0.00309633
0.00313879
0.00318089
0.00322262
0.00326396
0.00330489
0.0033454
0.00338546
0.00342508
0.00346422
0.00350289
0.00354103
0.00357866
0.00361581
0.00365251
0.00368875
0.00372454
0.00375986
0.0037947
0.00382905
0.00386287
0.00389616
0.00392889
0.00396104
0.00399259
0.00402352
0.0040538
0.00408342
0.00411235
0.00414058
0.00416809
0.00419485
0.00422086
0.00424608
0.00427051
0.00429411
0.00431689
0.00433882
0.0043599
0.0043801
0.00439943
0.00441787
0.00443542
0.00445205
0.00446776
0.00448253
0.00449637
0.00450927
0.00452124
0.00453227
0.00454236
0.00455148
0.00455965
0.00456687
0.00457315
0.00457851
0.00458292
0.00458637
0.0045889
0.00459051
0.00459121
0.004591
0.0045899
0.00458792
0.00458507
0.00458137
0.00457684
0.00457148
0.00456532
0.00455838
0.00455068
0.00454224
0.00453307
0.0045232
0.00451266
0.00450146
0.00448963
0.00447718
0.00446413
0.00445049
0.00443625
0.00442142
0.00440603
0.00439012
0.00437374
0.00435698
0.0043399
0.00432259
0.00430514
0.00428764
0.00427013
0.00425257
0.00423476
0.00421606
0.00419559
7.03552e-06
8.27836e-05
0.000175296
0.000252968
0.000314956
0.000364232
0.00040385
0.000436366
0.000463801
0.000487699
0.000509218
0.000529205
0.000548265
0.000566826
0.000585184
0.000603543
0.000622048
0.000640805
0.000659895
0.000679388
0.000699346
0.000719828
0.000740895
0.000762605
0.000785017
0.000808188
0.000832171
0.000857013
0.000882751
0.000909414
0.000937017
0.000965563
0.000995043
0.00102544
0.00105673
0.00108886
0.00112182
0.00115555
0.00119
0.00122514
0.00126092
0.00129729
0.00133422
0.00137167
0.00140961
0.001448
0.00148681
0.00152603
0.00156564
0.00160561
0.00164594
0.0016866
0.0017276
0.00176891
0.00181054
0.00185246
0.00189468
0.00193719
0.00197997
0.00202301
0.0020663
0.00210985
0.00215362
0.00219761
0.00224181
0.00228621
0.00233078
0.00237552
0.0024204
0.00246542
0.00251054
0.00255576
0.00260104
0.00264637
0.00269173
0.00273708
0.0027824
0.00282767
0.00287285
0.00291792
0.00296285
0.0030076
0.00305215
0.00309647
0.00314053
0.0031843
0.00322775
0.00327087
0.00331362
0.00335598
0.00339795
0.0034395
0.00348062
0.0035213
0.00356152
0.00360127
0.00364058
0.00367945
0.00371789
0.00375591
0.00379351
0.00383068
0.00386741
0.00390368
0.00393947
0.00397476
0.00400952
0.00404374
0.00407738
0.00411043
0.00414287
0.00417466
0.0042058
0.00423626
0.00426601
0.00429504
0.00432334
0.00435087
0.00437762
0.00440356
0.00442868
0.00445296
0.00447639
0.00449895
0.00452064
0.00454144
0.00456134
0.00458034
0.00459842
0.00461555
0.00463174
0.00464698
0.00466126
0.0046746
0.00468699
0.00469843
0.00470888
0.00471835
0.00472686
0.0047344
0.004741
0.00474663
0.0047513
0.00475502
0.00475781
0.00475967
0.0047606
0.00476062
0.00475974
0.00475797
0.00475533
0.00475183
0.00474749
0.00474232
0.00473634
0.00472957
0.00472203
0.00471374
0.00470472
0.00469499
0.00468457
0.00467348
0.00466175
0.00464939
0.00463642
0.00462284
0.00460868
0.00459396
0.00457873
0.00456303
0.00454694
0.00453053
0.0045139
0.00449715
0.00448036
0.00446363
0.00444696
0.0044302
0.00441287
0.00439431
7.34877e-06
8.47492e-05
0.000179521
0.000259885
0.000324611
0.000376463
0.000418395
0.000452929
0.000482083
0.000507427
0.000530156
0.000551161
0.000571096
0.000590432
0.000609505
0.000628554
0.00064775
0.000667216
0.000687048
0.000707322
0.000728103
0.000749449
0.000771414
0.000794048
0.000817399
0.000841511
0.000866423
0.000892167
0.000918767
0.000946239
0.000974587
0.00100381
0.00103389
0.00106481
0.00109654
0.00112905
0.0011623
0.00119625
0.00123086
0.00126609
0.00130191
0.00133828
0.00137515
0.00141251
0.00145032
0.00148854
0.00152717
0.00156618
0.00160555
0.00164527
0.00168533
0.00172572
0.00176642
0.00180744
0.00184876
0.00189039
0.00193231
0.00197451
0.002017
0.00205977
0.00210282
0.00214612
0.00218968
0.0022335
0.00227755
0.00232183
0.00236633
0.00241104
0.00245594
0.00250101
0.00254625
0.00259162
0.00263712
0.00268272
0.00272839
0.00277411
0.00281986
0.0028656
0.00291131
0.00295695
0.00300249
0.00304791
0.00309315
0.0031382
0.00318302
0.00322758
0.00327184
0.00331578
0.00335938
0.0034026
0.00344544
0.00348788
0.0035299
0.00357149
0.00361264
0.00365344
0.00369386
0.0037339
0.00377358
0.00381287
0.00385178
0.00389029
0.00392839
0.00396604
0.00400323
0.00403994
0.00407613
0.00411179
0.00414689
0.00418141
0.00421532
0.00424859
0.00428122
0.00431316
0.00434441
0.00437494
0.00440473
0.00443377
0.00446202
0.00448946
0.00451607
0.00454183
0.00456674
0.00459078
0.00461393
0.00463619
0.00465755
0.00467802
0.00469755
0.00471612
0.00473372
0.00475037
0.00476606
0.00478078
0.00479454
0.00480733
0.00481914
0.00482996
0.0048398
0.00484868
0.00485658
0.00486351
0.00486948
0.00487448
0.00487854
0.00488165
0.00488383
0.00488508
0.00488542
0.00488485
0.00488339
0.00488106
0.00487787
0.00487383
0.00486896
0.00486328
0.0048568
0.00484955
0.00484154
0.0048328
0.00482334
0.00481319
0.00480236
0.00479087
0.00477875
0.00476601
0.00475267
0.00473878
0.00472436
0.00470947
0.00469418
0.00467857
0.00466273
0.00464677
0.0046308
0.00461492
0.00459916
0.00458344
0.00456736
0.00455038
7.55393e-06
8.59538e-05
0.000182184
0.000264551
0.000331469
0.000385473
0.000429395
0.000465698
0.000496382
0.000523023
0.000546838
0.000568751
0.00058945
0.000609443
0.000629096
0.000648677
0.000668377
0.000688336
0.000708658
0.000729426
0.000750703
0.000772546
0.000795002
0.000818113
0.000841917
0.000866446
0.000891727
0.000917781
0.000944621
0.000972254
0.00100068
0.00102988
0.00105986
0.00109057
0.00112201
0.00115413
0.0011869
0.0012203
0.00125428
0.0012888
0.00132385
0.00135938
0.00139537
0.00143179
0.00146862
0.00150583
0.00154341
0.00158136