/*--------------------------------*- C++ -*----------------------------------*\
  =========                 |
  \\      /  F ield         | OpenFOAM: The Open Source CFD Toolbox
   \\    /   O peration     | Website:  https://openfoam.org
    \\  /    A nd           | Version:  12
     \\/     M anipulation  |
\*---------------------------------------------------------------------------*/
FoamFile
{
    format      ascii;
    class       volScalarField;
    location    "0.25";
    object      p;
}
// * * * * * * * * * * * * * * * * * * * * * * * * * * * * * * * * * * * * * //

dimensions      [0 2 -2 0 0 0 0];

internalField   nonuniform List<scalar> 
12225
(
-1.11428
-3.39729
-4.55982
-4.86809
-5.03648
-5.19636
-5.32114
-5.40978
-5.47965
-5.54098
-5.59555
-5.64322
-5.68429
-5.7181
-5.74355
-5.75038
-5.74827
-5.64158
-4.58178
-5.28391
-5.37419
-5.23924
-5.1993
-5.26675
-5.3477
-5.41379
-5.47108
-5.5248
-5.57475
-5.61978
-5.6596
-5.69336
-5.72064
-5.73446
-5.74762
-5.73321
-4.78652
-4.68359
-4.84042
-4.96265
-5.07016
-5.19263
-5.30114
-5.38405
-5.45155
-5.51174
-5.5663
-5.61501
-5.65802
-5.69509
-5.72665
-5.74963
-5.77825
-5.81142
-4.64923
-4.57112
-4.84725
-5.02607
-5.12067
-5.21798
-5.31331
-5.39112
-5.45602
-5.51458
-5.56829
-5.61679
-5.66023
-5.69875
-5.7334
-5.76425
-5.80294
-5.85573
-4.65619
-4.67347
-4.91361
-5.06361
-5.13979
-5.22468
-5.31451
-5.39085
-5.45513
-5.51322
-5.56681
-5.6157
-5.66016
-5.70075
-5.73896
-5.77648
-5.82189
-5.88192
-4.71787
-4.76035
-4.9382
-5.06904
-5.14717
-5.22989
-5.31642
-5.39153
-5.45547
-5.51333
-5.56694
-5.61632
-5.66188
-5.70447
-5.74578
-5.78809
-5.8375
-5.89937
-4.7776
-4.81714
-4.9536
-5.07592
-5.15845
-5.23835
-5.32025
-5.39338
-5.45676
-5.51432
-5.5679
-5.61773
-5.6643
-5.70864
-5.75243
-5.79793
-5.84934
-5.91016
-4.83074
-4.86566
-4.97601
-5.08874
-5.17144
-5.24752
-5.32469
-5.39563
-5.45835
-5.51556
-5.56906
-5.61927
-5.66674
-5.71251
-5.75813
-5.80552
-5.85744
-5.91577
-4.88052
-4.91227
-5.00311
-5.10401
-5.18422
-5.25686
-5.32982
-5.39843
-5.46026
-5.51702
-5.57034
-5.62082
-5.66898
-5.71579
-5.76256
-5.81078
-5.86218
-5.91749
-4.92786
-4.9565
-5.03173
-5.12072
-5.19723
-5.26678
-5.33591
-5.40197
-5.46261
-5.51877
-5.5718
-5.62234
-5.67091
-5.71833
-5.76563
-5.81388
-5.86407
-5.91631
-4.97261
-4.99791
-5.06075
-5.1389
-5.2109
-5.27734
-5.34287
-5.40624
-5.46547
-5.52085
-5.57342
-5.62381
-5.67249
-5.7201
-5.7674
-5.81509
-5.8637
-5.913
-5.01109
-5.03344
-5.08732
-5.15667
-5.22404
-5.28746
-5.3499
-5.4108
-5.46854
-5.52305
-5.57505
-5.6251
-5.67359
-5.72102
-5.76793
-5.81476
-5.86177
-5.9086
-5.04676
-5.06658
-5.11314
-5.17474
-5.2374
-5.29775
-5.35728
-5.41576
-5.47192
-5.52543
-5.57673
-5.62627
-5.67437
-5.72136
-5.76763
-5.81341
-5.85879
-5.90338
-5.08426
-5.10157
-5.14139
-5.19544
-5.25287
-5.30966
-5.36605
-5.42186
-5.47612
-5.52834
-5.57868
-5.62743
-5.67483
-5.72107
-5.76634
-5.81076
-5.8543
-5.89661
-5.12233
-5.13724
-5.17111
-5.21817
-5.27014
-5.32299
-5.37606
-5.42902
-5.48108
-5.53169
-5.58077
-5.62842
-5.67477
-5.71989
-5.76384
-5.80663
-5.84819
-5.88824
-5.15903
-5.17179
-5.20067
-5.24162
-5.28832
-5.33711
-5.3868
-5.43684
-5.48651
-5.53523
-5.58274
-5.62898
-5.67394
-5.71761
-5.75997
-5.80095
-5.84049
-5.87837
-5.19149
-5.2025
-5.22749
-5.26352
-5.30564
-5.35065
-5.39716
-5.4444
-5.49167
-5.53836
-5.58409
-5.62867
-5.67201
-5.71402
-5.75462
-5.79373
-5.83128
-5.86715
-5.21534
-5.22514
-5.24752
-5.2802
-5.31904
-5.36117
-5.40515
-5.45009
-5.49528
-5.54009
-5.58408
-5.62699
-5.66866
-5.70897
-5.74782
-5.78514
-5.82087
-5.85495
-5.22361
-5.23296
-5.25442
-5.28594
-5.32361
-5.36458
-5.40737
-5.45111
-5.49508
-5.53865
-5.58137
-5.62296
-5.66325
-5.70211
-5.73948
-5.77528
-5.80951
-5.84214
-5.20853
-5.21858
-5.24155
-5.27517
-5.31492
-5.35748
-5.4013
-5.44571
-5.49007
-5.53375
-5.57631
-5.61753
-5.65727
-5.69547
-5.73207
-5.76705
-5.80041
-5.83217
-5.18226
-5.19344
-5.21921
-5.2569
-5.30062
-5.34613
-5.39212
-5.43826
-5.48392
-5.52842
-5.5714
-5.61278
-5.6525
-5.69052
-5.72682
-5.76142
-5.79436
-5.82569
-5.14725
-5.15962
-5.18963
-5.23407
-5.28352
-5.33259
-5.38126
-5.42989
-5.47752
-5.52327
-5.56699
-5.60878
-5.6487
-5.68675
-5.72294
-5.75736
-5.79005
-5.82111
-5.10659
-5.11918
-5.15453
-5.20907
-5.26614
-5.31908
-5.37058
-5.4219
-5.47159
-5.51867
-5.56325
-5.60562
-5.64589
-5.68407
-5.72027
-5.7546
-5.78716
-5.81807
-5.06272
-5.07427
-5.11663
-5.1832
-5.24784
-5.30541
-5.36124
-5.41583
-5.46725
-5.51522
-5.56045
-5.60332
-5.64387
-5.68214
-5.71832
-5.75257
-5.78503
-5.8158
-5.01584
-5.02359
-5.0846
-5.16434
-5.22941
-5.289
-5.35081
-5.4103
-5.46395
-5.51289
-5.55881
-5.60216
-5.64292
-5.68123
-5.71735
-5.75149
-5.78384
-5.81454
-4.96787
-4.94421
-5.05497
-5.16385
-5.22436
-5.27837
-5.34171
-5.40396
-5.45913
-5.50901
-5.55574
-5.59969
-5.64078
-5.67923
-5.7154
-5.74954
-5.78185
-5.8125
-4.95855
-4.81421
-4.9732
-5.13934
-5.22376
-5.28469
-5.34938
-5.41041
-5.46403
-5.51303
-5.55928
-5.60278
-5.64341
-5.68143
-5.71717
-5.75092
-5.78293
-5.81338
-5.10395
-4.82014
-4.85483
-4.98522
-5.10471
-5.21162
-5.30556
-5.38119
-5.44328
-5.49836
-5.54892
-5.59532
-5.63791
-5.6773
-5.71401
-5.74843
-5.78107
-5.81256
-5.04075
-5.54042
-5.5505
-5.39117
-5.3101
-5.3342
-5.38822
-5.43748
-5.48243
-5.52682
-5.57027
-5.6115
-5.65015
-5.68642
-5.7205
-5.75251
-5.78269
-5.81291
-1.70206
-3.57261
-4.64384
-4.93682
-5.07156
-5.2082
-5.31998
-5.39984
-5.46263
-5.51847
-5.56958
-5.61605
-5.65843
-5.69748
-5.73361
-5.76683
-5.79682
-5.82177
-6.71926
-6.71924
-6.71956
-6.72019
-6.72103
-6.72203
-6.72321
-6.72458
-6.72616
-6.72798
-6.73005
-6.73241
-6.7351
-6.73816
-6.74162
-6.74552
-6.74989
-6.75479
-6.76024
-6.7663
-6.77298
-6.78035
-6.78843
-6.79728
-6.80693
-6.81742
-6.82881
-6.84115
-6.8545
-6.86893
-6.88461
-6.90174
-6.92002
-6.93923
-6.96106
-6.98325
-6.99505
-7.01565
-7.05047
-7.0834
-7.11968
-7.14127
-7.15193
-7.17214
-7.19851
-7.22677
-7.25548
-7.28491
-7.31505
-7.34577
-7.37696
-7.4085
-7.44027
-7.47215
-7.50403
-7.5358
-7.56735
-7.59856
-7.62932
-7.65949
-7.68897
-7.71761
-7.74528
-7.77183
-7.79713
-7.82101
-7.84332
-7.86389
-7.88257
-7.89916
-7.91351
-7.92543
-7.93474
-7.94124
-7.94476
-7.94511
-7.94208
-7.93551
-7.92519
-7.91093
-7.89255
-7.86986
-7.84269
-7.81085
-7.77416
-7.73246
-7.68557
-7.63335
-7.57562
-7.51225
-7.44308
-7.36798
-7.28683
-7.19952
-7.10592
-7.00595
-6.89957
-6.78681
-6.66764
-6.54182
-6.40916
-6.2694
-6.12272
-5.96916
-5.80877
-5.64157
-5.46758
-5.28684
-5.09943
-4.9054
-4.70486
-4.4979
-4.28465
-4.06525
-3.83984
-3.6086
-3.37171
-3.12936
-2.88176
-2.62913
-2.37172
-2.10976
-1.84352
-1.57325
-1.29925
-1.02179
-0.741164
-0.457677
-0.171632
0.116661
0.406888
0.698734
0.99188
1.28601
1.5808
1.87595
2.17113
2.46604
2.76037
3.05382
3.34611
3.63694
3.92605
4.21316
4.49802
4.78037
5.05999
5.33665
5.61013
5.88024
6.14678
6.40959
6.66849
6.92334
7.17401
7.42035
7.66227
7.89965
8.1324
8.36045
8.58372
8.80215
9.01571
9.22436
9.42808
9.62683
9.82045
10.0088
10.1918
10.3696
10.5422
10.7095
10.8715
11.0284
11.1801
11.3271
11.4701
11.6106
11.7575
11.9116
-6.71821
-6.71842
-6.7188
-6.71934
-6.71988
-6.72041
-6.72099
-6.72174
-6.72273
-6.724
-6.72558
-6.72749
-6.72975
-6.73239
-6.73544
-6.73892
-6.74286
-6.7473
-6.75228
-6.75782
-6.76397
-6.77075
-6.77821
-6.78638
-6.79528
-6.80495
-6.81544
-6.82676
-6.83895
-6.85203
-6.86597
-6.88051
-6.89551
-6.91155
-6.9277
-6.94255
-6.96937
-6.9951
-7.01037
-7.02845
-7.04191
-7.06341
-7.10023
-7.1379
-7.17176
-7.20231
-7.23244
-7.26291
-7.29369
-7.32477
-7.35611
-7.38769
-7.41941
-7.4512
-7.48297
-7.51462
-7.54605
-7.57716
-7.60782
-7.63793
-7.66736
-7.69598
-7.72365
-7.75025
-7.77562
-7.79961
-7.82206
-7.84282
-7.86172
-7.87858
-7.89324
-7.9055
-7.9152
-7.92213
-7.92613
-7.92699
-7.92454
-7.91857
-7.9089
-7.89535
-7.87771
-7.85582
-7.82948
-7.79853
-7.76277
-7.72205
-7.6762
-7.62506
-7.56846
-7.50628
-7.43836
-7.36457
-7.28478
-7.19889
-7.10676
-7.0083
-6.9034
-6.79194
-6.6738
-6.54874
-6.4168
-6.27833
-6.13315
-5.98118
-5.82241
-5.65685
-5.48452
-5.30545
-5.1197
-4.92734
-4.72846
-4.52316
-4.31156
-4.09379
-3.87
-3.64035
-3.40502
-3.16421
-2.91812
-2.66698
-2.411
-2.15044
-1.88555
-1.6166
-1.34386
-1.06761
-0.788149
-0.505768
-0.220772
0.0665305
0.355828
0.646804
0.939143
1.23253
1.52664
1.82117
2.1158
2.41023
2.70414
2.99724
3.28923
3.57984
3.86877
4.15578
4.44058
4.72295
5.00263
5.27941
5.55306
5.82338
6.09019
6.3533
6.61256
6.8678
7.11888
7.36568
7.60807
7.84596
8.07925
8.30785
8.5317
8.75073
8.9649
9.17417
9.37853
9.5779
9.77214
9.96113
10.1449
10.3233
10.4966
10.6646
10.8274
10.9851
11.1379
11.2861
11.431
11.5736
11.724
11.8721
-6.71505
-6.71598
-6.71693
-6.71782
-6.71846
-6.71895
-6.71942
-6.72
-6.7208
-6.72187
-6.72324
-6.72495
-6.72703
-6.72949
-6.73236
-6.73567
-6.73946
-6.74375
-6.74858
-6.75399
-6.75999
-6.76664
-6.77396
-6.78198
-6.79073
-6.80026
-6.81057
-6.82173
-6.83374
-6.84667
-6.86054
-6.87527
-6.89073
-6.90717
-6.92487
-6.94363
-6.9652
-6.98841
-7.00989
-7.03174
-7.0534
-7.0763
-7.10311
-7.13184
-7.16087
-7.18987
-7.21928
-7.24918
-7.27946
-7.31006
-7.34093
-7.372
-7.40321
-7.43448
-7.46573
-7.49688
-7.52781
-7.55844
-7.58866
-7.61835
-7.64739
-7.67566
-7.70302
-7.72935
-7.75449
-7.77829
-7.80061
-7.82128
-7.84014
-7.85701
-7.87173
-7.88412
-7.89398
-7.90115
-7.90544
-7.90665
-7.9046
-7.8991
-7.88997
-7.877
-7.86002
-7.83884
-7.81328
-7.78316
-7.74831
-7.70855
-7.66372
-7.61366
-7.55821
-7.49723
-7.43056
-7.35809
-7.27966
-7.19518
-7.10451
-7.00755
-6.90419
-6.79428
-6.6777
-6.55452
-6.42455
-6.2879
-6.14454
-5.99442
-5.83753
-5.67386
-5.50344
-5.32631
-5.1425
-4.95208
-4.75515
-4.55179
-4.34213
-4.12629
-3.90441
-3.67666
-3.44321
-3.20424
-2.95997
-2.71061
-2.45638
-2.19752
-1.93429
-1.66695
-1.39577
-1.12103
-0.843011
-0.562018
-0.278346
0.00769706
0.295802
0.585656
0.876944
1.16935
1.46256
1.75626
2.05014
2.34388
2.63719
2.92976
3.22131
3.51154
3.80017
4.08695
4.3716
4.65388
4.93354
5.21037
5.48413
5.75463
6.02167
6.28507
6.54467
6.8003
7.05181
7.29909
7.542
7.78045
8.01432
8.24354
8.46801
8.68769
8.9025
9.11242
9.31738
9.51734
9.71224
9.90199
10.0866
10.2659
10.44
10.6089
10.7727
10.9315
11.0855
11.2351
11.3819
11.5262
11.6793
11.8172
-6.71016
-6.71174
-6.71362
-6.71524
-6.71638
-6.71719
-6.71789
-6.71863
-6.71951
-6.7206
-6.72197
-6.72366
-6.72571
-6.72813
-6.73097
-6.73425
-6.738
-6.74225
-6.74703
-6.75238
-6.75833
-6.76491
-6.77216
-6.78009
-6.78876
-6.79817
-6.80838
-6.81941
-6.83129
-6.84406
-6.85775
-6.87234
-6.88784
-6.9043
-6.9219
-6.9408
-6.961
-6.98229
-7.0042
-7.02677
-7.05022
-7.07487
-7.10096
-7.12816
-7.15596
-7.18429
-7.21316
-7.24251
-7.27226
-7.30236
-7.33274
-7.36334
-7.39408
-7.42491
-7.45573
-7.48646
-7.51701
-7.54728
-7.57716
-7.60654
-7.63531
-7.66335
-7.69051
-7.71667
-7.74168
-7.7654
-7.78767
-7.80833
-7.82722
-7.84417
-7.859
-7.87155
-7.88162
-7.88903
-7.89361
-7.89516
-7.89349
-7.88842
-7.87975
-7.8673
-7.85088
-7.8303
-7.80539
-7.77597
-7.74185
-7.70288
-7.65888
-7.60968
-7.55515
-7.49512
-7.42944
-7.35799
-7.28063
-7.19723
-7.10767
-7.01185
-6.90964
-6.80093
-6.68563
-6.56373
-6.43518
-6.29995
-6.15802
-6.00934
-5.85391
-5.69172
-5.52279
-5.34715
-5.16484
-4.97594
-4.78051
-4.57866
-4.3705
-4.15615
-3.93576
-3.70947
-3.47747
-3.23995
-2.99708
-2.74911
-2.49623
-2.2387
-1.97677
-1.71068
-1.44072
-1.16716
-0.890276
-0.610371
-0.327741
-0.0426893
0.244475
0.533442
0.823896
1.11552
1.40801
1.70105
1.99432
2.28751
2.58033
2.87248
3.16365
3.45357
3.74195
4.02853
4.31304
4.59523
4.87487
5.15171
5.42555
5.69617
5.96338
6.22699
6.48684
6.74276
6.99461
7.24226
7.48557
7.72444
7.95876
8.18844
8.41341
8.63361
8.84897
9.05942
9.2649
9.46534
9.66069
9.85096
10.0361
10.216
10.3907
10.5603
10.7248
10.8843
11.0391
11.1897
11.3374
11.4818
11.6338
11.7596
-6.7046
-6.70694
-6.70988
-6.71239
-6.71418
-6.7155
-6.71659
-6.71764
-6.71876
-6.72005
-6.72159
-6.72342
-6.72558
-6.72811
-6.73105
-6.73443
-6.73827
-6.74261
-6.74748
-6.75291
-6.75895
-6.76561
-6.77293
-6.78096
-6.78971
-6.79922
-6.80953
-6.82067
-6.83268
-6.84559
-6.85942
-6.87418
-6.88992
-6.90665
-6.92445
-6.94336
-6.96334
-6.98429
-7.0061
-7.02879
-7.05236
-7.07697
-7.10269
-7.12935
-7.1567
-7.18462
-7.21306
-7.24196
-7.27128
-7.30096
-7.33094
-7.36115
-7.39153
-7.422
-7.4525
-7.48292
-7.51318
-7.54319
-7.57284
-7.60201
-7.6306
-7.65848
-7.68552
-7.71158
-7.73653
-7.76021
-7.78248
-7.80316
-7.82211
-7.83914
-7.8541
-7.86679
-7.87703
-7.88466
-7.88947
-7.89129
-7.88992
-7.88517
-7.87686
-7.8648
-7.84879
-7.82867
-7.80423
-7.77532
-7.74174
-7.70332
-7.65991
-7.61134
-7.55746
-7.4981
-7.43313
-7.36241
-7.2858
-7.20317
-7.11441
-7.01941
-6.91804
-6.81023
-6.69588
-6.57494
-6.44738
-6.31315
-6.17221
-6.02453
-5.87011
-5.70893
-5.54101
-5.36639
-5.18511
-4.99723
-4.80283
-4.602
-4.39485
-4.18152
-3.96213
-3.73684
-3.50583
-3.26927
-3.02736
-2.78032
-2.52837
-2.27174
-2.01069
-1.74546
-1.47633
-1.20356
-0.927457
-0.648296
-0.366379
-0.082007
0.204512
0.492867
0.782746
1.07384
1.36582
1.65839
1.95124
2.24405
2.53653
2.82837
3.11928
3.40897
3.69717
3.9836
4.268
4.55013
4.82973
5.10658
5.38045
5.65115
5.91846
6.18221
6.44223
6.69835
6.95043
7.19832
7.4419
7.68106
7.9157
8.14573
8.37106
8.59162
8.80734
9.01815
9.22397
9.42472
9.62037
9.81094
9.99638
10.1766
10.3518
10.5217
10.6866
10.8465
11.0017
11.1526
11.3003
11.4435
11.5928
11.7069
-6.69942
-6.70248
-6.70641
-6.70981
-6.71231
-6.7142
-6.71578
-6.71724
-6.71872
-6.72033
-6.72214
-6.72422
-6.72662
-6.72938
-6.73253
-6.73612
-6.74017
-6.74472
-6.7498
-6.75544
-6.76169
-6.76857
-6.77612
-6.78437
-6.79336
-6.80313
-6.8137
-6.82511
-6.8374
-6.85059
-6.86471
-6.87977
-6.89579
-6.9128
-6.93082
-6.94984
-6.96985
-6.99079
-7.01262
-7.03532
-7.05887
-7.08331
-7.10863
-7.13478
-7.16162
-7.18909
-7.2171
-7.24561
-7.27456
-7.30389
-7.33354
-7.36345
-7.39354
-7.42376
-7.45401
-7.48421
-7.51428
-7.54412
-7.57361
-7.60266
-7.63115
-7.65895
-7.68594
-7.71197
-7.73691
-7.76061
-7.78292
-7.80366
-7.82269
-7.83983
-7.85491
-7.86774
-7.87816
-7.88596
-7.89098
-7.89302
-7.89189
-7.8874
-7.87937
-7.8676
-7.85191
-7.83211
-7.80802
-7.77947
-7.74627
-7.70826
-7.66526
-7.61713
-7.56369
-7.50481
-7.44033
-7.37011
-7.29402
-7.21194
-7.12375
-7.02932
-6.92856
-6.82138
-6.70769
-6.58743
-6.46054
-6.32698
-6.18672
-6.03971
-5.88596
-5.72545
-5.55821
-5.38427
-5.20366
-5.01645
-4.82273
-4.62257
-4.4161
-4.20343
-3.9847
-3.76007
-3.52971
-3.29379
-3.05252
-2.80611
-2.55477
-2.29875
-2.03828
-1.77362
-1.50505
-1.23283
-0.957255
-0.678602
-0.397173
-0.11327
0.172801
0.46073
0.750206
1.04092
1.33255
1.62479
1.91733
2.20986
2.50208
2.79369
3.0844
3.37392
3.66197
3.94828
4.23258
4.51464
4.7942
5.07103
5.34491
5.61563
5.883
6.14683
6.40694
6.66318
6.91539
7.16344
7.4072
7.64656
7.88141
8.11166
8.33722
8.55801
8.77397
8.985
9.19104
9.392
9.58785
9.77861
9.96425
10.1447
10.3201
10.4903
10.6554
10.8155
10.9709
11.1216
11.2688
11.4103
11.5565
11.6602
-6.69557
-6.69919
-6.70392
-6.70809
-6.71125
-6.71371
-6.71579
-6.71769
-6.71957
-6.72154
-6.72368
-6.72608
-6.72879
-6.73184
-6.73529
-6.73916
-6.7435
-6.74833
-6.7537
-6.75964
-6.76618
-6.77336
-6.78121
-6.78977
-6.79908
-6.80916
-6.82005
-6.83178
-6.84438
-6.85787
-6.87227
-6.8876
-6.90386
-6.92108
-6.93924
-6.95835
-6.97839
-6.99932
-7.02112
-7.04376
-7.06724
-7.09154
-7.11662
-7.14246
-7.16898
-7.19611
-7.22382
-7.25204
-7.28072
-7.3098
-7.33922
-7.36892
-7.39883
-7.42888
-7.45899
-7.48907
-7.51904
-7.54879
-7.57822
-7.60723
-7.6357
-7.6635
-7.6905
-7.71657
-7.74156
-7.76533
-7.78771
-7.80855
-7.82769
-7.84495
-7.86016
-7.87314
-7.88371
-7.89169
-7.89688
-7.8991
-7.89816
-7.89387
-7.88604
-7.87448
-7.85902
-7.83945
-7.8156
-7.78729
-7.75435
-7.7166
-7.67388
-7.62603
-7.57288
-7.5143
-7.45014
-7.38025
-7.30451
-7.22278
-7.13495
-7.0409
-6.94054
-6.83377
-6.72051
-6.60068
-6.47422
-6.34108
-6.20124
-6.05465
-5.90131
-5.74122
-5.57439
-5.40086
-5.22066
-5.03387
-4.84056
-4.64082
-4.43476
-4.22251
-4.0042
-3.77998
-3.55003
-3.31453
-3.07367
-2.82765
-2.57672
-2.32108
-2.061
-1.79673
-1.52854
-1.25669
-0.981465
-0.703163
-0.422073
-0.138498
0.147256
0.434881
0.724064
1.0145
1.30586
1.59785
1.89016
2.18247
2.47449
2.76591
3.05645
3.34582
3.63373
3.91992
4.20413
4.4861
4.76559
5.04237
5.31622
5.58693
5.8543
6.11814
6.37829
6.63458
6.88687
7.135
7.37886
7.61833
7.8533
8.08368
8.30938
8.53032
8.74641
8.95758
9.16376
9.36486
9.56086
9.75176
9.93754
10.1182
10.2936
10.464
10.6292
10.7893
10.9446
11.095
11.2413
11.3809
11.5242
11.6188
-6.69347
-6.6975
-6.70284
-6.70763
-6.71135
-6.71431
-6.71685
-6.71918
-6.72145
-6.72379
-6.72629
-6.72903
-6.73206
-6.73544
-6.7392
-6.74339
-6.74805
-6.7532
-6.75889
-6.76515
-6.77201
-6.77951
-6.78769
-6.79658
-6.80621
-6.81662
-6.82782
-6.83986
-6.85274
-6.86651
-6.88115
-6.8967
-6.91316
-6.93053
-6.9488
-6.96797
-6.98803
-7.00895
-7.03071
-7.0533
-7.07669
-7.10087
-7.1258
-7.15145
-7.17777
-7.20471
-7.23222
-7.26026
-7.28878
-7.31771
-7.34701
-7.3766
-7.40642
-7.4364
-7.46646
-7.49651
-7.52646
-7.55622
-7.58568
-7.61473
-7.64324
-7.67111
-7.69819
-7.72435
-7.74944
-7.77331
-7.79581
-7.81678
-7.83605
-7.85344
-7.86878
-7.8819
-7.89261
-7.90072
-7.90606
-7.90842
-7.90762
-7.90347
-7.89578
-7.88436
-7.86903
-7.8496
-7.8259
-7.79773
-7.76493
-7.72732
-7.68475
-7.63705
-7.58406
-7.52565
-7.46165
-7.39194
-7.31638
-7.23485
-7.14722
-7.05339
-6.95325
-6.84671
-6.73368
-6.61408
-6.48784
-6.35493
-6.21529
-6.06892
-5.91579
-5.75591
-5.58929
-5.41596
-5.23598
-5.04941
-4.85631
-4.65679
-4.45096
-4.23893
-4.02085
-3.79686
-3.56715
-3.33188
-3.09126
-2.84549
-2.59479
-2.3394
-2.07956
-1.81554
-1.54758
-1.27597
-1.00099
-0.72293
-0.442075
-0.158732
0.126795
0.414197
0.703162
0.993381
1.28454
1.57633
1.86845
2.16058
2.45243
2.74368
3.03406
3.32328
3.61106
3.89713
4.18122
4.46309
4.74249
5.01919
5.29297
5.56362
5.83095
6.09477
6.35491
6.6112
6.86349
7.11165
7.35554
7.59505
7.83008
8.06052
8.28629
8.5073
8.72347
8.93472
9.14098
9.34217
9.53826
9.72926
9.91513
10.0958
10.2714
10.4418
10.607
10.7671
10.9221
11.072
11.2172
11.3547
11.4955
11.5822
-6.69339
-6.69768
-6.70342
-6.70865
-6.71279
-6.71617
-6.7191
-6.72181
-6.72444
-6.72712
-6.72995
-6.73301
-6.73636
-6.74004
-6.74411
-6.74861
-6.75357
-6.75902
-6.76502
-6.77158
-6.77875
-6.78656
-6.79504
-6.80423
-6.81415
-6.82484
-6.83631
-6.84861
-6.86173
-6.87571
-6.89056
-6.90628
-6.92288
-6.94035
-6.95871
-6.97793
-6.99801
-7.01892
-7.04067
-7.06322
-7.08656
-7.11066
-7.1355
-7.16105
-7.18726
-7.2141
-7.24153
-7.26949
-7.29794
-7.32683
-7.35609
-7.38567
-7.4155
-7.4455
-7.47559
-7.5057
-7.53572
-7.56556
-7.59511
-7.62426
-7.65289
-7.68087
-7.70808
-7.73437
-7.75959
-7.7836
-7.80624
-7.82734
-7.84674
-7.86426
-7.87973
-7.89297
-7.90379
-7.91201
-7.91744
-7.91989
-7.91917
-7.9151
-7.90748
-7.89613
-7.88085
-7.86147
-7.83781
-7.80968
-7.77692
-7.73935
-7.69682
-7.64915
-7.59621
-7.53783
-7.47388
-7.40422
-7.32872
-7.24725
-7.15969
-7.06593
-6.96587
-6.8594
-6.74644
-6.6269
-6.50072
-6.36786
-6.22828
-6.08196
-5.92887
-5.76904
-5.60247
-5.4292
-5.24928
-5.06277
-4.86974
-4.67029
-4.46454
-4.2526
-4.03461
-3.81073
-3.58112
-3.34596
-3.10546
-2.85981
-2.60925
-2.354
-2.09431
-1.83043
-1.56263
-1.29118
-1.01636
-0.738462
-0.457775
-0.174601
0.110754
0.397982
0.686774
0.976819
1.26781
1.55943
1.85138
2.14334
2.43502
2.72612
3.01634
3.30541
3.59304
3.87896
4.16292
4.44466
4.72394
5.00054
5.27422
5.54478
5.81203
6.07578
6.33585
6.59209
6.84434
7.09247
7.33634
7.57584
7.81087
8.04132
8.2671
8.48813
8.70433
8.91561
9.1219
9.32314
9.51929
9.71034
9.89626
10.077
10.2526
10.4229
10.5881
10.748
10.9026
11.0518
11.1959
11.3314
11.4698
11.5497
-6.69539
-6.69979
-6.70573
-6.71121
-6.71565
-6.71934
-6.72258
-6.72558
-6.72851
-6.73148
-6.73458
-6.73791
-6.74152
-6.74547
-6.7498
-6.75455
-6.75977
-6.76548
-6.77173
-6.77855
-6.78597
-6.79403
-6.80275
-6.81218
-6.82233
-6.83324
-6.84492
-6.85741
-6.87071
-6.88485
-6.89983
-6.91567
-6.93237
-6.94992
-6.96833
-6.98759
-7.00769
-7.02862
-7.05037
-7.07291
-7.09624
-7.12032
-7.14514
-7.17066
-7.19685
-7.22368
-7.2511
-7.27908
-7.30755
-7.33648
-7.3658
-7.39545
-7.42536
-7.45546
-7.48567
-7.51589
-7.54605
-7.57602
-7.60572
-7.63502
-7.66381
-7.69194
-7.7193
-7.74574
-7.77111
-7.79526
-7.81804
-7.83926
-7.85877
-7.8764
-7.89196
-7.90528
-7.91617
-7.92444
-7.92991
-7.93239
-7.93169
-7.92762
-7.91999
-7.90862
-7.89332
-7.8739
-7.85019
-7.82201
-7.78919
-7.75156
-7.70896
-7.66123
-7.60822
-7.54978
-7.48577
-7.41605
-7.34049
-7.25898
-7.17138
-7.07758
-6.97747
-6.87094
-6.75791
-6.6383
-6.51205
-6.37912
-6.23946
-6.09306
-5.93991
-5.78
-5.61337
-5.44004
-5.26007
-5.07351
-4.88044
-4.68097
-4.47519
-4.26324
-4.04526
-3.82139
-3.5918
-3.35668
-3.11622
-2.87063
-2.62013
-2.36496
-2.10535
-1.84157
-1.57387
-1.30253
-1.02783
-0.750064
-0.469512
-0.186481
0.0987254
0.3858
0.674435
0.964318
1.25514
1.54659
1.83836
2.13015
2.42165
2.71258
3.00263
3.29152
3.57899
3.86475
4.14854
4.43013
4.70926
4.9857
5.25925
5.52968
5.7968
6.06043
6.3204
6.57654
6.8287
7.07675
7.32056
7.56
7.79498
8.02539
8.25114
8.47214
8.68832
8.8996
9.10589
9.30715
9.50332
9.69439
9.88032
10.0611
10.2366
10.4069
10.5719
10.7315
10.8857
11.0341
11.177
11.3105
11.4468
11.5208
-6.69937
-6.70375
-6.7097
-6.71528
-6.71987
-6.72375
-6.72719
-6.73041
-6.73354
-6.73672
-6.74003
-6.74355
-6.74735
-6.75149
-6.756
-6.76094
-6.76634
-6.77223
-6.77866
-6.78565
-6.79325
-6.80148
-6.81037
-6.81995
-6.83026
-6.84131
-6.85313
-6.86574
-6.87915
-6.89339
-6.90847
-6.92438
-6.94114
-6.95875
-6.9772
-6.99649
-7.01662
-7.03758
-7.05935
-7.08192
-7.10527
-7.12938
-7.15423
-7.1798
-7.20604
-7.23293
-7.26043
-7.28849
-7.31707
-7.34611
-7.37555
-7.40534
-7.4354
-7.46565
-7.49602
-7.52642
-7.55674
-7.58689
-7.61676
-7.64623
-7.67518
-7.70348
-7.73099
-7.75757
-7.78307
-7.80734
-7.83021
-7.85153
-7.87111
-7.88879
-7.90439
-7.91772
-7.92861
-7.93687
-7.9423
-7.94473
-7.94396
-7.93981
-7.93209
-7.92061
-7.90519
-7.88564
-7.86179
-7.83347
-7.8005
-7.76272
-7.71996
-7.67208
-7.61892
-7.56032
-7.49617
-7.4263
-7.35061
-7.26896
-7.18123
-7.08729
-6.98702
-6.88032
-6.76712
-6.64734
-6.52092
-6.38782
-6.24799
-6.10143
-5.94811
-5.78806
-5.62128
-5.44781
-5.26771
-5.08104
-4.88787
-4.68831
-4.48246
-4.27044
-4.05241
-3.8285
-3.5989
-3.36378
-3.12332
-2.87776
-2.62729
-2.37217
-2.11262
-1.84892
-1.58131
-1.31007
-1.03548
-0.75784
-0.477427
-0.194546
0.0905019
0.377411
0.665872
0.955576
1.24621
1.53747
1.82905
2.12063
2.41194
2.70266
2.9925
3.28119
3.56845
3.854
4.1376
4.41898
4.69792
4.97417
5.24753
5.51778
5.78473
6.0482
6.30802
6.56401
6.81604
7.06396
7.30765
7.547
7.78188
8.01221
8.23789
8.45883
8.67496
8.88619
9.09246
9.2937
9.48986
9.68092
9.86683
10.0476
10.223
10.3932
10.558
10.7173
10.871
11.0186
11.1601
11.2918
11.426
11.4952
-6.70512
-6.70937
-6.71519
-6.72071
-6.72533
-6.72927
-6.73281
-6.73614
-6.73938
-6.74266
-6.74608
-6.7497
-6.7536
-6.75782
-6.76243
-6.76745
-6.77294
-6.77892
-6.78543
-6.79251
-6.80019
-6.8085
-6.81747
-6.82713
-6.83751
-6.84863
-6.86051
-6.87318
-6.88665
-6.90094
-6.91606
-6.93201
-6.9488
-6.96645
-6.98493
-7.00426
-7.02443
-7.04543
-7.06724
-7.08987
-7.11329
-7.13747
-7.16241
-7.18807
-7.21442
-7.24143
-7.26906
-7.29726
-7.32599
-7.35519
-7.38481
-7.41477
-7.44501
-7.47545
-7.506
-7.53657
-7.56707
-7.5974
-7.62743
-7.65705
-7.68614
-7.71457
-7.74219
-7.76886
-7.79443
-7.81876
-7.84166
-7.86299
-7.88257
-7.90022
-7.91577
-7.92903
-7.93983
-7.94797
-7.95328
-7.95556
-7.95463
-7.9503
-7.94238
-7.9307
-7.91507
-7.89531
-7.87124
-7.84269
-7.80949
-7.77148
-7.72849
-7.68038
-7.627
-7.56819
-7.50382
-7.43375
-7.35786
-7.27601
-7.18806
-7.09388
-6.99337
-6.88643
-6.77298
-6.65296
-6.5263
-6.39296
-6.25291
-6.10613
-5.9526
-5.79235
-5.62538
-5.45174
-5.27148
-5.08466
-4.89137
-4.6917
-4.48575
-4.27366
-4.05556
-3.83161
-3.60198
-3.36685
-3.12641
-2.88088
-2.63046
-2.3754
-2.11594
-1.85233
-1.58483
-1.31372
-1.03927
-0.761778
-0.481533
-0.198831
0.0860262
0.372735
0.660986
0.950472
1.24088
1.53191
1.82324
2.11458
2.40563
2.6961
2.98569
3.27412
3.56111
3.84641
4.12975
4.41088
4.68957
4.96558
5.2387
5.50872
5.77545
6.0387
6.29831
6.55411
6.80596
7.05371
7.29724
7.53644
7.77119
8.0014
8.22697
8.44782
8.66386
8.87502
9.08123
9.28243
9.47857
9.66959
9.85547
10.0361
10.2115
10.3815
10.5461
10.705
10.8581
11.0048
11.1451
11.275
11.4074
11.4724
-6.71239
-6.71643
-6.722
-6.72734
-6.73186
-6.73576
-6.73927
-6.74258
-6.74581
-6.74909
-6.75249
-6.7561
-6.75998
-6.76419
-6.76877
-6.77378
-6.77924
-6.78521
-6.79171
-6.79877
-6.80644
-6.81474
-6.82371
-6.83336
-6.84374
-6.85486
-6.86674
-6.87941
-6.89288
-6.90717
-6.9223
-6.93826
-6.95507
-6.97273
-6.99124
-7.01061
-7.03082
-7.05188
-7.07376
-7.09647
-7.11998
-7.14427
-7.16932
-7.19511
-7.2216
-7.24876
-7.27654
-7.30491
-7.33381
-7.36318
-7.39297
-7.4231
-7.45351
-7.48411
-7.51482
-7.54554
-7.57617
-7.60661
-7.63674
-7.66645
-7.6956
-7.72407
-7.75171
-7.77838
-7.80393
-7.8282
-7.85103
-7.87226
-7.89172
-7.90923
-7.92461
-7.93768
-7.94828
-7.9562
-7.96126
-7.96329
-7.96209
-7.95748
-7.94928
-7.93731
-7.92138
-7.90132
-7.87696
-7.84811
-7.81462
-7.77632
-7.73306
-7.68467
-7.63102
-7.57195
-7.50734
-7.43704
-7.3609
-7.27878
-7.19054
-7.09607
-6.99526
-6.88803
-6.7743
-6.65399
-6.52706
-6.39346
-6.25316
-6.10614
-5.9524
-5.79195
-5.6248
-5.45099
-5.27058
-5.08363
-4.89023
-4.69046
-4.48444
-4.2723
-4.05417
-3.83021
-3.60059
-3.36548
-3.12509
-2.87963
-2.6293
-2.37435
-2.11502
-1.85155
-1.58421
-1.31328
-1.03902
-0.76174
-0.48172
-0.199257
0.0853494
0.371794
0.659771
0.948972
1.23909
1.52981
1.82084
2.11187
2.4026
2.69274
2.98201
3.27011
3.55678
3.84176
4.12478
4.40559
4.68396
4.95967
5.23249
5.50222
5.76867
6.03166
6.29101
6.54656
6.79818
7.04571
7.28904
7.52804
7.76262
7.99267
8.2181
8.43882
8.65475
8.86582
9.07195
9.27309
9.46917
9.66015
9.84596
10.0265
10.2018
10.3717
10.5359
10.6945
10.8469
10.9927
11.1318
11.26
11.3905
11.4523
-6.72092
-6.72472
-6.72996
-6.73501
-6.73932
-6.74304
-6.7464
-6.74956
-6.75264
-6.75577
-6.75902
-6.76248
-6.76622
-6.77029
-6.77474
-6.77961
-6.78494
-6.79079
-6.79717
-6.80413
-6.81169
-6.8199
-6.82878
-6.83836
-6.84866
-6.85971
-6.87154
-6.88416
-6.89759
-6.91184
-6.92694
-6.94288
-6.95969
-6.97735
-6.99589
-7.01528
-7.03554
-7.05665
-7.0786
-7.10139
-7.125
-7.1494
-7.17457
-7.20048
-7.2271
-7.25439
-7.28231
-7.31082
-7.33985
-7.36934
-7.39925
-7.42949
-7.45999
-7.49067
-7.52144
-7.5522
-7.58285
-7.61329
-7.6434
-7.67305
-7.70213
-7.7305
-7.75801
-7.78453
-7.8099
-7.83398
-7.85659
-7.87757
-7.89676
-7.91399
-7.92907
-7.94183
-7.95208
-7.95966
-7.96437
-7.96604
-7.96447
-7.9595
-7.95093
-7.93859
-7.9223
-7.90189
-7.87718
-7.848
-7.81419
-7.77559
-7.73203
-7.68336
-7.62944
-7.57012
-7.50526
-7.43471
-7.35828
-7.27585
-7.18728
-7.0925
-6.99138
-6.88386
-6.76984
-6.64926
-6.52207
-6.38823
-6.2477
-6.10048
-5.94655
-5.78593
-5.61863
-5.4447
-5.26418
-5.07715
-4.88369
-4.68388
-4.47785
-4.26571
-4.04761
-3.82371
-3.59416
-3.35916
-3.11889
-2.87357
-2.62342
-2.36865
-2.10952
-1.84628
-1.57919
-1.30852
-1.03454
-0.757557
-0.477848
-0.19571
0.0885571
0.374651
0.662265
0.951094
1.24083
1.53116
1.8218
2.11243
2.40276
2.69249
2.98135
3.26905
3.55532
3.83989
4.12251
4.40294
4.68093
4.95626
5.22871
5.49809
5.7642
6.02685
6.28589
6.54114
6.79247
7.03974
7.28282
7.52159
7.75595
7.98581
8.21106
8.43163
8.64743
8.85838
9.06442
9.26547
9.46149
9.6524
9.83814
10.0186
10.1938
10.3634
10.5274
10.6855
10.8373
10.9822
11.12
11.2466
11.3754
11.4346
-6.73054
-6.73408
-6.73895
-6.74364
-6.74762
-6.75101
-6.75405
-6.75689
-6.75966
-6.76248
-6.76543
-6.76859
-6.77204
-6.77583
-6.78001
-6.78463
-6.78973
-6.79535
-6.80153
-6.80829
-6.81567
-6.82371
-6.83242
-6.84185
-6.85202
-6.86295
-6.87466
-6.88718
-6.90052
-6.9147
-6.92973
-6.94562
-6.96239
-6.98003
-6.99855
-7.01795
-7.03822
-7.05935
-7.08134
-7.10417
-7.12783
-7.15228
-7.17751
-7.20348
-7.23015
-7.25749
-7.28544
-7.31397
-7.34301
-7.3725
-7.40238
-7.43257
-7.463
-7.49358
-7.52423
-7.55485
-7.58533
-7.61558
-7.64546
-7.67488
-7.70369
-7.73177
-7.75897
-7.78516
-7.81018
-7.83389
-7.85612
-7.8767
-7.89548
-7.91228
-7.92693
-7.93925
-7.94907
-7.95621
-7.96048
-7.96171
-7.95971
-7.95432
-7.94534
-7.9326
-7.91593
-7.89515
-7.87009
-7.84058
-7.80646
-7.76756
-7.72374
-7.67483
-7.62068
-7.56114
-7.49604
-7.42519
-7.34844
-7.26569
-7.17683
-7.08176
-6.98037
-6.87258
-6.75832
-6.63752
-6.51013
-6.37611
-6.23542
-6.08806
-5.93402
-5.77331
-5.60595
-5.43197
-5.25144
-5.06442
-4.87099
-4.67124
-4.46529
-4.25327
-4.0353
-3.81156
-3.5822
-3.3474
-3.10737
-2.8623
-2.61242
-2.35796
-2.09915
-1.83625
-1.56951
-1.29922
-1.02564
-0.749063
-0.469777
-0.188077
0.0957391
0.38137
0.668513
0.95686
1.24611
1.53595
1.82608
2.11621
2.40604
2.69527
2.98363
3.27083
3.5566
3.84068
4.12282
4.40277
4.6803
4.95517
5.22719
5.49614
5.76184
6.0241
6.28276
6.53766
6.78865
7.0356
7.27838
7.51689
7.751
7.98063
8.20568
8.42607
8.64171
8.85253
9.05846
9.25942
9.45536
9.64619
9.83185
10.0122
10.1872
10.3567
10.5204
10.678
10.8291
10.9731
11.1098
11.2349
11.3619
11.4193
-6.74155
-6.74485
-6.74934
-6.75358
-6.75707
-6.75995
-6.76245
-6.76475
-6.76698
-6.76926
-6.7717
-6.77439
-6.77738
-6.78074
-6.78452
-6.78876
-6.79351
-6.79879
-6.80465
-6.81112
-6.81823
-6.826
-6.83448
-6.84368
-6.85363
-6.86435
-6.87588
-6.88821
-6.90139
-6.91541
-6.9303
-6.94606
-6.9627
-6.98023
-6.99864
-7.01794
-7.03811
-7.05915
-7.08105
-7.10378
-7.12734
-7.15169
-7.1768
-7.20264
-7.22916
-7.25634
-7.28412
-7.31244
-7.34126
-7.3705
-7.40011
-7.43
-7.46011
-7.49034
-7.52062
-7.55084
-7.58091
-7.61072
-7.64015
-7.6691
-7.69742
-7.72499
-7.75168
-7.77735
-7.80184
-7.825
-7.84669
-7.86673
-7.88496
-7.90122
-7.91534
-7.92713
-7.93643
-7.94306
-7.94684
-7.94759
-7.94514
-7.9393
-7.92991
-7.91678
-7.89975
-7.87864
-7.85327
-7.82349
-7.78913
-7.75002
-7.70602
-7.65695
-7.60264
-7.54289
-7.47752
-7.40638
-7.32937
-7.24637
-7.15728
-7.062
-6.96042
-6.85247
-6.73807
-6.61715
-6.48966
-6.35557
-6.21484
-6.06746
-5.91343
-5.75275
-5.58545
-5.41157
-5.23116
-5.04429
-4.85103
-4.65148
-4.44577
-4.234
-4.01632
-3.79288
-3.56385
-3.32942
-3.08977
-2.84511
-2.59566
-2.34165
-2.08331
-1.8209
-1.55468
-1.28492
-1.01189
-0.73587
-0.457159
-0.176045
0.107174
0.392198
0.678725