/*--------------------------------*- C++ -*----------------------------------*\
  =========                 |
  \\      /  F ield         | OpenFOAM: The Open Source CFD Toolbox
   \\    /   O peration     | Website:  https://openfoam.org
    \\  /    A nd           | Version:  12
     \\/     M anipulation  |
\*---------------------------------------------------------------------------*/
FoamFile
{
    format      ascii;
    class       surfaceScalarField;
    location    "0.25";
    object      phi;
}
// * * * * * * * * * * * * * * * * * * * * * * * * * * * * * * * * * * * * * //

dimensions      [0 3 -1 0 0 0 0];

internalField   nonuniform List<scalar> 
24170
(
3.1336e-06
5.48063e-08
3.04827e-06
8.53264e-08
2.97315e-06
7.51236e-08
2.90431e-06
6.8836e-08
2.83948e-06
6.48291e-08
2.78226e-06
5.72215e-08
2.73336e-06
4.88996e-08
2.69184e-06
4.15242e-08
2.6564e-06
3.54391e-08
2.62588e-06
3.05217e-08
2.59931e-06
2.65725e-08
2.57588e-06
2.34275e-08
2.55491e-06
2.09676e-08
2.53573e-06
1.91791e-08
2.5177e-06
1.80301e-08
2.49905e-06
1.86493e-08
2.47853e-06
2.05261e-08
3.76509e-08
2.44088e-06
3.45361e-06
1.84443e-08
3.45616e-06
8.27729e-08
3.44962e-06
8.1668e-08
3.438e-06
8.0457e-08
3.42351e-06
7.9317e-08
3.40597e-06
7.47618e-08
3.38634e-06
6.85284e-08
3.36544e-06
6.24272e-08
3.34403e-06
5.68452e-08
3.32273e-06
5.18249e-08
3.30193e-06
4.73739e-08
3.28185e-06
4.3502e-08
3.26262e-06
4.02018e-08
3.24422e-06
3.75829e-08
3.22669e-06
3.55582e-08
3.20988e-06
3.54597e-08
3.19468e-06
3.57212e-08
4.58619e-08
3.18647e-06
3.66535e-06
1.56075e-08
3.67825e-06
6.98735e-08
3.68531e-06
7.46065e-08
3.6896e-06
7.61745e-08
3.69127e-06
7.76428e-08
3.69014e-06
7.58931e-08
3.68669e-06
7.19794e-08
3.68149e-06
6.7622e-08
3.67498e-06
6.33575e-08
3.6675e-06
5.93048e-08
3.65934e-06
5.55404e-08
3.65069e-06
5.21424e-08
3.64173e-06
4.91658e-08
3.63255e-06
4.67592e-08
3.62317e-06
4.49469e-08
3.614e-06
4.46295e-08
3.60471e-06
4.50058e-08
4.95881e-08
3.60099e-06
3.92465e-06
1.63468e-08
3.9358e-06
5.87214e-08
3.94255e-06
6.78622e-08
3.94802e-06
7.06977e-08
3.95243e-06
7.32302e-08
3.95536e-06
7.2972e-08
3.95691e-06
7.04256e-08
3.95739e-06
6.71385e-08
3.957e-06
6.37558e-08
3.95586e-06
6.04368e-08
3.95413e-06
5.72752e-08
3.9519e-06
5.43716e-08
3.94926e-06
5.18087e-08
3.94629e-06
4.97293e-08
3.94302e-06
4.82106e-08
3.9399e-06
4.77531e-08
3.93692e-06
4.7985e-08
4.98527e-08
3.93666e-06
4.20777e-06
1.57063e-08
4.216e-06
5.0489e-08
4.22166e-06
6.21974e-08
4.2266e-06
6.57645e-08
4.2313e-06
6.853e-08
4.23526e-06
6.90138e-08
4.23835e-06
6.73285e-08
4.24072e-06
6.47669e-08
4.24248e-06
6.19996e-08
4.24371e-06
5.92106e-08
4.24448e-06
5.65008e-08
4.24487e-06
5.39793e-08
4.24494e-06
5.174e-08
4.24477e-06
4.99043e-08
4.24443e-06
4.85505e-08
4.24426e-06
4.79219e-08
4.24445e-06
4.77979e-08
4.82168e-08
4.24608e-06
4.51044e-06
1.43534e-08
4.51686e-06
4.40659e-08
4.52218e-06
5.68851e-08
4.52684e-06
6.11037e-08
4.53145e-06
6.39153e-08
4.53564e-06
6.4821e-08
4.53923e-06
6.37425e-08
4.54228e-06
6.17207e-08
4.54486e-06
5.94122e-08
4.54705e-06
5.70246e-08
4.54889e-06
5.46645e-08
4.55042e-06
5.24413e-08
4.55172e-06
5.04486e-08
4.55284e-06
4.87817e-08
4.55389e-06
4.74968e-08
4.55513e-06
4.66861e-08
4.55675e-06
4.61716e-08
4.57175e-08
4.55925e-06
4.83412e-06
1.29522e-08
4.83958e-06
3.8606e-08
4.84483e-06
5.16322e-08
4.84943e-06
5.6512e-08
4.85394e-06
5.94039e-08
4.85817e-06
6.05903e-08
4.86193e-06
5.99752e-08
4.86527e-06
5.83837e-08
4.86824e-06
5.64396e-08
4.8709e-06
5.43723e-08
4.87327e-06
5.22937e-08
4.8754e-06
5.03089e-08
4.87734e-06
4.85042e-08
4.87918e-06
4.69503e-08
4.881e-06
4.56767e-08
4.88299e-06
4.46922e-08
4.88532e-06
4.3837e-08
4.28472e-08
4.88819e-06
5.1809e-06
1.16321e-08
5.18571e-06
3.38005e-08
5.19084e-06
4.64968e-08
5.19542e-06
5.19316e-08
5.19989e-06
5.49385e-08
5.20415e-06
5.63283e-08
5.20804e-06
5.60895e-08
5.21155e-06
5.48664e-08
5.21476e-06
5.32332e-08
5.21769e-06
5.14368e-08
5.22039e-06
4.95948e-08
5.2229e-06
4.78057e-08
5.22525e-06
4.61463e-08
5.22754e-06
4.46668e-08
5.22984e-06
4.33757e-08
5.23229e-06
4.22411e-08
5.235e-06
4.11246e-08
3.98132e-08
5.23804e-06
5.5526e-06
1.03686e-08
5.55685e-06
2.95499e-08
5.56177e-06
4.15782e-08
5.56634e-06
4.7363e-08
5.5708e-06
5.04801e-08
5.57511e-06
5.20186e-08
5.57911e-06
5.20907e-08
5.58278e-06
5.11947e-08
5.58617e-06
4.98403e-08
5.58932e-06
4.82839e-08
5.59227e-06
4.66486e-08
5.59505e-06
4.50262e-08
5.59771e-06
4.34837e-08
5.60032e-06
4.20569e-08
5.60296e-06
4.07413e-08
5.60571e-06
3.94913e-08
5.60864e-06
3.81949e-08
3.67043e-08
5.61174e-06
5.95099e-06
9.15854e-09
5.95476e-06
2.57772e-08
5.95942e-06
3.69215e-08
5.96395e-06
4.28272e-08
5.96841e-06
4.60212e-08
5.97277e-06
4.76625e-08
5.97687e-06
4.79839e-08
5.98069e-06
4.73751e-08
5.98426e-06
4.62737e-08
5.98761e-06
4.49348e-08
5.99077e-06
4.34855e-08
5.99379e-06
4.20107e-08
5.9967e-06
4.05691e-08
5.99957e-06
3.91873e-08
6.00246e-06
3.78559e-08
6.00542e-06
3.65313e-08
6.00848e-06
3.51291e-08
3.35588e-08
6.01163e-06
6.37796e-06
8.01527e-09
6.38133e-06
2.24049e-08
6.38571e-06
3.25357e-08
6.39019e-06
3.83491e-08
6.39465e-06
4.15676e-08
6.39904e-06
4.32702e-08
6.40324e-06
4.37791e-08
6.4072e-06
4.34134e-08
6.41094e-06
4.25387e-08
6.41448e-06
4.13974e-08
6.41784e-06
4.01174e-08
6.42108e-06
3.87778e-08
6.42422e-06
3.74301e-08
6.42731e-06
3.60965e-08
6.4304e-06
3.47683e-08
6.43351e-06
3.34115e-08
6.43668e-06
3.19677e-08
3.03895e-08
6.43985e-06
5.74175e-06
7.10052e-09
5.74433e-06
1.98198e-08
5.74783e-06
2.90356e-08
5.75156e-06
3.46229e-08
5.75532e-06
3.78114e-08
5.75905e-06
3.95372e-08
5.76267e-06
4.01588e-08
5.76612e-06
3.99611e-08
5.7694e-06
3.92561e-08
5.77253e-06
3.82672e-08
5.77553e-06
3.71192e-08
5.77842e-06
3.58873e-08
5.78124e-06
3.46184e-08
5.784e-06
3.33331e-08
5.78674e-06
3.20263e-08
5.78948e-06
3.06739e-08
5.79221e-06
2.92359e-08
2.76932e-08
5.79491e-06
6.99913e-06
6.12297e-09
7.00187e-06
1.70858e-08
7.00565e-06
2.52482e-08
7.00982e-06
3.04566e-08
7.0141e-06
3.35321e-08
7.0184e-06
3.5239e-08
7.02261e-06
3.5943e-08
7.02668e-06
3.58971e-08
7.03058e-06
3.53589e-08
7.03432e-06
3.45266e-08
7.03792e-06
3.35184e-08
7.0414e-06
3.24048e-08
7.04479e-06
3.12286e-08
7.04811e-06
3.00104e-08
7.05139e-06
2.87506e-08
7.05462e-06
2.74364e-08
7.05782e-06
2.60451e-08
2.45789e-08
7.06093e-06
8.53188e-06
5.09182e-09
8.53473e-06
1.42292e-08
8.53878e-06
2.12006e-08
8.54338e-06
2.58564e-08
8.54821e-06
2.87068e-08
8.55312e-06
3.03319e-08
8.55799e-06
3.1071e-08
8.56274e-06
3.11453e-08
8.56734e-06
3.07604e-08
8.57178e-06
3.0083e-08
8.57608e-06
2.92204e-08
8.58025e-06
2.82371e-08
8.5843e-06
2.71726e-08
8.58826e-06
2.60483e-08
8.59214e-06
2.48706e-08
8.59594e-06
2.36375e-08
8.59965e-06
2.23403e-08
2.09955e-08
8.60323e-06
1.04003e-05
4.01763e-09
1.04033e-05
1.12675e-08
1.04075e-05
1.69113e-08
1.04126e-05
2.08284e-08
1.0418e-05
2.33138e-08
1.04235e-05
2.47702e-08
1.04291e-05
2.54792e-08
1.04346e-05
2.56262e-08
1.044e-05
2.53689e-08
1.04453e-05
2.48383e-08
1.04504e-05
2.41252e-08
1.04553e-05
2.32868e-08
1.04601e-05
2.23587e-08
1.04648e-05
2.13629e-08
1.04694e-05
2.03107e-08
1.04738e-05
1.92083e-08
1.04781e-05
1.80567e-08
1.68801e-08
1.04822e-05
1.26779e-05
2.90603e-09
1.2681e-05
8.19249e-09
1.26855e-05
1.23719e-08
1.2691e-05
1.53614e-08
1.2697e-05
1.73186e-08
1.27033e-05
1.84943e-08
1.27096e-05
1.90913e-08
1.2716e-05
1.92503e-08
1.27223e-05
1.90839e-08
1.27285e-05
1.8686e-08
1.27345e-05
1.8126e-08
1.27403e-05
1.74503e-08
1.2746e-05
1.66891e-08
1.27515e-05
1.58629e-08
1.27568e-05
1.49855e-08
1.27619e-05
1.40673e-08
1.27669e-05
1.31143e-08
1.21529e-08
1.27716e-05
1.54543e-05
1.74593e-09
1.54576e-05
4.95337e-09
1.54624e-05
7.51543e-09
1.54684e-05
9.38538e-09
1.54751e-05
1.06375e-08
1.54822e-05
1.14016e-08
1.54895e-05
1.1793e-08
1.54968e-05
1.18967e-08
1.55041e-05
1.17802e-08
1.55113e-05
1.14997e-08
1.55184e-05
1.10988e-08
1.55252e-05
1.06084e-08
1.55318e-05
1.00502e-08
1.55383e-05
9.44014e-09
1.55445e-05
8.79041e-09
1.55504e-05
8.11158e-09
1.55561e-05
7.41056e-09
6.71145e-09
1.55616e-05
1.88389e-05
4.95959e-10
1.88424e-05
1.41917e-09
1.88478e-05
2.1559e-09
1.88545e-05
2.69542e-09
1.8862e-05
3.05943e-09
1.88702e-05
3.27729e-09
1.88786e-05
3.37151e-09
1.88871e-05
3.36079e-09
1.88956e-05
3.26338e-09
1.89041e-05
3.09565e-09
1.89123e-05
2.87071e-09
1.89203e-05
2.59892e-09
1.89281e-05
2.28892e-09
1.89355e-05
1.94826e-09
1.89427e-05
1.58372e-09
1.89497e-05
1.20214e-09
1.89563e-05
8.08097e-10
4.20618e-10
1.89626e-05
2.29648e-05
-9.50775e-10
2.29689e-05
-2.71136e-09
2.29752e-05
-4.14339e-09
2.29831e-05
-5.20426e-09
2.29921e-05
-5.91077e-09
2.30017e-05
-6.34963e-09
2.30117e-05
-6.61418e-09
2.30218e-05
-6.76307e-09
2.30319e-05
-6.83305e-09
2.30419e-05
-6.85529e-09
2.30516e-05
-6.85493e-09
2.3061e-05
-6.84795e-09
2.30702e-05
-6.84305e-09
2.3079e-05
-6.8447e-09
2.30874e-05
-6.85483e-09
2.30955e-05
-6.87307e-09
2.31032e-05
-6.89922e-09
-6.92113e-09
2.31105e-05
1.68118e-05
-2.09549e-09
1.68151e-05
-5.94415e-09
1.682e-05
-9.06838e-09
1.68261e-05
-1.13241e-08
1.6833e-05
-1.27602e-08
1.68402e-05
-1.36108e-08
1.68477e-05
-1.40799e-08
1.68552e-05
-1.42757e-08
1.68627e-05
-1.4273e-08
1.68699e-05
-1.41424e-08
1.6877e-05
-1.39388e-08
1.68839e-05
-1.36963e-08
1.68905e-05
-1.34355e-08
1.68968e-05
-1.31694e-08
1.69028e-05
-1.29063e-08
1.69086e-05
-1.265e-08
1.69141e-05
-1.2403e-08
-1.21572e-08
1.69194e-05
1.46357e-05
-3.20365e-09
1.46388e-05
-9.10145e-09
1.46437e-05
-1.38892e-08
1.46495e-05
-1.72015e-08
1.4656e-05
-1.91847e-08
1.46627e-05
-2.03133e-08
1.46695e-05
-2.08898e-08
1.46762e-05
-2.10482e-08
1.46829e-05
-2.09084e-08
1.46893e-05
-2.05867e-08
1.46955e-05
-2.01622e-08
1.47015e-05
-1.96801e-08
1.47073e-05
-1.91693e-08
1.47127e-05
-1.86497e-08
1.4718e-05
-1.81343e-08
1.4723e-05
-1.76296e-08
1.47277e-05
-1.71396e-08
-1.66589e-08
1.47322e-05
1.27412e-05
-4.25122e-09
1.27444e-05
-1.23099e-08
1.27493e-05
-1.88435e-08
1.27551e-05
-2.2991e-08
1.27612e-05
-2.52924e-08
1.27675e-05
-2.65928e-08
1.27738e-05
-2.71961e-08
1.278e-05
-2.72294e-08
1.2786e-05
-2.68841e-08
1.27917e-05
-2.63316e-08
1.27972e-05
-2.56668e-08
1.28025e-05
-2.49393e-08
1.28075e-05
-2.41832e-08
1.28123e-05
-2.34233e-08
1.28168e-05
-2.26746e-08
1.28211e-05
-2.19444e-08
1.28252e-05
-2.12368e-08
-2.05479e-08
1.28291e-05
1.10918e-05
-5.12775e-09
1.10951e-05
-1.56298e-08
1.11004e-05
-2.41353e-08
1.11062e-05
-2.87675e-08
1.1112e-05
-3.1127e-08
1.11179e-05
-3.25036e-08
1.11238e-05
-3.30452e-08
1.11294e-05
-3.28711e-08
1.11348e-05
-3.22729e-08
1.114e-05
-3.14669e-08
1.11448e-05
-3.05503e-08
1.11495e-05
-2.95744e-08
1.11539e-05
-2.85787e-08
1.1158e-05
-2.75908e-08
1.1162e-05
-2.66256e-08
1.11657e-05
-2.56899e-08
1.11693e-05
-2.47869e-08
-2.39132e-08
1.11726e-05
9.65583e-06
-5.74108e-09
9.65935e-06
-1.91517e-08
9.66495e-06
-2.97327e-08
9.67063e-06
-3.44455e-08
9.67626e-06
-3.67592e-08
9.68188e-06
-3.81309e-08
9.68731e-06
-3.84696e-08
9.69243e-06
-3.79948e-08
9.69727e-06
-3.71138e-08
9.70186e-06
-3.60492e-08
9.70619e-06
-3.48807e-08
9.71027e-06
-3.36596e-08
9.71412e-06
-3.24309e-08
9.71776e-06
-3.12237e-08
9.72118e-06
-3.00524e-08
9.72442e-06
-2.89229e-08
9.72747e-06
-2.78363e-08
-2.67878e-08
9.73034e-06
8.40543e-06
-5.82036e-09
8.4098e-06
-2.3524e-08
8.4153e-06
-3.52319e-08
8.42049e-06
-3.96302e-08
8.42591e-06
-4.21822e-08
8.43137e-06
-4.35936e-08
8.43651e-06
-4.361e-08
8.44126e-06
-4.2743e-08
8.44568e-06
-4.15287e-08
8.4498e-06
-4.01671e-08
8.45363e-06
-3.87155e-08
8.4572e-06
-3.72258e-08
8.46051e-06
-3.5746e-08
8.46359e-06
-3.43049e-08
8.46646e-06
-3.29162e-08
8.46912e-06
-3.15859e-08
8.4716e-06
-3.03146e-08
-2.90985e-08
8.47391e-06
7.31506e-06
-3.59244e-09
7.32194e-06
-3.04066e-08
7.32739e-06
-4.06779e-08
7.33215e-06
-4.43925e-08
7.33745e-06
-4.7487e-08
7.34282e-06
-4.89592e-08
7.34777e-06
-4.85618e-08
7.35224e-06
-4.72129e-08
7.35627e-06
-4.55595e-08
7.35988e-06
-4.37802e-08
7.3631e-06
-4.19339e-08
7.36596e-06
-4.0084e-08
7.36849e-06
-3.82798e-08
7.37074e-06
-3.65476e-08
7.37272e-06
-3.48989e-08
7.37447e-06
-3.33383e-08
7.37602e-06
-3.18629e-08
-3.04665e-08
7.37739e-06
6.36222e-06
4.2538e-09
6.37294e-06
-4.11289e-08
6.38006e-06
-4.78005e-08
6.38624e-06
-5.0567e-08
6.3922e-06
-5.34487e-08
6.39748e-06
-5.42378e-08
6.40183e-06
-5.29101e-08
6.40539e-06
-5.07776e-08
6.40829e-06
-4.84544e-08
6.41056e-06
-4.60526e-08
6.41227e-06
-4.36398e-08
6.41348e-06
-4.12939e-08
6.41426e-06
-3.90632e-08
6.41468e-06
-3.69674e-08
6.41479e-06
-3.50132e-08
6.41466e-06
-3.32016e-08
6.41432e-06
-3.15243e-08
-2.9961e-08
6.41381e-06
5.53608e-06
1.36391e-08
5.54775e-06
-5.28006e-08
5.55743e-06
-5.74833e-08
5.566e-06
-5.9131e-08
5.57276e-06
-6.02091e-08
5.57717e-06
-5.86506e-08
5.57931e-06
-5.50471e-08
5.57973e-06
-5.12011e-08
5.57886e-06
-4.7587e-08
5.57699e-06
-4.41763e-08
5.57432e-06
-4.09765e-08
5.57106e-06
-3.80253e-08
5.56733e-06
-3.53363e-08
5.56326e-06
-3.2901e-08
5.55895e-06
-3.07052e-08
5.5545e-06
-2.87457e-08
5.54999e-06
-2.70135e-08
-2.54477e-08
5.54547e-06
4.85751e-06
-1.62613e-08
4.86091e-06
-5.62009e-08
4.8615e-06
-5.80737e-08
4.85883e-06
-5.64596e-08
4.85482e-06
-5.61976e-08
4.84811e-06
-5.19493e-08
4.83885e-06
-4.57867e-08
4.82759e-06
-3.99417e-08
4.81498e-06
-3.49682e-08
4.80159e-06
-3.0789e-08
4.78788e-06
-2.72681e-08
4.77416e-06
-2.43025e-08
4.76062e-06
-2.18013e-08
4.74741e-06
-1.96854e-08
4.73459e-06
-1.78918e-08
4.72226e-06
-1.64106e-08
4.71051e-06
-1.52684e-08
-1.4958e-08
4.70002e-06
4.18641e-06
4.13021e-06
4.07214e-06
4.01568e-06
3.95948e-06
3.90753e-06
3.86175e-06
3.82181e-06
3.78684e-06
3.75605e-06
3.72878e-06
3.70448e-06
3.68268e-06
3.66299e-06
3.6451e-06
3.62869e-06
3.61342e-06
3.59846e-06
9.49427e-09
-9.49427e-09
2.03696e-08
-1.08753e-08
2.8108e-08
-7.73849e-09
3.15512e-08
-3.44312e-09
3.05147e-08
1.03642e-09
2.55784e-08
4.93635e-09
1.74856e-08
8.09275e-09
6.98549e-09
1.05002e-08
-5.32568e-09
1.23112e-08
-1.9044e-08
1.37183e-08
-3.39199e-08
1.48759e-08
-4.98043e-08
1.58844e-08
-6.66117e-08
1.68074e-08
-8.42924e-08
1.76806e-08
-1.02815e-07
1.85224e-08
-1.22156e-07
1.93409e-08
-1.42295e-07
2.01391e-08
-1.63212e-07
2.09168e-08
-1.84884e-07
2.16727e-08
-2.07289e-07
2.24045e-08
-2.30399e-07
2.31105e-08
-2.54189e-07
2.37901e-08
-2.78634e-07
2.44446e-08
-3.03711e-07
2.50767e-08
-3.294e-07
2.56895e-08
-3.55684e-07
2.6284e-08
-3.82541e-07
2.68572e-08
-4.09939e-07
2.73974e-08
-4.37823e-07
2.78839e-08
-4.6613e-07
2.83077e-08
-4.94871e-07
2.87412e-08
-5.24324e-07
2.94529e-08
-5.55002e-07
3.06781e-08
-5.86471e-07
3.14685e-08
-6.17196e-07
3.07252e-08
-6.50563e-07
3.33668e-08
-6.83317e-07
3.2754e-08
-7.15373e-07
3.20561e-08
-7.52487e-07
3.71139e-08
-7.90578e-07
3.80911e-08
-8.3177e-07
4.11918e-08
-8.79112e-07
4.73416e-08
-9.25049e-07
4.59377e-08
-9.65359e-07
4.03098e-08
-1.00375e-06
3.83862e-08
-1.04443e-06
4.06823e-08
-1.08701e-06
4.25811e-08
-1.13061e-06
4.35967e-08
-1.17484e-06
4.42322e-08
-1.21943e-06
4.45888e-08
-1.26419e-06
4.47641e-08
-1.309e-06
4.48144e-08
-1.35378e-06
4.4776e-08
-1.39845e-06
4.46719e-08
-1.44297e-06
4.45165e-08
-1.48729e-06
4.43191e-08
-1.53137e-06
4.40852e-08
-1.57519e-06
4.3818e-08
-1.61871e-06
4.35194e-08
-1.6619e-06
4.31899e-08
-1.70473e-06
4.28295e-08
-1.74717e-06
4.24377e-08
-1.78918e-06
4.20137e-08
-1.83074e-06
4.15564e-08
-1.8718e-06
4.10648e-08
-1.91234e-06
4.05377e-08
-1.95231e-06
3.99743e-08
-1.99169e-06
3.93736e-08
-2.03042e-06
3.87347e-08
-2.06848e-06
3.8057e-08
-2.10582e-06
3.734e-08
-2.1424e-06
3.65832e-08
-2.17819e-06
3.57866e-08
-2.21314e-06
3.49499e-08
-2.24721e-06
3.40734e-08
-2.28037e-06
3.31572e-08
-2.31257e-06
3.22018e-08
-2.34378e-06
3.12077e-08
-2.37396e-06
3.01754e-08
-2.40306e-06
2.91056e-08
-2.43106e-06
2.79992e-08
-2.45792e-06
2.68567e-08
-2.4836e-06
2.56791e-08
-2.50806e-06
2.44671e-08
-2.53128e-06
2.32214e-08
-2.55323e-06
2.19423e-08
-2.57386e-06
2.06304e-08
-2.59314e-06
1.92855e-08
-2.61105e-06
1.79073e-08
-2.62754e-06
1.64948e-08
-2.64259e-06
1.50465e-08
-2.65615e-06
1.35596e-08
-2.66818e-06
1.20305e-08
-2.67863e-06
1.04527e-08
-2.68745e-06
8.81759e-09
-2.69456e-06
7.11332e-09
-2.69989e-06
5.32289e-09
-2.70332e-06
3.43527e-09
-2.70478e-06
1.45297e-09
-2.70423e-06
-5.46722e-10
-2.70202e-06
-2.20829e-09
-2.69822e-06
-3.79874e-09
-2.69286e-06
-5.35945e-09
-2.68595e-06
-6.91293e-09
-2.67748e-06
-8.4707e-09
-2.66744e-06
-1.00348e-08
-2.65584e-06
-1.16045e-08
-2.64266e-06
-1.31785e-08
-2.62791e-06
-1.47546e-08
-2.61158e-06
-1.63308e-08
-2.59367e-06
-1.7905e-08
-2.5742e-06
-1.94751e-08
-2.55316e-06
-2.1039e-08
-2.53056e-06
-2.25946e-08
-2.50642e-06
-2.41398e-08
-2.48075e-06
-2.56725e-08
-2.45356e-06
-2.71907e-08
-2.42487e-06
-2.86923e-08
-2.39469e-06
-3.01752e-08
-2.36305e-06
-3.16375e-08
-2.32998e-06
-3.3077e-08
-2.29549e-06
-3.4492e-08
-2.2596e-06
-3.58804e-08
-2.22236e-06
-3.72406e-08
-2.18379e-06
-3.85707e-08
-2.14392e-06
-3.9869e-08
-2.10279e-06
-4.1134e-08
-2.06043e-06
-4.23638e-08
-2.01687e-06
-4.3557e-08
-1.97216e-06
-4.4712e-08
-1.92633e-06
-4.58274e-08
-1.87943e-06
-4.69018e-08
-1.83149e-06
-4.7934e-08
-1.78257e-06
-4.89231e-08
-1.7327e-06
-4.9868e-08
-1.68194e-06
-5.07678e-08
-1.63031e-06
-5.16216e-08
-1.57789e-06
-5.24285e-08
-1.5247e-06
-5.31882e-08
-1.4708e-06
-5.39003e-08
-1.41623e-06
-5.45645e-08
-1.36105e-06
-5.51807e-08
-1.3053e-06
-5.57486e-08
-1.24903e-06
-5.62686e-08
-1.19229e-06
-5.67409e-08
-1.13513e-06
-5.71661e-08
-1.07758e-06
-5.75448e-08
-1.01971e-06
-5.78776e-08
-9.61539e-07
-5.81656e-08
-9.03129e-07
-5.841e-08
-8.44517e-07
-5.8612e-08
-7.85744e-07
-5.87731e-08
-7.26849e-07
-5.88948e-08
-6.6787e-07
-5.89791e-08
-6.08843e-07
-5.90276e-08
-5.49801e-07
-5.90422e-08
-4.90776e-07
-5.90251e-08
-4.31798e-07
-5.89779e-08
-3.72896e-07
-5.8902e-08
-3.14097e-07
-5.87982e-08
-2.5543e-07
-5.86672e-08
-1.96925e-07
-5.85052e-08
-1.38613e-07
-5.83124e-08
-8.05242e-08
-5.80884e-08
-2.27017e-08
-5.78224e-08
3.48191e-08
-5.75208e-08
9.19991e-08
-5.718e-08
1.48838e-07
-5.68394e-08
2.05359e-07
-5.65206e-08
2.61577e-07
-5.62179e-08
3.17488e-07
-5.59113e-08
3.73063e-07
-5.55748e-08
4.28232e-07
-5.51692e-08
4.8286e-07
-5.46274e-08
5.36679e-07
-5.38191e-08
5.89157e-07
-5.24784e-08
6.39083e-07
-4.99257e-08
6.83606e-07
-4.45234e-08
7.15179e-07
-3.15726e-08
8.38518e-09
7.06794e-07
6.89016e-09
-1.63844e-08
9.12384e-09
-1.3109e-08
7.47612e-09
-6.09076e-09
3.09189e-09
9.41106e-10
-3.40847e-09
7.53678e-09
-1.19142e-08
1.34421e-08
-2.23593e-08
1.85378e-08
-3.46689e-08
2.28097e-08
-4.87042e-08
2.63465e-08
-6.42824e-08
2.92964e-08
-8.12221e-08
3.18156e-08
-9.93725e-08
3.40348e-08
-1.18617e-07
3.60518e-08
-1.38871e-07
3.79347e-08
-1.60076e-07
3.97277e-08
-1.82193e-07
4.14582e-08
-2.05197e-07
4.31424e-08
-2.2907e-07
4.47901e-08
-2.53805e-07
4.64072e-08
-2.79398e-07
4.7998e-08
-3.05855e-07
4.95674e-08
-3.33187e-07
5.11221e-08
-3.61414e-07
5.26711e-08
-3.90562e-07
5.42252e-08
-4.20669e-07
5.57961e-08
-4.51778e-07
5.73934e-08
-4.83944e-07
5.90227e-08
-5.1723e-07
6.06836e-08
-5.51717e-07
6.23707e-08
-5.87495e-07
6.4086e-08
-6.24633e-07
6.58794e-08
-6.63072e-07
6.78914e-08
-7.02596e-07
7.02024e-08
-7.43564e-07
7.24369e-08
-7.87061e-07
7.42222e-08
-8.29978e-07
7.62834e-08
-8.75317e-07
7.80928e-08
-9.22759e-07
7.94983e-08
-9.67695e-07
8.20505e-08
-1.0137e-06
8.40956e-08
-1.05864e-06
8.61342e-08
-1.09957e-06
8.82727e-08
-1.1418e-06
8.81659e-08
-1.18788e-06
8.63914e-08
-1.23484e-06
8.5348e-08
-1.27963e-06
8.54675e-08
-1.32282e-06
8.5774e-08
-1.36513e-06
8.59075e-08
-1.40679e-06
8.58933e-08
-1.44795e-06
8.57442e-08
-1.48867e-06
8.54816e-08
-1.52898e-06
8.51251e-08
-1.56889e-06
8.46901e-08
-1.60841e-06
8.41884e-08
-1.64752e-06
8.3628e-08
-1.68622e-06
8.30143e-08
-1.72448e-06
8.23499e-08
-1.7623e-06
8.16361e-08
-1.79965e-06
8.08728e-08
-1.83652e-06
8.0059e-08
-1.87288e-06
7.91931e-08
-1.90872e-06
7.82731e-08
-1.944e-06
7.7297e-08
-1.97871e-06
7.62625e-08
-2.01281e-06
7.51676e-08
-2.04629e-06
7.40102e-08
-2.0791e-06
7.27885e-08
-2.11123e-06
7.15009e-08
-2.14264e-06
7.0146e-08
-2.1733e-06
6.87227e-08
-2.20319e-06
6.72302e-08
-2.23228e-06
6.56679e-08
-2.26053e-06
6.40356e-08
-2.28791e-06
6.23332e-08
-2.3144e-06
6.05611e-08
-2.33996e-06
5.87195e-08
-2.36457e-06
5.68093e-08
-2.38819e-06
5.48312e-08
-2.4108e-06
5.27864e-08
-2.43237e-06
5.0676e-08
-2.45288e-06
4.85012e-08
-2.47228e-06
4.62633e-08
-2.49057e-06
4.39638e-08
-2.5077e-06
4.16037e-08
-2.52367e-06
3.91844e-08
-2.53843e-06
3.67069e-08
-2.55197e-06
3.41721e-08
-2.56427e-06
3.15805e-08
-2.57529e-06
2.89325e-08
-2.58503e-06
2.62279e-08
-2.59345e-06
2.34664e-08
-2.60053e-06
2.06473e-08
-2.60627e-06
1.777e-08
-2.61065e-06
1.48338e-08
-2.61368e-06
1.18394e-08
-2.61535e-06
8.78977e-09
-2.61572e-06
5.69362e-09
-2.61486e-06
2.57302e-09
-2.6129e-06
-5.1213e-10
-2.60983e-06
-3.61063e-09
-2.60542e-06
-6.61797e-09
-2.59957e-06
-9.64746e-09
-2.59223e-06
-1.26985e-08
-2.58338e-06
-1.57682e-08
-2.57299e-06
-1.8856e-08
-2.56107e-06
-2.19594e-08
-2.5476e-06
-2.50751e-08
-2.53258e-06
-2.81994e-08
-2.516e-06
-3.13279e-08
-2.49788e-06
-3.44565e-08
-2.4782e-06
-3.75811e-08
-2.45698e-06
-4.06973e-08
-2.43422e-06
-4.3801e-08
-2.40992e-06
-4.6888e-08
-2.38411e-06
-4.99542e-08
-2.35679e-06
-5.29954e-08
-2.32797e-06
-5.60077e-08
-2.29768e-06
-5.89868e-08
-2.26592e-06
-6.19288e-08
-2.23273e-06
-6.48295e-08
-2.19812e-06
-6.7685e-08
-2.16212e-06
-7.04914e-08
-2.12476e-06
-7.32451e-08
-2.08606e-06
-7.59423e-08
-2.04605e-06
-7.85796e-08
-2.00476e-06
-8.11536e-08
-1.96224e-06
-8.3661e-08
-1.9185e-06
-8.60985e-08
-1.8736e-06
-8.8463e-08
-1.82756e-06
-9.07514e-08
-1.78042e-06
-9.29608e-08
-1.73224e-06
-9.50886e-08
-1.68304e-06
-9.71324e-08
-1.63287e-06
-9.90902e-08
-1.58178e-06
-1.0096e-07
-1.52981e-06
-1.0274e-07
-1.477e-06
-1.04428e-07
-1.42341e-06
-1.06023e-07
-1.36907e-06
-1.07523e-07
-1.31404e-06
-1.08929e-07
-1.25837e-06
-1.1024e-07
-1.20209e-06
-1.11454e-07
-1.14527e-06
-1.12573e-07
-1.08794e-06
-1.13596e-07
-1.03016e-06
-1.14524e-07
-9.71965e-07
-1.15359e-07
-9.1341e-07
-1.161e-07
-8.54536e-07
-1.16751e-07
-7.9539e-07
-1.17312e-07
-7.36014e-07
-1.17786e-07
-6.7645e-07
-1.18176e-07
-6.16739e-07
-1.18484e-07
-5.56919e-07
-1.18715e-07
-4.97028e-07
-1.1887e-07
-4.371e-07
-1.18955e-07
-3.7717e-07
-1.18973e-07
-3.17268e-07
-1.18927e-07
-2.57424e-07
-1.18822e-07
-1.97666e-07
-1.1866e-07
-1.38019e-07
-1.18444e-07
-7.85103e-08
-1.18176e-07
-1.91622e-08
-1.17853e-07
3.99984e-08
-1.17473e-07
9.89451e-08
-1.17035e-07
1.57661e-07
-1.16538e-07
2.16133e-07
-1.15993e-07
2.74365e-07
-1.15412e-07
3.32354e-07
-1.14829e-07
3.90094e-07
-1.1426e-07
4.47573e-07
-1.13697e-07
5.04772e-07
-1.13111e-07
5.61652e-07
-1.12454e-07
6.18133e-07
-1.1165e-07
6.74071e-07
-1.10566e-07
7.29199e-07
-1.08947e-07
7.83022e-07
-1.06302e-07
8.34574e-07
-1.01478e-07
8.82246e-07
-9.21956e-08
9.22743e-07
-7.20691e-08
-2.50558e-08
9.56184e-07
-1.75184e-10
-1.62092e-08
-5.21294e-09
-8.07121e-09
-1.26358e-08
1.33205e-09
-2.15476e-08
9.85299e-09
-3.1671e-08
1.76602e-08
-4.29612e-08
2.47323e-08
-5.5466e-08
3.10426e-08
-6.92498e-08
3.65935e-08
-8.43429e-08
4.14396e-08
-1.00726e-07
4.56792e-08
-1.18341e-07
4.94307e-08
-1.37116e-07
5.28101e-08
-1.56981e-07
5.59169e-08
-1.77876e-07
5.88296e-08
-1.99755e-07
6.16065e-08
-2.22585e-07
6.42886e-08
-2.46348e-07
6.69049e-08
-2.71033e-07
6.94753e-08
-2.96641e-07
7.20149e-08
-3.23179e-07
7.4536e-08
-3.50662e-07
7.70509e-08
-3.79112e-07
7.95722e-08
-4.08555e-07
8.21141e-08
-4.3902e-07
8.46904e-08
-4.70538e-07
8.73134e-08
-5.03135e-07
8.99909e-08
-5.36837e-07
9.2724e-08
-5.71659e-07
9.55057e-08
-6.07611e-07
9.83229e-08
-6.44687e-07
1.01162e-07
-6.82832e-07
1.04024e-07
-7.21867e-07
1.06927e-07
-7.61506e-07
1.09841e-07
-8.01688e-07
1.12619e-07
-8.42585e-07
1.15119e-07
-8.83637e-07
1.17336e-07
-9.24869e-07
1.19324e-07
-9.66438e-07
1.21067e-07
-1.00704e-06
1.22654e-07
-1.04694e-06
1.23998e-07
-1.08585e-06
1.25045e-07
-1.12322e-06
1.25642e-07
-1.16054e-06
1.2548e-07
-1.1989e-06
1.24753e-07
-1.23763e-06
1.24073e-07
-1.27575e-06
1.23595e-07
-1.31317e-06
1.23188e-07
-1.35002e-06
1.22763e-07
-1.38642e-06
1.22291e-07
-1.42243e-06
1.21757e-07
-1.45811e-06
1.21155e-07
-1.49347e-06
1.20487e-07
-1.52853e-06
1.19753e-07
-1.5633e-06
1.18956e-07
-1.59777e-06
1.18097e-07
-1.63193e-06
1.17176e-07
-1.66577e-06
1.16193e-07
-1.69928e-06
1.15144e-07
-1.73243e-06
1.14029e-07
-1.76522e-06
1.12843e-07
-1.79761e-06
1.11584e-07
-1.82958e-06
1.10248e-07
-1.86112e-06
1.08831e-07
-1.89219e-06
1.07331e-07
-1.92276e-06
1.05743e-07
-1.95282e-06
1.04065e-07
-1.98232e-06
1.02295e-07
-2.01125e-06
1.00429e-07
-2.03957e-06
9.84664e-08
-2.06725e-06
9.64049e-08
-2.09427e-06
9.42435e-08
-2.12058e-06
9.19813e-08
-2.14616e-06
8.96178e-08
-2.17098e-06
8.71531e-08
-2.19501e-06
8.45873e-08
-2.21821e-06
8.19211e-08
-2.24056e-06
7.91554e-08
-2.26202e-06
7.62913e-08
-2.28256e-06
7.33303e-08
-2.30216e-06
7.02741e-08
-2.32078e-06
6.71243e-08
-2.3384e-06
6.3883e-08
-2.35499e-06
6.0552e-08
-2.37052e-06
5.71336e-08
-2.38496e-06
5.36296e-08
-2.3983e-06
5.00419e-08
-2.4105e-06
4.63725e-08
-2.42154e-06
4.2623e-08
-2.43141e-06
3.8795e-08
-2.44007e-06
3.48901e-08
-2.44751e-06
3.09097e-08
-2.45372e-06
2.68557e-08
-2.45868e-06
2.27307e-08
-2.46238e-06
1.85381e-08
-2.46483e-06
1.42835e-08
-2.46601e-06
9.975e-09
-2.46594e-06
5.62505e-09
-2.46462e-06
1.25058e-09
-2.46201e-06
-3.12737e-09
-2.45809e-06
-7.52485e-09
-2.45277e-06
-1.19413e-08
-2.44602e-06
-1.64005e-08
-2.43781e-06
-2.09012e-08
-2.42814e-06
-2.54388e-08
-2.41699e-06
-3.00075e-08
-2.40435e-06
-3.46016e-08
-2.39021e-06
-3.9215e-08
-2.37457e-06
-4.38413e-08
-2.35742e-06
-4.84743e-08
-2.33877e-06
-5.31077e-08
-2.31862e-06
-5.77351e-08
-2.29696e-06
-6.23502e-08
-2.27382e-06
-6.69469e-08
-2.24919e-06
-7.15189e-08
-2.22308e-06
-7.60602e-08
-2.19551e-06
-8.05645e-08
-2.16649e-06
-8.5026e-08
-2.13604e-06
-8.94384e-08
-2.10417e-06
-9.37958e-08
-2.07091e-06
-9.80922e-08
-2.03627e-06
-1.02322e-07
-2.00029e-06
-1.06478e-07
-1.96298e-06
-1.10557e-07
-1.92437e-06
-1.14551e-07
-1.88449e-06
-1.18457e-07
-1.84337e-06
-1.22269e-07
-1.80105e-06
-1.25982e-07
-1.75756e-06
-1.29591e-07
-1.71293e-06
-1.33092e-07
-1.6672e-06
-1.3648e-07
-1.62041e-06
-1.39751e-07
-1.5726e-06
-1.42901e-07
-1.52381e-06
-1.45926e-07
-1.47407e-06
-1.48823e-07
-1.42345e-06
-1.51589e-07
-1.37196e-06
-1.54222e-07
-1.31967e-06
-1.56719e-07
-1.26662e-06
-1.59077e-07
-1.21285e-06
-1.61295e-07
-1.1584e-06
-1.63373e-07
-1.10333e-06
-1.65308e-07
-1.04769e-06
-1.67102e-07
-9.91506e-07
-1.68753e-07
-9.34841e-07
-1.70262e-07
-8.77736e-07
-1.71629e-07
-8.20236e-07
-1.72858e-07
-7.62388e-07
-1.73949e-07
-7.04234e-07
-1.74904e-07
-6.45819e-07
-1.75727e-07
-5.87184e-07
-1.76421e-07
-5.2837e-07
-1.7699e-07
-4.69417e-07
-1.77438e-07
-4.10362e-07
-1.77769e-07
-3.51242e-07
-1.77991e-07
-2.9209e-07
-1.78107e-07
-2.3294e-07
-1.78123e-07
-1.7382e-07
-1.78046e-07
-1.14761e-07
-1.77882e-07
-5.57865e-08
-1.77635e-07
3.07826e-09
-1.77309e-07
6.18093e-08
-1.76907e-07
1.20385e-07
-1.76429e-07
1.78787e-07
-1.75875e-07
2.36999e-07
-1.75247e-07
2.95018e-07
-1.74556e-07
3.52848e-07
-1.73824e-07
4.105e-07
-1.73064e-07
4.67961e-07
-1.72289e-07
5.25211e-07
-1.7151e-07
5.82229e-07
-1.70715e-07
6.38988e-07
-1.6987e-07
6.95443e-07
-1.68909e-07
7.51515e-07
-1.67723e-07
8.07067e-07
-1.66118e-07
8.61864e-07
-1.63743e-07
9.15502e-07
-1.5994e-07
9.67352e-07
-1.53328e-07
1.01651e-06
-1.41358e-07
1.06248e-06
-1.18035e-07
-7.19811e-08
1.1094e-06
-6.46301e-09
-9.74624e-09
-1.66762e-08
2.142e-09
-2.80591e-08
1.2715e-08
-4.02189e-08
2.20127e-08
-5.30428e-08
3.04841e-08
-6.65629e-08
3.82524e-08
-8.08656e-08
4.53454e-08
-9.60507e-08
5.17786e-08
-1.122e-07
5.7589e-08
-1.29362e-07
6.28414e-08
-1.47552e-07
6.76204e-08
-1.66759e-07
7.20172e-08
-1.8696e-07
7.61179e-08
-2.08128e-07
7.99974e-08
-2.30237e-07
8.3716e-08
-2.5327e-07
8.73207e-08
-2.77211e-07
9.08467e-08
-3.02057e-07
9.43206e-08
-3.27805e-07
9.7763e-08
-3.54459e-07
1.01191e-07
-3.82026e-07
1.04618e-07
-4.10513e-07
1.08058e-07
-4.39922e-07
1.11523e-07
-4.70251e-07
1.1502e-07
-5.01491e-07
1.18553e-07
-5.33617e-07
1.22117e-07
-5.6659e-07
1.25697e-07
-6.00356e-07
1.29271e-07
-6.3484e-07
1.32808e-07
-6.69949e-07
1.36271e-07
-7.05553e-07
1.39629e-07
-7.41476e-07
1.42849e-07
-7.77515e-07
1.45881e-07
-8.13539e-07
1.48643e-07
-8.49492e-07
1.51071e-07
-8.8531e-07
1.53154e-07
-9.20883e-07
1.54898e-07
-9.56136e-07
1.5632e-07
-9.90915e-07
1.57433e-07
-1.02515e-06
1.58237e-07
-1.05885e-06
1.58741e-07
-1.09209e-06
1.58886e-07
-1.12522e-06
1.58611e-07
-1.1585e-06
1.58032e-07
-1.1918e-06
1.57367e-07
-1.22491e-06
1.56709e-07
-1.25778e-06
1.56054e-07
-1.2904e-06
1.5538e-07
-1.32278e-06
1.54672e-07
-1.35494e-06
1.53918e-07
-1.38689e-06
1.53111e-07
-1.41865e-06
1.52244e-07
-1.45021e-06
1.51314e-07
-1.48157e-06
1.50317e-07
-1.51273e-06
1.4925e-07
-1.54366e-06
1.4811e-07
-1.57436e-06
1.46892e-07
-1.60481e-06
1.45592e-07
-1.63498e-06
1.44205e-07
-1.66487e-06
1.42727e-07
-1.69443e-06
1.41152e-07
-1.72366e-06
1.39475e-07
-1.75252e-06
1.37692e-07
-1.78099e-06
1.35798e-07
-1.80903e-06
1.33788e-07
-1.83663e-06
1.3166e-07
-1.86374e-06
1.29409e-07
-1.89035e-06
1.27032e-07
-1.91641e-06
1.24528e-07
-1.9419e-06
1.21893e-07
-1.96678e-06
1.19127e-07
-1.99103e-06
1.16228e-07
-2.0146e-06
1.13196e-07
-2.03748e-06
1.1003e-07
-2.05963e-06
1.06731e-07
-2.081e-06
1.033e-07
-2.10159e-06
9.97385e-08
-2.12134e-06
9.60472e-08
-2.14024e-06
9.22283e-08
-2.15825e-06
8.8284e-08
-2.17534e-06
8.42168e-08
-2.19149e-06
8.00292e-08
-2.20666e-06
7.5724e-08
-2.22083e-06
7.13041e-08
-2.23398e-06
6.67722e-08
-2.24606e-06
6.21316e-08
-2.25708e-06
5.73849e-08
-2.26699e-06
5.25352e-08
-2.27578e-06
4.75852e-08
-2.28343e-06
4.25379e-08
-2.28991e-06
3.73965e-08
-2.29522e-06
3.21644e-08
-2.29934e-06
2.68458e-08
-2.30225e-06
2.1446e-08
-2.30393e-06
1.59714e-08
-2.30439e-06
1.043e-08
-2.3036e-06
4.83127e-09
-2.30153e-06
-8.15037e-10
-2.29815e-06
-6.50234e-09
-2.29344e-06
-1.2236e-08
-2.28736e-06
-1.80239e-08
-2.27989e-06
-2.38729e-08
-2.27101e-06
-2.97787e-08
-2.26071e-06
-3.57349e-08
-2.24899e-06
-4.17336e-08
-2.23582e-06
-4.77665e-08
-2.22121e-06
-5.38253e-08
-2.20515e-06
-5.99015e-08
-2.18764e-06
-6.59867e-08
-2.16868e-06
-7.20726e-08
-2.14826e-06
-7.81507e-08
-2.1264e-06
-8.4213e-08
-2.10309e-06
-9.02511e-08
-2.07836e-06
-9.62568e-08
-2.05219e-06
-1.02222e-07
-2.02462e-06
-1.08139e-07
-1.99564e-06
-1.14e-07
-1.96529e-06
-1.19797e-07
-1.93356e-06
-1.25521e-07