/*--------------------------------*- C++ -*----------------------------------*\
  =========                 |
  \\      /  F ield         | OpenFOAM: The Open Source CFD Toolbox
   \\    /   O peration     | Website:  https://openfoam.org
    \\  /    A nd           | Version:  12
     \\/     M anipulation  |
\*---------------------------------------------------------------------------*/
FoamFile
{
    format      ascii;
    class       volVectorField;
    location    "0.25";
    object      U;
}
// * * * * * * * * * * * * * * * * * * * * * * * * * * * * * * * * * * * * * //

dimensions      [0 1 -1 0 0 0 0];

internalField   nonuniform List<vector> 
12225
(
(9.86107 -0.874318 0)
(9.67248 -0.700192 0)
(9.45897 -0.387592 0)
(9.22466 -0.188478 0)
(9.00349 -0.0843944 0)
(8.8104 -0.0328768 0)
(8.64512 -0.007552 0)
(8.50413 0.0050231 0)
(8.38395 0.0113345 0)
(8.28108 0.01447 0)
(8.19212 0.0159645 0)
(8.1142 0.0166331 0)
(8.04493 0.0169185 0)
(7.9825 0.0171119 0)
(7.924 0.0174055 0)
(7.87041 0.0185048 0)
(7.80116 0.021467 0)
(7.77487 0.0298527 0)
(10.0547 0.263069 0)
(10.1201 0.36074 0)
(10.118 0.27382 0)
(10.0826 0.187086 0)
(10.0405 0.13116 0)
(9.99392 0.0969244 0)
(9.94012 0.075554 0)
(9.8804 0.0617459 0)
(9.81784 0.0523392 0)
(9.75492 0.045521 0)
(9.69309 0.040348 0)
(9.63317 0.0363592 0)
(9.57553 0.0332984 0)
(9.52056 0.0311458 0)
(9.46748 0.0297349 0)
(9.41874 0.0308249 0)
(9.3674 0.0318923 0)
(9.34214 0.0521909 0)
(9.99919 0.0460865 0)
(10.0244 0.0342085 0)
(10.0538 0.014948 0)
(10.0708 0.0218078 0)
(10.0778 0.0366686 0)
(10.0783 0.0460038 0)
(10.0722 0.0499429 0)
(10.0603 0.0511323 0)
(10.0439 0.051037 0)
(10.0246 0.0503181 0)
(10.0031 0.0493468 0)
(9.98002 0.0483689 0)
(9.95589 0.0475341 0)
(9.93111 0.047075 0)
(9.90565 0.0470643 0)
(9.88054 0.0488299 0)
(9.85501 0.0515483 0)
(9.83511 0.062852 0)
(9.9968 0.00642742 0)
(10.0085 0.0250168 0)
(10.0342 0.0389351 0)
(10.0528 0.0502981 0)
(10.0644 0.0571015 0)
(10.0731 0.0591556 0)
(10.079 0.0588413 0)
(10.0816 0.0579185 0)
(10.0816 0.0569088 0)
(10.0795 0.0558875 0)
(10.0758 0.054907 0)
(10.0707 0.0540537 0)
(10.0645 0.0534174 0)
(10.0573 0.0531907 0)
(10.0493 0.0535061 0)
(10.0411 0.0552336 0)
(10.0332 0.0580386 0)
(10.0278 0.0644005 0)
(9.99922 0.00673672 0)
(10.0081 0.0335715 0)
(10.0271 0.0460391 0)
(10.0418 0.0508387 0)
(10.0524 0.0539049 0)
(10.0622 0.0554907 0)
(10.0708 0.0558343 0)
(10.0775 0.0556466 0)
(10.0823 0.0552737 0)
(10.0857 0.0548067 0)
(10.0881 0.0543195 0)
(10.0895 0.0539164 0)
(10.09 0.0537063 0)
(10.0898 0.053862 0)
(10.0892 0.0545328 0)
(10.0885 0.0562048 0)
(10.0883 0.0586901 0)
(10.0899 0.0624685 0)
(10.0002 0.00907308 0)
(10.0078 0.0321217 0)
(10.0225 0.0419059 0)
(10.035 0.0456574 0)
(10.0448 0.0491141 0)
(10.0542 0.0516473 0)
(10.063 0.0527826 0)
(10.0705 0.0531303 0)
(10.0767 0.0531657 0)
(10.0819 0.0530526 0)
(10.0864 0.0528823 0)
(10.0901 0.0527623 0)
(10.0932 0.0528025 0)
(10.0959 0.0531446 0)
(10.0982 0.0539106 0)
(10.1007 0.0553385 0)
(10.1037 0.0572694 0)
(10.108 0.0595493 0)
(10.0003 0.00879929 0)
(10.0068 0.0275143 0)
(10.019 0.0370763 0)
(10.0303 0.0417311 0)
(10.0395 0.0456482 0)
(10.0482 0.0484691 0)
(10.0566 0.049875 0)
(10.0641 0.0504636 0)
(10.0706 0.0507205 0)
(10.0764 0.0508177 0)
(10.0815 0.0508416 0)
(10.0862 0.0508915 0)
(10.0904 0.051068 0)
(10.0943 0.0514796 0)
(10.098 0.0522075 0)
(10.1019 0.0533421 0)
(10.1062 0.0547223 0)
(10.1115 0.0560295 0)
(10.0004 0.00783611 0)
(10.0057 0.0236908 0)
(10.016 0.0333616 0)
(10.0264 0.038576 0)
(10.0351 0.0424669 0)
(10.0433 0.0452561 0)
(10.0512 0.0468052 0)
(10.0584 0.0475794 0)
(10.0649 0.0480035 0)
(10.0708 0.0482506 0)
(10.0762 0.0484077 0)
(10.0813 0.0485658 0)
(10.0859 0.0488125 0)
(10.0904 0.0492259 0)
(10.0948 0.0498494 0)
(10.0993 0.05069 0)
(10.1042 0.0515877 0)
(10.1098 0.0522349 0)
(10.0004 0.00694995 0)
(10.0049 0.0207033 0)
(10.0136 0.0300268 0)
(10.023 0.0353884 0)
(10.0312 0.0391683 0)
(10.0389 0.0419234 0)
(10.0464 0.0436079 0)
(10.0534 0.0445469 0)
(10.0598 0.0451048 0)
(10.0656 0.0454626 0)
(10.0711 0.0457119 0)
(10.0763 0.0459349 0)
(10.0811 0.0462046 0)
(10.0859 0.0465743 0)
(10.0906 0.0470589 0)
(10.0954 0.0476243 0)
(10.1004 0.0481243 0)
(10.1059 0.0483204 0)
(10.0004 0.00616306 0)
(10.0042 0.0181174 0)
(10.0116 0.0267888 0)
(10.0199 0.0321247 0)
(10.0277 0.0358282 0)
(10.035 0.0385522 0)
(10.0421 0.0403293 0)
(10.0488 0.041393 0)
(10.055 0.0420528 0)
(10.0608 0.0424913 0)
(10.0663 0.0428023 0)
(10.0714 0.0430583 0)
(10.0764 0.0433185 0)
(10.0813 0.0436177 0)
(10.0861 0.0439531 0)
(10.091 0.0442756 0)
(10.096 0.0444635 0)
(10.1013 0.044352 0)
(10.0003 0.00542616 0)
(10.0036 0.0157945 0)
(10.0099 0.0237022 0)
(10.0173 0.0288946 0)
(10.0245 0.0325063 0)
(10.0314 0.0351633 0)
(10.0381 0.0369739 0)
(10.0446 0.0381183 0)
(10.0506 0.0388513 0)
(10.0563 0.0393457 0)
(10.0617 0.039694 0)
(10.0669 0.0399597 0)
(10.0719 0.0401899 0)
(10.0767 0.0404069 0)
(10.0816 0.0405995 0)
(10.0864 0.0407193 0)
(10.0913 0.0406722 0)
(10.0963 0.0403548 0)
(10.0003 0.00477363 0)
(10.0031 0.0138492 0)
(10.0086 0.0210276 0)
(10.0152 0.0259868 0)
(10.0219 0.0294709 0)
(10.0285 0.0320329 0)
(10.0349 0.0338293 0)
(10.041 0.0350103 0)
(10.0469 0.0357842 0)
(10.0525 0.0363081 0)
(10.0578 0.0366707 0)
(10.063 0.0369284 0)
(10.0679 0.0371191 0)
(10.0728 0.0372584 0)
(10.0775 0.0373331 0)
(10.0823 0.0373027 0)
(10.0871 0.0370972 0)
(10.0918 0.0366577 0)
(10.0003 0.0041671 0)
(10.0028 0.0120818 0)
(10.0075 0.018513 0)
(10.0134 0.0231486 0)
(10.0197 0.0264625 0)
(10.0258 0.0289057 0)
(10.0319 0.0306539 0)
(10.0378 0.0318396 0)
(10.0435 0.0326314 0)
(10.049 0.033167 0)
(10.0542 0.0335293 0)
(10.0593 0.0337685 0)
(10.0642 0.0339161 0)
(10.069 0.0339833 0)
(10.0737 0.0339589 0)
(10.0783 0.033812 0)
(10.0829 0.0334929 0)
(10.0875 0.0329752 0)
(10.0003 0.00353517 0)
(10.0024 0.0102434 0)
(10.0064 0.0158203 0)
(10.0117 0.0200011 0)
(10.0174 0.023057 0)
(10.0232 0.025323 0)
(10.0289 0.0269715 0)
(10.0346 0.0281199 0)
(10.0401 0.0288995 0)
(10.0454 0.0294242 0)
(10.0505 0.0297677 0)
(10.0555 0.0299742 0)
(10.0603 0.0300694 0)
(10.065 0.0300626 0)
(10.0696 0.0299467 0)
(10.0741 0.0297021 0)
(10.0785 0.0292978 0)
(10.0828 0.0287318 0)
(10.0002 0.00287626 0)
(10.002 0.00833285 0)
(10.0055 0.0129597 0)
(10.0101 0.016551 0)
(10.0153 0.0192396 0)
(10.0206 0.0212509 0)
(10.026 0.0227334 0)
(10.0314 0.0237875 0)
(10.0366 0.0245114 0)
(10.0418 0.0249929 0)
(10.0467 0.0252935 0)
(10.0516 0.0254506 0)
(10.0562 0.0254856 0)
(10.0608 0.0254073 0)
(10.0653 0.0252137 0)
(10.0696 0.024896 0)
(10.0738 0.0244386 0)
(10.0778 0.0238556 0)
(10.0002 0.00219066 0)
(10.0017 0.006351 0)
(10.0047 0.00993646 0)
(10.0088 0.0127996 0)
(10.0134 0.014993 0)
(10.0183 0.0166517 0)
(10.0233 0.0178859 0)
(10.0284 0.0187736 0)
(10.0334 0.0193843 0)
(10.0383 0.0197803 0)
(10.0431 0.0200081 0)
(10.0478 0.0200974 0)
(10.0523 0.0200658 0)
(10.0567 0.0199221 0)
(10.061 0.0196689 0)
(10.0651 0.0193056 0)
(10.0691 0.018827 0)
(10.0729 0.0182558 0)
(10.0002 0.0014753 0)
(10.0015 0.00428134 0)
(10.0041 0.00672831 0)
(10.0077 0.00872357 0)
(10.0119 0.0102815 0)
(10.0164 0.0114714 0)
(10.0211 0.0123599 0)
(10.0258 0.0129976 0)
(10.0306 0.0134278 0)
(10.0353 0.0136887 0)
(10.0399 0.0138104 0)
(10.0444 0.0138134 0)
(10.0487 0.0137106 0)
(10.053 0.0135099 0)
(10.0571 0.0132162 0)
(10.061 0.0128332 0)
(10.0648 0.0123614 0)
(10.0684 0.0118259 0)
(10.0001 0.000712582 0)
(10.0013 0.00206814 0)
(10.0037 0.00325617 0)
(10.0069 0.00423517 0)
(10.0108 0.00500735 0)
(10.015 0.00559723 0)
(10.0194 0.00602968 0)
(10.0239 0.00632471 0)
(10.0285 0.00650004 0)
(10.033 0.00657151 0)
(10.0374 0.00655168 0)
(10.0417 0.00644951 0)
(10.0459 0.00627122 0)
(10.05 0.00602146 0)
(10.0539 0.00570408 0)
(10.0576 0.00532338 0)
(10.0612 0.00488132 0)
(10.0647 0.00440066 0)
(10.0001 -0.000144079 0)
(10.0013 -0.000420358 0)
(10.0035 -0.000668505 0)
(10.0066 -0.00087608 0)
(10.0104 -0.00104061 0)
(10.0145 -0.00117596 0)
(10.0188 -0.00130138 0)
(10.0232 -0.00143075 0)
(10.0276 -0.00157276 0)
(10.032 -0.00173459 0)
(10.0363 -0.00192275 0)
(10.0405 -0.0021422 0)
(10.0445 -0.00239613 0)
(10.0484 -0.00268622 0)
(10.0522 -0.0030129 0)
(10.0558 -0.00337496 0)
(10.0592 -0.00377223 0)
(10.0625 -0.00418776 0)
(10.0001 -0.000967563 0)
(10.0014 -0.00281916 0)
(10.0037 -0.00445779 0)
(10.0071 -0.00580151 0)
(10.011 -0.00684408 0)
(10.0153 -0.00764705 0)
(10.0197 -0.00827737 0)
(10.0242 -0.00878032 0)
(10.0287 -0.00919042 0)
(10.033 -0.00953968 0)
(10.0373 -0.0098546 0)
(10.0415 -0.0101538 0)
(10.0455 -0.0104496 0)
(10.0493 -0.0107506 0)
(10.053 -0.0110627 0)
(10.0565 -0.0113888 0)
(10.0599 -0.0117314 0)
(10.0631 -0.0120796 0)
(10.0002 -0.00168094 0)
(10.0015 -0.00492085 0)
(10.0042 -0.00777791 0)
(10.0079 -0.0100489 0)
(10.0123 -0.0117493 0)
(10.0168 -0.0130358 0)
(10.0215 -0.0140261 0)
(10.0261 -0.0147797 0)
(10.0307 -0.0153507 0)
(10.0352 -0.0157981 0)
(10.0395 -0.0161689 0)
(10.0437 -0.0164932 0)
(10.0477 -0.0167906 0)
(10.0515 -0.0170749 0)
(10.0552 -0.0173559 0)
(10.0587 -0.0176393 0)
(10.062 -0.0179293 0)
(10.0652 -0.0182184 0)
(10.0002 -0.00236232 0)
(10.0017 -0.00700789 0)
(10.0048 -0.0111112 0)
(10.0092 -0.0142142 0)
(10.0141 -0.016411 0)
(10.019 -0.0180391 0)
(10.0239 -0.0192788 0)
(10.0288 -0.0201945 0)
(10.0336 -0.0208581 0)
(10.0382 -0.0213524 0)
(10.0427 -0.0217386 0)
(10.0469 -0.022055 0)
(10.0509 -0.0223276 0)
(10.0548 -0.0225757 0)
(10.0584 -0.0228123 0)
(10.0619 -0.0230453 0)
(10.0652 -0.0232797 0)
(10.0683 -0.0235106 0)
(10.0002 -0.00299739 0)
(10.0018 -0.00911523 0)
(10.0056 -0.0144903 0)
(10.0108 -0.0183374 0)
(10.0163 -0.0209594 0)
(10.0217 -0.0228563 0)
(10.027 -0.0242228 0)
(10.0321 -0.0251646 0)
(10.0371 -0.0258194 0)
(10.0419 -0.0262987 0)
(10.0464 -0.0266625 0)
(10.0507 -0.0269458 0)
(10.0548 -0.0271773 0)
(10.0586 -0.0273797 0)
(10.0623 -0.0275678 0)
(10.0658 -0.0277499 0)
(10.0691 -0.0279312 0)
(10.0722 -0.0281087 0)
(10.0001 -0.00357295 0)
(10.0019 -0.0115447 0)
(10.0064 -0.0179412 0)
(10.0127 -0.0220706 0)
(10.0189 -0.0250557 0)
(10.0247 -0.027358 0)
(10.0304 -0.0289019 0)
(10.0359 -0.0298168 0)
(10.0411 -0.0303795 0)
(10.046 -0.0307681 0)
(10.0506 -0.0310486 0)
(10.0549 -0.031253 0)
(10.059 -0.0314109 0)
(10.0629 -0.0315454 0)
(10.0666 -0.0316704 0)
(10.07 -0.0317927 0)
(10.0733 -0.0319159 0)
(10.0763 -0.0320358 0)
(9.99997 -0.0036923 0)
(10.0018 -0.0151871 0)
(10.0076 -0.0226618 0)
(10.0148 -0.0259946 0)
(10.0214 -0.0285597 0)
(10.0277 -0.0310239 0)
(10.034 -0.0328043 0)
(10.0399 -0.0338455 0)
(10.0454 -0.0344487 0)
(10.0505 -0.0348226 0)
(10.0552 -0.0350506 0)
(10.0596 -0.0351816 0)
(10.0637 -0.0352576 0)
(10.0675 -0.0353083 0)
(10.071 -0.0353501 0)
(10.0743 -0.0353913 0)
(10.0774 -0.0354353 0)
(10.0802 -0.0354798 0)
(9.99898 -0.00131102 0)
(9.99999 -0.0179795 0)
(10.0085 -0.0290783 0)
(10.0174 -0.0327053 0)
(10.0244 -0.0341307 0)
(10.0311 -0.0353582 0)
(10.0382 -0.0363064 0)
(10.0448 -0.0369501 0)
(10.0507 -0.037402 0)
(10.0559 -0.0377022 0)
(10.0605 -0.0378655 0)
(10.0646 -0.0379277 0)
(10.0683 -0.0379301 0)
(10.0716 -0.0379021 0)
(10.0745 -0.037862 0)
(10.077 -0.037821 0)
(10.0793 -0.0377826 0)
(10.0812 -0.037746 0)
(9.99528 0.00386765 0)
(9.99333 -0.0103152 0)
(10.007 -0.0271088 0)
(10.0212 -0.0389333 0)
(10.0311 -0.0448728 0)
(10.0391 -0.0464805 0)
(10.0465 -0.0459982 0)
(10.0529 -0.0450425 0)
(10.058 -0.0441684 0)
(10.062 -0.0433971 0)
(10.0651 -0.0426853 0)
(10.0674 -0.0420299 0)
(10.0689 -0.0414374 0)
(10.0698 -0.0409074 0)
(10.0702 -0.0404375 0)
(10.0702 -0.0400268 0)
(10.0698 -0.0396656 0)
(10.0691 -0.0393271 0)
(9.99144 -0.0172943 0)
(9.99188 0.000363161 0)
(10.01 0.0176616 0)
(10.0295 0.0115826 0)
(10.0441 -0.00511677 0)
(10.0541 -0.0188347 0)
(10.0599 -0.0271829 0)
(10.0622 -0.0320619 0)
(10.0616 -0.0349453 0)
(10.059 -0.0365528 0)
(10.0548 -0.0373318 0)
(10.0494 -0.0376074 0)
(10.043 -0.0375926 0)
(10.036 -0.0374168 0)
(10.0284 -0.0371638 0)
(10.0204 -0.0368947 0)
(10.0123 -0.036665 0)
(10.0041 -0.0364435 0)
(10.0236 -0.206008 0)
(10.0684 -0.312341 0)
(10.0788 -0.255595 0)
(10.0704 -0.18418 0)
(10.0605 -0.134906 0)
(10.0498 -0.102732 0)
(10.0342 -0.0811729 0)
(10.0129 -0.0666278 0)
(9.98773 -0.0566373 0)
(9.96048 -0.0494828 0)
(9.93225 -0.0441268 0)
(9.90373 -0.0399796 0)
(9.87541 -0.0366831 0)
(9.84765 -0.0340044 0)
(9.82064 -0.0317956 0)
(9.79455 -0.0299932 0)
(9.76959 -0.0285668 0)
(9.7458 -0.027833 0)
(9.94226 0.671595 0)
(9.87995 0.567454 0)
(9.77443 0.338465 0)
(9.63235 0.183317 0)
(9.4876 0.0949034 0)
(9.35646 0.0470801 0)
(9.24088 0.0212947 0)
(9.13935 0.00707255 0)
(9.05039 -0.000987469 0)
(8.97237 -0.00562928 0)
(8.90358 -0.008319 0)
(8.84247 -0.00988176 0)
(8.78781 -0.0107878 0)
(8.73859 -0.0113058 0)
(8.69401 -0.0115968 0)
(8.65335 -0.0117853 0)
(8.61577 -0.0119651 0)
(8.58088 -0.0124973 0)
(0.00397907 -0.00958752 -3.50235e-20)
(0.0137859 -0.014653 3.46173e-20)
(0.0221717 -0.0125397 0)
(0.0273316 -0.00735543 0)
(0.0285099 -0.00141192 0)
(0.0256895 0.00389895 -3.2528e-20)
(0.0197372 0.00793284 0)
(0.0113377 0.0106934 0)
(0.00108033 0.0124924 0)
(-0.0105688 0.0136998 0)
(-0.0233363 0.0145874 2.99748e-20)
(-0.0370695 0.0153146 0)
(-0.0516662 0.0159691 0)
(-0.0670711 0.0165937 0)
(-0.0832522 0.0172061 0)
(-0.100188 0.0178116 2.67651e-20)
(-0.117862 0.0184095 0)
(-0.136257 0.0189964 0)
(-0.155356 0.0195679 0)
(-0.17514 0.0201187 0)
(-0.195587 0.0206445 0)
(-0.216675 0.0211425 0)
(-0.238383 0.0216134 0)
(-0.260688 0.0220603 2.28086e-20)
(-0.283575 0.0224863 -2.24271e-20)
(-0.307028 0.0228904 2.20707e-20)
(-0.33103 0.0232648 2.17391e-20)
(-0.355562 0.0235925 0)
(-0.38059 0.0238472 0)
(-0.406031 0.024029 -2.08889e-20)
(-0.431852 0.0243449 -2.06536e-20)
(-0.458314 0.0255524 0)
(-0.485697 0.0281846 0)
(-0.513724 0.0294054 -2.00798e-20)
(-0.542372 0.0269332 0)
(-0.571147 0.0345634 0)
(-0.600767 0.0285035 2.09123e-20)
(-0.63207 0.025795 0)
(-0.662082 0.0432136 1.92658e-20)
(-0.696304 0.0465492 3.82428e-20)
(-0.733722 0.0562092 0)
(-0.773527 0.0726088 0)
(-0.816361 0.0626297 0)
(-0.856652 0.039568 0)
(-0.892612 0.0283922 0)
(-0.928418 0.0305818 4.00871e-20)
(-0.966911 0.0329186 3.96405e-20)
(-1.00677 0.0338131 3.91981e-20)
(-1.04736 0.0343326 0)
(-1.08846 0.0345441 -3.83398e-20)
(-1.12983 0.0345747 0)
(-1.17136 0.0344843 3.75259e-20)
(-1.21295 0.0343124 3.71359e-20)
(-1.25453 0.0340832 0)
(-1.29605 0.0338119 0)
(-1.33747 0.0335082 0)
(-1.37876 0.033178 3.56785e-20)
(-1.41988 0.0328252 0)
(-1.46081 0.0324518 0)
(-1.50151 0.032059 0)
(-1.54196 0.0316475 0)
(-1.58214 0.0312171 0)
(-1.622 0.0307678 0)
(-1.66153 0.0302991 0)
(-1.70069 0.0298108 0)
(-1.73944 0.0293023 -3.2819e-20)
(-1.77776 0.0287734 0)
(-1.81562 0.0282237 0)
(-1.85296 0.0276532 3.19323e-20)
(-1.88977 0.0270616 3.16387e-20)
(-1.92601 0.0264492 0)
(-1.96163 0.0258159 -3.1051e-20)
(-1.99659 0.0251622 3.07557e-20)
(-2.03087 0.0244884 0)
(-2.06443 0.0237949 -3.01596e-20)
(-2.09721 0.0230825 0)
(-2.1292 0.0223517 0)
(-2.16035 0.0216032 2.92429e-20)
(-2.19061 0.0208379 0)
(-2.21997 0.0200565 -2.86106e-20)
(-2.24838 0.0192599 0)
(-2.2758 0.0184487 2.79566e-20)
(-2.3022 0.0176236 2.76204e-20)
(-2.32755 0.0167854 2.72772e-20)
(-2.35181 0.0159343 5.38536e-20)
(-2.37494 0.0150706 -5.31374e-20)
(-2.39693 0.0141942 0)
(-2.41772 0.0133044 0)
(-2.43729 0.0124001 0)
(-2.45561 0.0114794 -5.01021e-20)
(-2.47264 0.0105396 -4.92971e-20)
(-2.48833 0.00957673 4.84722e-20)
(-2.50266 0.0085862 0)
(-2.51557 0.0075626 -4.67609e-20)
(-2.52701 0.00649928 -4.58736e-20)
(-2.53692 0.00538985 -4.49648e-20)
(-2.54522 0.00423393 0)
(-2.55184 0.003049 0)
(-2.55666 0.00187864 0)
(-2.55956 0.000778643 -4.11094e-20)
(-2.56066 -0.00019916 0)
(-2.56038 -0.00105033 0)
(-2.5586 -0.00187021 3.79457e-20)
(-2.55536 -0.00267571 0)
(-2.55066 -0.00347459 0)
(-2.54448 -0.00426818 3.45466e-20)
(-2.53682 -0.00505657 0)
(-2.52766 -0.00583916 0)
(-2.517 -0.00661517 -3.09083e-20)
(-2.50483 -0.00738376 -2.96426e-20)
(-2.49114 -0.00814406 0)
(-2.47594 -0.00889524 2.70325e-20)
(-2.45922 -0.00963645 0)
(-2.44099 -0.0103669 -2.43195e-20)
(-2.42125 -0.0110857 0)
(-2.40001 -0.0117922 -2.15066e-20)
(-2.37726 -0.0124855 -2.0064e-20)
(-2.35303 -0.013165 0)
(-2.32733 -0.0138299 0)
(-2.30016 -0.0144794 0)
(-2.27154 -0.015113 0)
(-2.24149 -0.01573 0)
(-2.21003 -0.0163297 0)
(-2.17718 -0.0169116 0)
(-2.14297 -0.0174753 -7.74051e-21)
(-2.1074 -0.0180201 6.11466e-21)
(-2.07053 -0.0185456 0)
(-2.03236 -0.0190514 0)
(-1.99293 -0.0195369 0)
(-1.95226 -0.0200019 0)
(-1.91041 -0.0204458 -4.45744e-21)
(-1.86738 -0.0208685 0)
(-1.82323 -0.0212698 1.1288e-20)
(-1.77799 -0.0216493 -1.47267e-20)
(-1.73169 -0.022007 0)
(-1.68438 -0.0223427 0)
(-1.63609 -0.0226563 0)
(-1.58686 -0.0229477 2.85746e-20)
(-1.53674 -0.023217 3.20461e-20)
(-1.48576 -0.0234643 0)
(-1.43398 -0.0236897 3.89813e-20)
(-1.38142 -0.0238935 4.24392e-20)
(-1.32814 -0.0240756 -4.5887e-20)
(-1.27418 -0.0242366 0)
(-1.21958 -0.0243768 0)
(-1.16439 -0.0244966 -5.61418e-20)
(-1.10864 -0.0245964 0)
(-1.05238 -0.0246768 0)
(-0.995651 -0.0247384 0)
(-0.938493 -0.0247818 0)
(-0.880946 -0.0248078 7.27767e-20)
(-0.823046 -0.024817 7.60121e-20)
(-0.764833 -0.0248105 0)
(-0.70634 -0.0247889 8.23727e-20)
(-0.647602 -0.0247532 0)
(-0.588651 -0.0247043 0)
(-0.529516 -0.0246432 9.16051e-20)
(-0.470227 -0.0245706 0)
(-0.410809 -0.0244871 9.75316e-20)
(-0.35129 -0.0243931 0)
(-0.291695 -0.0242885 0)
(-0.232049 -0.0241709 1.06044e-19)
(-0.172382 -0.0240336 0)
(-0.112724 -0.0238721 1.1145e-19)
(-0.0530971 -0.0236808 0)
(0.00646676 -0.0234122 0)
(0.0658259 -0.0230404 0)
(0.125077 -0.0226572 -1.18281e-19)
(0.18422 -0.0222978 0)
(0.243263 -0.0219566 1.19789e-19)
(0.302215 -0.0216233 0)
(0.361062 -0.0212871 0)
(0.419759 -0.0209333 0)
(0.4782 -0.0205385 0)
(0.536209 -0.020057 0)
(0.593283 -0.0193966 0)
(0.649003 -0.0183114 0)
(0.699295 -0.0161719 -2.46865e-19)
(0.748202 -0.0113648 0)
(0.750599 0.00625195 0)
(0.00381115 -0.0277469 1.04112e-19)
(0.00823161 -0.0271944 -1.00151e-19)
(0.00790598 -0.0166269 0)
(0.00513185 -0.00518331 6.07749e-20)
(0.000313428 0.00562742 0)
(-0.00632382 0.0150809 2.86411e-20)
(-0.014772 0.0228532 -5.58774e-20)
(-0.0249401 0.0289756 -5.45956e-20)
(-0.0367167 0.0337039 0)
(-0.049953 0.037388 -5.21264e-20)
(-0.0644869 0.0403579 -2.54699e-20)
(-0.0801708 0.0428601 0)
(-0.0968877 0.0450592 0)
(-0.114551 0.0470575 0)
(-0.133102 0.0489145 0)
(-0.152498 0.0506628 -2.26681e-20)
(-0.172713 0.0523187 0)
(-0.193731 0.0538899 4.33547e-20)
(-0.215543 0.0553796 0)
(-0.238144 0.056789 0)
(-0.261537 0.0581203 -4.07856e-20)
(-0.285732 0.0593778 0)
(-0.310742 0.0605696 3.93118e-20)
(-0.336591 0.0617067 -1.93459e-20)
(-0.363308 0.062801 1.90398e-20)
(-0.390931 0.0638623 -1.87591e-20)
(-0.419507 0.064894 -1.85039e-20)
(-0.44909 0.0658874 0)
(-0.479742 0.0668214 0)
(-0.511558 0.0676855 1.78937e-20)
(-0.544655 0.0685453 -1.7684e-20)
(-0.578961 0.0696189 0)
(-0.614189 0.0711122 0)
(-0.650743 0.0725248 1.75281e-20)
(-0.689342 0.0729492 0)
(-0.728583 0.0738338 0)
(-0.769555 0.0763155 -1.74041e-20)
(-0.811021 0.0765323 0)
(-0.853498 0.077117 1.69805e-20)
(-0.895829 0.0782921 -3.39414e-20)
(-0.936984 0.0795071 0)
(-0.975949 0.0821613 0)
(-1.01445 0.08433 -6.58652e-20)
(-1.05538 0.0850282 -6.51355e-20)
(-1.09817 0.0859066 -6.43473e-20)
(-1.14045 0.0873051 3.17e-20)
(-1.18109 0.0882718 -3.14858e-20)
(-1.2206 0.0885908 -9.32224e-20)
(-1.25948 0.0884852 6.14028e-20)
(-1.29792 0.0880812 3.04389e-20)
(-1.33599 0.0874675 0)
(-1.37373 0.0867053 -2.97949e-20)
(-1.41117 0.0858348 2.934e-20)
(-1.44831 0.0848835 0)
(-1.48514 0.0838692 0)
(-1.52165 0.0828037 0)
(-1.55783 0.0816942 -2.83361e-20)
(-1.59367 0.0805451 0)
(-1.62915 0.0793587 5.54519e-20)
(-1.66425 0.0781362 0)
(-1.69896 0.0768775 5.44209e-20)
(-1.73325 0.0755822 0)
(-1.76711 0.0742497 -5.34223e-20)
(-1.8005 0.072879 0)
(-1.83342 0.0714693 5.24479e-20)
(-1.86582 0.07002 -2.59124e-20)
(-1.89769 0.0685304 0)
(-1.929 0.067 -5.10141e-20)
(-1.95972 0.0654289 -2.53381e-20)
(-1.98982 0.063817 -2.50998e-20)
(-2.01928 0.0621647 0)
(-2.04807 0.0604725 -2.44928e-20)
(-2.07616 0.0587414 -2.43802e-20)
(-2.10351 0.0569723 0)
(-2.13011 0.0551664 2.38922e-20)
(-2.15591 0.0533252 -4.71744e-20)
(-2.1809 0.0514502 0)
(-2.20505 0.0495432 -2.31394e-20)
(-2.22832 0.0476059 0)
(-2.25069 0.0456402 6.77597e-20)
(-2.27213 0.043648 0)
(-2.29261 0.0416312 -6.61532e-20)
(-2.31211 0.0395916 -2.18029e-20)
(-2.3306 0.037531 2.14437e-20)
(-2.34805 0.0354511 4.23211e-20)
(-2.36444 0.0333532 -4.17426e-20)
(-2.37974 0.0312386 0)
(-2.39394 0.0291081 0)
(-2.40699 0.0269623 0)
(-2.41888 0.0248012 1.18044e-19)
(-2.42959 0.0226242 3.87128e-20)
(-2.43909 0.0204299 -3.80356e-20)
(-2.44737 0.0182166 0)
(-2.4544 0.0159819 -3.66106e-20)
(-2.46019 0.0137228 3.59061e-20)
(-2.46472 0.011435 3.51625e-20)
(-2.46802 0.00911504 0)
(-2.47014 0.00677229 0)
(-2.47117 0.00444773 0)
(-2.47121 0.00220525 3.20035e-20)
(-2.4702 6.62978e-05 0)
(-2.4678 -0.00197712 -6.06917e-20)
(-2.46403 -0.0039817 -8.8374e-20)
(-2.45884 -0.00596088 5.71738e-20)
(-2.4522 -0.00792152 0)
(-2.44411 -0.00986414 2.68312e-20)
(-2.43456 -0.0117875 0)
(-2.42352 -0.0136897 4.97006e-20)
(-2.411 -0.0155683 -2.39711e-20)
(-2.39699 -0.0174211 -2.29818e-20)
(-2.38148 -0.0192459 0)
(-2.36448 -0.0210403 -6.23575e-20)
(-2.34597 -0.0228024 3.95562e-20)
(-2.32598 -0.02453 1.85736e-20)
(-2.30449 -0.0262212 0)
(-2.28151 -0.027874 1.63794e-20)
(-2.25705 -0.0294868 4.60998e-20)
(-2.23113 -0.0310577 0)
(-2.20375 -0.032585 2.63012e-20)
(-2.17492 -0.0340671 2.399e-20)
(-2.14466 -0.0355026 2.16526e-20)
(-2.11299 -0.0368899 0)
(-2.07993 -0.0382279 0)
(-2.04549 -0.0395154 0)
(-2.0097 -0.0407514 -6.24705e-21)
(-1.97259 -0.0419348 -4.59273e-21)
(-1.93417 -0.0430649 0)
(-1.89448 -0.0441408 -4.67691e-21)
(-1.85355 -0.0451617 -2.18257e-21)
(-1.8114 -0.0461271 0)
(-1.76807 -0.0470364 3.32571e-21)
(-1.72359 -0.0478893 1.07347e-20)
(-1.678 -0.0486857 -8.40026e-21)
(-1.63133 -0.0494254 -9.93133e-21)
(-1.58362 -0.0501086 0)
(-1.53491 -0.0507353 0)
(-1.48524 -0.0513057 0)
(-1.43464 -0.0518201 -2.11334e-20)
(-1.38316 -0.0522792 2.26057e-20)
(-1.33084 -0.0526835 5.13371e-20)
(-1.27772 -0.053034 -2.873e-20)
(-1.22385 -0.0533315 3.01579e-20)
(-1.16927 -0.0535768 3.37452e-20)
(-1.11401 -0.0537713 0)
(-1.05813 -0.0539163 0)
(-1.00166 -0.0540132 -4.00623e-20)
(-0.944644 -0.0540635 0)
(-0.887131 -0.0540688 0)
(-0.829158 -0.0540311 9.57015e-20)
(-0.770764 -0.0539522 0)
(-0.711989 -0.0538341 5.2019e-20)
(-0.652871 -0.053679 -5.54189e-20)
(-0.593446 -0.0534891 0)
(-0.533749 -0.0532667 5.88899e-20)
(-0.473814 -0.0530142 0)
(-0.413671 -0.0527339 0)
(-0.353351 -0.0524281 -6.65341e-20)
(-0.292881 -0.0520989 1.36275e-19)
(-0.232288 -0.051748 -7.07449e-20)
(-0.171595 -0.0513762 0)
(-0.110828 -0.0509828 0)
(-0.0500075 -0.0505659 7.578e-20)
(0.0108428 -0.0501219 0)
(0.0716986 -0.0496483 7.87025e-20)
(0.132542 -0.0491514 0)
(0.193358 -0.0486319 0)
(0.254128 -0.048077 0)
(0.314881 -0.0475112 8.36569e-20)
(0.375607 -0.0469599 0)
(0.436297 -0.0464223 -8.54073e-20)
(0.496942 -0.0458858 0)
(0.557516 -0.0453307 0)
(0.617962 -0.0447266 1.74497e-19)
(0.678173 -0.0440215 -1.7582e-19)
(0.73796 -0.0431153 0)
(0.79689 -0.0418137 0)
(0.854514 -0.0396174 0)
(0.908297 -0.0355742 5.42702e-19)
(0.960806 -0.026452 0)
(0.991423 -0.00432888 -3.69211e-19)
(0.00113314 -0.0336042 -4.13274e-23)
(-0.00170519 -0.0221674 1.29889e-19)
(-0.00770277 -0.0062405 0)
(-0.0148873 0.00854272 -1.12189e-19)
(-0.0233215 0.0219193 0)
(-0.0328436 0.0337702 0)
(-0.0434309 0.0440178 1.14951e-23)
(-0.0551358 0.0526833 4.85354e-20)
(-0.0680079 0.0599142 4.73372e-20)
(-0.0820545 0.0659468 4.62344e-20)
(-0.0972401 0.0710446 0)
(-0.113505 0.0754482 0)
(-0.130786 0.0793515 -4.31263e-20)
(-0.149024 0.0828981 -8.43313e-20)
(-0.168175 0.0861879 8.24857e-20)
(-0.188205 0.0892874 0)
(-0.209094 0.0922402 7.90316e-20)
(-0.23083 0.0950747 -3.87275e-20)
(-0.25341 0.0978113 0)
(-0.27684 0.100466 7.44586e-20)
(-0.301132 0.103057 3.65635e-20)
(-0.326304 0.105601 -7.18152e-20)
(-0.352379 0.108122 -3.5323e-20)
(-0.379384 0.110643 0)
(-0.407347 0.113188 6.84535e-20)
(-0.436298 0.115776 6.74903e-20)
(-0.466263 0.118417 0)
(-0.497261 0.121114 6.57815e-20)
(-0.529304 0.123861 0)
(-0.562406 0.126662 6.4322e-20)
(-0.596568 0.129562 3.18533e-20)
(-0.631669 0.132647 0)
(-0.667411 0.135888 0)
(-0.703699 0.138995 0)
(-0.740735 0.141775 0)
(-0.778135 0.144268 0)
(-0.815759 0.146214 0)
(-0.853634 0.148077 5.94578e-20)
(-0.891306 0.150092 -8.81787e-20)
(-0.928333 0.151563 0)
(-0.964523 0.152566 0)
(-0.999382 0.152624 0)
(-1.0336 0.150847 -2.86997e-24)
(-1.06854 0.147977 5.51365e-20)
(-1.10429 0.145664 1.08833e-19)
(-1.1399 0.144111 -1.07433e-19)
(-1.17488 0.142802 -5.29984e-20)
(-1.2093 0.141487 5.24083e-20)
(-1.24332 0.140105 -7.6103e-23)
(-1.27702 0.138632 5.10642e-20)
(-1.31045 0.137067 0)
(-1.34363 0.13542 4.98647e-20)
(-1.37658 0.133703 -8.43569e-23)
(-1.40932 0.131924 0)
(-1.44184 0.13009 0)
(-1.47413 0.128206 -4.76513e-20)
(-1.50619 0.126275 0)
(-1.538 0.124297 0)
(-1.56955 0.122273 4.60308e-20)
(-1.60082 0.120201 9.12707e-20)
(-1.6318 0.11808 -4.525e-20)
(-1.66245 0.115909 0)
(-1.69277 0.113684 4.43128e-20)
(-1.72272 0.111405 0)
(-1.75229 0.109069 4.32093e-20)
(-1.78144 0.106677 4.29488e-20)
(-1.81015 0.104226 -8.4817e-20)
(-1.8384 0.101716 -4.18727e-20)
(-1.86616 0.0991477 0)
(-1.89339 0.0965202 8.21689e-20)
(-1.92007 0.0938345 0)
(-1.94618 0.0910916 1.20705e-19)
(-1.97167 0.0882926 7.95319e-20)
(-1.99653 0.0854393 7.86487e-20)
(-2.02071 0.0825335 -7.77611e-20)
(-2.0442 0.0795773 1.15379e-19)
(-2.06696 0.0765733 0)
(-2.08896 0.0735239 0)
(-2.11017 0.0704318 -7.41412e-20)
(-2.13057 0.0673 -1.09884e-19)
(-2.15012 0.0641312 0)
(-2.16879 0.0609283 3.57175e-20)
(-2.18657 0.0576943 0)
(-2.20341 0.0544318 -1.04104e-19)
(-2.21929 0.0511436 -9.23328e-23)
(-2.2342 0.047832 8.3799e-23)
(-2.24809 0.0444994 6.63216e-20)
(-2.26095 0.0411478 0)
(-2.27276 0.037779 -6.41975e-20)
(-2.28348 0.0343946 -4.69927e-23)
(-2.29311 0.0309962 0)
(-2.30161 0.0275854 0)
(-2.30898 0.0241644 0)
(-2.3152 0.0207362 5.85251e-20)
(-2.32027 0.0173062 0)
(-2.32417 0.0138827 0)
(-2.32691 0.0104782 0)
(-2.32849 0.0071101 0)
(-2.32889 0.00379754 0)
(-2.3281 0.000551415 5.08937e-20)
(-2.32604 -0.00265667 0)
(-2.32263 -0.00585492 4.80434e-20)
(-2.31787 -0.00903534 4.66107e-20)
(-2.31173 -0.0121943 -4.51525e-20)
(-2.3042 -0.0153284 0)
(-2.29525 -0.0184341 -4.21598e-20)
(-2.28488 -0.0215075 0)
(-2.27307 -0.0245447 -3.90664e-20)
(-2.25982 -0.0275419 3.74827e-20)
(-2.24512 -0.0304951 1.07977e-19)
(-2.22897 -0.0334007 0)
(-2.21137 -0.036255 9.81636e-20)
(-2.1923 -0.0390548 3.13319e-20)
(-2.17179 -0.0417967 0)
(-2.14983 -0.0444775 5.54463e-20)
(-2.12642 -0.0470943 5.19851e-20)
(-2.10157 -0.0496442 -7.24723e-20)
(-2.07529 -0.0521245 0)
(-2.0476 -0.0545324 -2.04104e-20)
(-2.0185 -0.0568654 -1.85955e-20)
(-1.98801 -0.0591212 -5.0881e-20)
(-1.95615 -0.0612975 0)
(-1.92293 -0.0633925 0)
(-1.88837 -0.0654042 0)
(-1.8525 -0.0673311 -9.96029e-21)
(-1.81534 -0.0691717 0)
(-1.77691 -0.0709248 0)
(-1.73725 -0.0725893 3.59304e-21)
(-1.69637 -0.0741639 1.67495e-21)
(-1.6543 -0.0756478 0)
(-1.61109 -0.0770403 0)
(-1.56676 -0.0783409 -8.21192e-21)
(-1.52135 -0.0795496 0)
(-1.47489 -0.0806663 1.59376e-20)
(-1.42741 -0.0816913 1.9012e-20)
(-1.37896 -0.0826249 0)
(-1.32957 -0.0834675 0)
(-1.27928 -0.0842198 -3.05261e-20)
(-1.22813 -0.0848828 -8.1489e-22)
(-1.17616 -0.0854577 -8.2016e-22)
(-1.12342 -0.0859461 0)
(-1.06994 -0.0863495 -9.22076e-20)
(-1.01577 -0.0866695 0)
(-0.96094 -0.0869082 0)
(-0.905502 -0.0870677 0)
(-0.849493 -0.0871509 6.13227e-20)
(-0.792956 -0.08716 0)
(-0.73593 -0.0870978 -1.35402e-19)
(-0.678455 -0.0869673 -7.20864e-20)
(-0.620571 -0.086772 0)
(-0.562316 -0.086515 -7.90679e-20)
(-0.503725 -0.0861998 0)
(-0.444835 -0.0858302 0)
(-0.38568 -0.0854099 -2.65997e-19)
(-0.326291 -0.0849427 1.83368e-19)
(-0.266699 -0.0844325 0)
(-0.206934 -0.083883 1.96226e-19)
(-0.147021 -0.0832974 -1.02042e-19)
(-0.0869847 -0.0826786 0)
(-0.0268492 -0.0820292 0)
(0.0333647 -0.0813509 0)
(0.0936364 -0.0806434 -3.36582e-19)
(0.153948 -0.0799053 0)
(0.214284 -0.0791369 -1.16557e-19)
(0.274634 -0.0783443 0)
(0.335 -0.0775403 0)
(0.395404 -0.0767355 0)
(0.455843 -0.0759361 0)
(0.5163 -0.0751487 0)
(0.576759 -0.0743685 0)
(0.637198 -0.0735792 -2.55003e-19)
(0.697585 -0.0727526 0)
(0.757863 -0.0718421 -1.30862e-19)
(0.817925 -0.0707673 3.95135e-19)
(0.877597 -0.0693801 0)
(0.936516 -0.067398 0)
(0.994344 -0.064207 -2.70139e-19)
(1.04938 -0.0586365 -2.7367e-19)
(1.10429 -0.047759 2.75666e-19)
(1.14703 -0.0253104 2.80465e-19)
(-0.00256614 -0.0262837 -2.05446e-19)
(-0.0103701 -0.00722407 -1.90259e-19)
(-0.0198474 0.0116672 -1.14513e-19)
(-0.0301085 0.0283047 -5.27294e-20)
(-0.0411945 0.0432391 0)
(-0.0529181 0.0566173 9.50676e-20)
(-0.0652949 0.0684811 -4.58681e-20)
(-0.0784174 0.0788815 0)
(-0.0923766 0.087928 -4.33671e-20)
(-0.107234 0.0957888 0)
(-0.123019 0.102664 8.26356e-20)
(-0.139733 0.108757 0)
(-0.157359 0.114246 3.9495e-20)
(-0.175876 0.11928 7.72804e-20)
(-0.195261 0.123973 -7.56444e-20)
(-0.215495 0.12841 0)
(-0.236565 0.132653 -7.25901e-20)
(-0.258466 0.136745 0)
(-0.281194 0.140721 0)
(-0.304755 0.144609 -6.85406e-20)
(-0.329152 0.148435 0)
(-0.354396 0.152222 5.04681e-24)
(-0.380492 0.155995 0)
(-0.407443 0.159773 0)
(-0.435246 0.16357 -4.78308e-24)
(-0.463888 0.167391 -6.22035e-20)
(-0.493344 0.171224 -6.13382e-20)
(-0.523573 0.175045 -6.05242e-20)
(-0.554518 0.178817 0)
(-0.586109 0.182499 -1.17959e-19)
(-0.618252 0.186058 0)
(-0.650808 0.189466 -5.75116e-20)
(-0.683582 0.192651 0)
(-0.716422 0.195444 0)
(-0.749277 0.197719 5.53533e-20)
(-0.782087 0.199515 0)
(-0.814752 0.200779 -5.38859e-20)
(-0.847203 0.201582 -1.5669e-23)
(-0.879337 0.202044 1.0483e-19)
(-0.911049 0.202034 -1.03335e-19)
(-0.942293 0.201631 0)
(-0.973077 0.200705 0)
(-1.00364 0.198964 -4.94951e-20)
(-1.03432 0.196637 0)
(-1.06516 0.19425 -4.81351e-20)
(-1.09596 0.192012 4.74743e-20)
(-1.12658 0.18986 4.68316e-20)
(-1.15702 0.187727 0)
(-1.18727 0.18558 -4.56027e-20)
(-1.21737 0.183396 -4.50151e-20)
(-1.24732 0.181166 8.88279e-20)
(-1.27713 0.178885 -4.38894e-20)
(-1.3068 0.176551 -4.33496e-20)
(-1.33635 0.174165 0)
(-1.36575 0.171725 0)