/*--------------------------------*- C++ -*----------------------------------*\
  =========                 |
  \\      /  F ield         | OpenFOAM: The Open Source CFD Toolbox
   \\    /   O peration     | Website:  https://openfoam.org
    \\  /    A nd           | Version:  12
     \\/     M anipulation  |
\*---------------------------------------------------------------------------*/
FoamFile
{
    format      ascii;
    class       volScalarField;
    location    "10";
    object      p;
}
// * * * * * * * * * * * * * * * * * * * * * * * * * * * * * * * * * * * * * //

dimensions      [1 -1 -2 0 0 0 0];

internalField   nonuniform List<scalar> 
3829
(
-618.345
-618.343
-618.34
-618.336
-618.33
-618.323
-618.314
-618.303
-618.29
-618.275
-618.258
-618.238
-618.217
-618.193
-618.166
-618.136
-618.104
-618.068
-618.029
-617.987
-617.942
-617.893
-617.841
-617.786
-617.727
-617.664
-617.599
-617.53
-617.458
-617.383
-617.305
-617.224
-617.142
-617.057
-616.971
-616.883
-616.794
-616.705
-616.615
-616.525
-616.436
-616.347
-616.26
-616.174
-616.091
-616.01
-615.933
-615.858
-615.787
-615.72
-615.657
-615.598
-615.543
-615.493
-615.447
-615.405
-615.368
-615.336
-615.308
-615.283
-615.263
-615.247
-615.234
-615.224
-615.217
-615.212
-615.209
-615.207
-615.206
-615.204
-615.203
-615.2
-615.196
-615.19
-615.181
-615.17
-615.155
-615.136
-615.113
-615.086
-615.055
-615.018
-614.978
-614.933
-614.885
-614.833
-614.778
-614.722
-614.663
-614.604
-614.546
-614.488
-614.432
-614.38
-614.331
-614.287
-614.249
-614.218
-614.193
-614.177
-614.168
-614.167
-614.176
-614.191
-614.214
-614.244
-614.279
-614.319
-614.362
-614.406
-614.451
-614.494
-614.535
-614.571
-614.6
-614.623
-614.638
-614.644
-614.638
-614.623
-614.599
-614.567
-614.528
-614.484
-614.436
-614.385
-614.336
-614.289
-614.246
-614.21
-614.181
-614.163
-614.153
-614.155
-614.167
-614.187
-614.215
-614.249
-614.286
-614.324
-614.36
-614.392
-614.417
-614.435
-614.443
-614.442
-614.431
-614.412
-614.386
-614.355
-614.322
-614.289
-614.26
-614.236
-614.219
-614.21
-614.21
-614.218
-614.233
-614.253
-614.276
-614.299
-614.321
-614.339
-614.352
-614.358
-614.359
-614.354
-614.346
-614.337
-614.329
-614.322
-614.319
-614.32
-614.324
-614.333
-614.343
-614.354
-614.363
-614.369
-614.371
-614.367
-614.357
-614.343
-614.325
-614.304
-614.284
-614.267
-614.254
-614.247
-614.248
-614.257
-614.272
-614.294
-614.321
-614.349
-614.376
-614.4
-614.417
-614.427
-1776.84
-1776.84
-1776.84
-1776.83
-1776.83
-1776.82
-1776.82
-1776.81
-1776.8
-1776.79
-1776.77
-1776.75
-1776.73
-1776.71
-1776.69
-1776.66
-1776.63
-1776.59
-1776.55
-1776.51
-1776.46
-1776.41
-1776.35
-1776.29
-1776.22
-1776.15
-1776.08
-1776
-1775.92
-1775.83
-1775.74
-1775.65
-1775.55
-1775.46
-1775.36
-1775.25
-1775.15
-1775.05
-1774.95
-1774.84
-1774.74
-1774.64
-1774.54
-1774.45
-1774.35
-1774.27
-1774.18
-1774.1
-1774.03
-1773.96
-1773.89
-1773.83
-1773.78
-1773.73
-1773.69
-1773.65
-1773.62
-1773.59
-1773.57
-1773.55
-1773.54
-1773.54
-1773.53
-1773.53
-1773.54
-1773.54
-1773.55
-1773.56
-1773.57
-1773.58
-1773.59
-1773.59
-1773.6
-1773.6
-1773.59
-1773.59
-1773.58
-1773.56
-1773.54
-1773.51
-1773.48
-1773.44
-1773.39
-1773.34
-1773.29
-1773.23
-1773.17
-1773.1
-1773.03
-1772.97
-1772.9
-1772.83
-1772.76
-1772.7
-1772.65
-1772.6
-1772.55
-1772.52
-1772.49
-1772.47
-1772.47
-1772.47
-1772.48
-1772.5
-1772.53
-1772.57
-1772.62
-1772.67
-1772.72
-1772.78
-1772.83
-1772.89
-1772.94
-1772.98
-1773.02
-1773.04
-1773.06
-1773.07
-1773.06
-1773.04
-1773.01
-1772.97
-1772.93
-1772.87
-1772.81
-1772.75
-1772.69
-1772.64
-1772.58
-1772.54
-1772.51
-1772.49
-1772.48
-1772.48
-1772.5
-1772.53
-1772.56
-1772.61
-1772.65
-1772.7
-1772.74
-1772.78
-1772.81
-1772.83
-1772.84
-1772.84
-1772.83
-1772.8
-1772.77
-1772.73
-1772.69
-1772.65
-1772.62
-1772.59
-1772.57
-1772.56
-1772.56
-1772.57
-1772.59
-1772.62
-1772.64
-1772.67
-1772.7
-1772.72
-1772.73
-1772.74
-1772.74
-1772.73
-1772.72
-1772.71
-1772.7
-1772.69
-1772.68
-1772.68
-1772.69
-1772.7
-1772.71
-1772.73
-1772.74
-1772.75
-1772.75
-1772.74
-1772.73
-1772.72
-1772.7
-1772.67
-1772.65
-1772.63
-1772.62
-1772.61
-1772.61
-1772.62
-1772.64
-1772.66
-1772.69
-1772.72
-1772.75
-1772.78
-1772.79
-1772.8
-2803.2
-2803.2
-2803.2
-2803.2
-2803.2
-2803.2
-2803.2
-2803.2
-2803.2
-2803.19
-2803.19
-2803.18
-2803.17
-2803.15
-2803.14
-2803.11
-2803.09
-2803.05
-2803.02
-2802.97
-2802.92
-2802.86
-2802.8
-2802.73
-2802.65
-2802.56
-2802.47
-2802.37
-2802.27
-2802.16
-2802.04
-2801.92
-2801.8
-2801.68
-2801.55
-2801.42
-2801.29
-2801.16
-2801.03
-2800.91
-2800.78
-2800.66
-2800.55
-2800.43
-2800.33
-2800.22
-2800.13
-2800.03
-2799.95
-2799.88
-2799.81
-2799.75
-2799.69
-2799.65
-2799.61
-2799.58
-2799.56
-2799.55
-2799.54
-2799.54
-2799.54
-2799.56
-2799.57
-2799.59
-2799.62
-2799.64
-2799.67
-2799.7
-2799.73
-2799.76
-2799.78
-2799.8
-2799.82
-2799.84
-2799.84
-2799.85
-2799.84
-2799.83
-2799.81
-2799.78
-2799.74
-2799.7
-2799.65
-2799.59
-2799.52
-2799.45
-2799.37
-2799.28
-2799.2
-2799.11
-2799.02
-2798.94
-2798.86
-2798.78
-2798.71
-2798.64
-2798.59
-2798.55
-2798.52
-2798.5
-2798.49
-2798.5
-2798.52
-2798.55
-2798.6
-2798.66
-2798.72
-2798.79
-2798.86
-2798.94
-2799.02
-2799.09
-2799.16
-2799.22
-2799.26
-2799.3
-2799.32
-2799.33
-2799.32
-2799.29
-2799.25
-2799.2
-2799.14
-2799.06
-2798.99
-2798.9
-2798.83
-2798.75
-2798.69
-2798.63
-2798.59
-2798.57
-2798.56
-2798.57
-2798.6
-2798.64
-2798.69
-2798.75
-2798.81
-2798.87
-2798.93
-2798.99
-2799.03
-2799.05
-2799.06
-2799.06
-2799.03
-2799
-2798.95
-2798.9
-2798.85
-2798.79
-2798.75
-2798.71
-2798.69
-2798.68
-2798.68
-2798.7
-2798.73
-2798.77
-2798.8
-2798.84
-2798.87
-2798.9
-2798.91
-2798.92
-2798.91
-2798.9
-2798.88
-2798.87
-2798.85
-2798.84
-2798.83
-2798.83
-2798.84
-2798.85
-2798.87
-2798.89
-2798.91
-2798.92
-2798.92
-2798.92
-2798.91
-2798.89
-2798.86
-2798.83
-2798.81
-2798.78
-2798.76
-2798.75
-2798.75
-2798.77
-2798.79
-2798.81
-2798.85
-2798.88
-2798.92
-2798.95
-2798.97
-2798.98
-3712.41
-3712.41
-3712.42
-3712.43
-3712.44
-3712.46
-3712.47
-3712.49
-3712.51
-3712.53
-3712.55
-3712.56
-3712.57
-3712.58
-3712.58
-3712.57
-3712.56
-3712.54
-3712.51
-3712.46
-3712.41
-3712.35
-3712.27
-3712.18
-3712.08
-3711.97
-3711.85
-3711.72
-3711.58
-3711.43
-3711.27
-3711.11
-3710.95
-3710.78
-3710.61
-3710.44
-3710.27
-3710.1
-3709.93
-3709.77
-3709.61
-3709.46
-3709.31
-3709.17
-3709.04
-3708.92
-3708.81
-3708.71
-3708.62
-3708.54
-3708.47
-3708.42
-3708.37
-3708.33
-3708.31
-3708.29
-3708.29
-3708.3
-3708.31
-3708.33
-3708.37
-3708.4
-3708.45
-3708.5
-3708.55
-3708.61
-3708.66
-3708.72
-3708.78
-3708.83
-3708.88
-3708.93
-3708.97
-3709
-3709.03
-3709.04
-3709.04
-3709.04
-3709.02
-3708.99
-3708.95
-3708.89
-3708.83
-3708.75
-3708.66
-3708.57
-3708.47
-3708.36
-3708.25
-3708.13
-3708.02
-3707.9
-3707.8
-3707.69
-3707.6
-3707.52
-3707.45
-3707.4
-3707.36
-3707.34
-3707.34
-3707.36
-3707.39
-3707.44
-3707.51
-3707.59
-3707.68
-3707.78
-3707.88
-3707.99
-3708.1
-3708.2
-3708.29
-3708.37
-3708.43
-3708.48
-3708.51
-3708.51
-3708.5
-3708.46
-3708.41
-3708.33
-3708.25
-3708.15
-3708.04
-3707.93
-3707.82
-3707.73
-3707.64
-3707.57
-3707.52
-3707.49
-3707.49
-3707.5
-3707.54
-3707.6
-3707.67
-3707.76
-3707.85
-3707.93
-3708.02
-3708.09
-3708.14
-3708.17
-3708.18
-3708.17
-3708.14
-3708.09
-3708.03
-3707.95
-3707.88
-3707.81
-3707.75
-3707.7
-3707.67
-3707.66
-3707.67
-3707.7
-3707.74
-3707.79
-3707.84
-3707.89
-3707.94
-3707.97
-3707.98
-3707.99
-3707.98
-3707.96
-3707.93
-3707.9
-3707.88
-3707.86
-3707.85
-3707.85
-3707.86
-3707.88
-3707.91
-3707.93
-3707.96
-3707.97
-3707.98
-3707.97
-3707.96
-3707.94
-3707.91
-3707.87
-3707.84
-3707.81
-3707.78
-3707.77
-3707.77
-3707.79
-3707.81
-3707.84
-3707.88
-3707.92
-3707.96
-3708
-3708.02
-3708.04
-4517.79
-4517.8
-4517.82
-4517.85
-4517.88
-4517.93
-4517.98
-4518.04
-4518.1
-4518.17
-4518.23
-4518.3
-4518.36
-4518.41
-4518.45
-4518.48
-4518.5
-4518.5
-4518.49
-4518.45
-4518.4
-4518.32
-4518.22
-4518.11
-4517.97
-4517.82
-4517.64
-4517.46
-4517.26
-4517.05
-4516.83
-4516.6
-4516.37
-4516.14
-4515.9
-4515.67
-4515.44
-4515.22
-4515
-4514.79
-4514.59
-4514.4
-4514.22
-4514.06
-4513.9
-4513.76
-4513.64
-4513.52
-4513.43
-4513.34
-4513.28
-4513.22
-4513.19
-4513.17
-4513.16
-4513.17
-4513.19
-4513.22
-4513.27
-4513.32
-4513.39
-4513.46
-4513.55
-4513.63
-4513.73
-4513.82
-4513.92
-4514.01
-4514.11
-4514.2
-4514.28
-4514.35
-4514.42
-4514.48
-4514.52
-4514.55
-4514.56
-4514.56
-4514.54
-4514.51
-4514.46
-4514.39
-4514.31
-4514.21
-4514.1
-4513.97
-4513.84
-4513.69
-4513.55
-4513.4
-4513.24
-4513.1
-4512.96
-4512.82
-4512.7
-4512.6
-4512.51
-4512.44
-4512.4
-4512.38
-4512.38
-4512.41
-4512.46
-4512.53
-4512.63
-4512.74
-4512.87
-4513
-4513.15
-4513.3
-4513.44
-4513.58
-4513.7
-4513.81
-4513.89
-4513.96
-4513.99
-4514
-4513.97
-4513.92
-4513.85
-4513.74
-4513.62
-4513.49
-4513.34
-4513.2
-4513.06
-4512.93
-4512.81
-4512.72
-4512.66
-4512.63
-4512.62
-4512.65
-4512.71
-4512.79
-4512.9
-4513.01
-4513.14
-4513.26
-4513.37
-4513.46
-4513.53
-4513.57
-4513.58
-4513.56
-4513.51
-4513.44
-4513.35
-4513.25
-4513.15
-4513.06
-4512.98
-4512.92
-4512.88
-4512.87
-4512.89
-4512.93
-4512.99
-4513.06
-4513.14
-4513.2
-4513.26
-4513.3
-4513.32
-4513.31
-4513.3
-4513.27
-4513.22
-4513.19
-4513.15
-4513.13
-4513.11
-4513.12
-4513.13
-4513.16
-4513.19
-4513.23
-4513.26
-4513.28
-4513.29
-4513.29
-4513.27
-4513.24
-4513.2
-4513.16
-4513.12
-4513.08
-4513.05
-4513.04
-4513.04
-4513.05
-4513.08
-4513.12
-4513.17
-4513.21
-4513.26
-4513.3
-4513.33
-4513.35
-5230.87
-5230.89
-5230.93
-5230.99
-5231.07
-5231.17
-5231.29
-5231.42
-5231.56
-5231.7
-5231.85
-5231.99
-5232.13
-5232.26
-5232.38
-5232.48
-5232.56
-5232.62
-5232.65
-5232.66
-5232.63
-5232.56
-5232.46
-5232.33
-5232.15
-5231.94
-5231.7
-5231.43
-5231.14
-5230.83
-5230.52
-5230.19
-5229.87
-5229.54
-5229.22
-5228.91
-5228.61
-5228.31
-5228.03
-5227.77
-5227.52
-5227.29
-5227.07
-5226.88
-5226.7
-5226.54
-5226.4
-5226.28
-5226.18
-5226.1
-5226.05
-5226.01
-5225.99
-5225.99
-5226.01
-5226.05
-5226.1
-5226.17
-5226.26
-5226.35
-5226.46
-5226.58
-5226.71
-5226.85
-5226.99
-5227.13
-5227.28
-5227.42
-5227.56
-5227.69
-5227.81
-5227.92
-5228.02
-5228.1
-5228.16
-5228.21
-5228.23
-5228.24
-5228.22
-5228.18
-5228.12
-5228.03
-5227.93
-5227.8
-5227.65
-5227.49
-5227.32
-5227.13
-5226.94
-5226.74
-5226.55
-5226.36
-5226.17
-5226
-5225.85
-5225.72
-5225.61
-5225.53
-5225.47
-5225.44
-5225.46
-5225.5
-5225.57
-5225.68
-5225.8
-5225.96
-5226.13
-5226.31
-5226.51
-5226.7
-5226.89
-5227.07
-5227.24
-5227.38
-5227.49
-5227.57
-5227.61
-5227.61
-5227.58
-5227.51
-5227.41
-5227.27
-5227.11
-5226.93
-5226.74
-5226.55
-5226.36
-5226.19
-5226.05
-5225.93
-5225.86
-5225.82
-5225.82
-5225.86
-5225.95
-5226.06
-5226.2
-5226.36
-5226.52
-5226.68
-5226.82
-5226.94
-5227.03
-5227.08
-5227.09
-5227.06
-5226.99
-5226.9
-5226.78
-5226.65
-5226.51
-5226.39
-5226.29
-5226.21
-5226.17
-5226.16
-5226.19
-5226.25
-5226.33
-5226.43
-5226.52
-5226.61
-5226.68
-5226.73
-5226.75
-5226.74
-5226.71
-5226.67
-5226.61
-5226.56
-5226.51
-5226.48
-5226.46
-5226.47
-5226.49
-5226.53
-5226.57
-5226.62
-5226.66
-5226.68
-5226.7
-5226.69
-5226.67
-5226.63
-5226.59
-5226.53
-5226.48
-5226.44
-5226.4
-5226.39
-5226.39
-5226.41
-5226.44
-5226.48
-5226.54
-5226.6
-5226.65
-5226.7
-5226.74
-5226.75
-5862.23
-5862.27
-5862.36
-5862.49
-5862.68
-5862.9
-5863.17
-5863.47
-5863.8
-5864.15
-5864.51
-5864.87
-5865.23
-5865.55
-5865.85
-5866.09
-5866.28
-5866.41
-5866.47
-5866.46
-5866.39
-5866.24
-5866.03
-5865.77
-5865.45
-5865.08
-5864.66
-5864.22
-5863.75
-5863.28
-5862.81
-5862.35
-5861.89
-5861.44
-5861.02
-5860.61
-5860.22
-5859.85
-5859.5
-5859.18
-5858.88
-5858.61
-5858.36
-5858.14
-5857.94
-5857.77
-5857.63
-5857.5
-5857.41
-5857.34
-5857.3
-5857.28
-5857.28
-5857.31
-5857.37
-5857.44
-5857.54
-5857.65
-5857.78
-5857.93
-5858.09
-5858.27
-5858.46
-5858.65
-5858.84
-5859.04
-5859.24
-5859.44
-5859.63
-5859.81
-5859.97
-5860.12
-5860.26
-5860.37
-5860.46
-5860.52
-5860.56
-5860.57
-5860.55
-5860.5
-5860.42
-5860.31
-5860.18
-5860.01
-5859.83
-5859.62
-5859.4
-5859.16
-5858.92
-5858.67
-5858.42
-5858.18
-5857.95
-5857.73
-5857.54
-5857.37
-5857.24
-5857.14
-5857.08
-5857.06
-5857.07
-5857.13
-5857.23
-5857.36
-5857.53
-5857.73
-5857.96
-5858.2
-5858.45
-5858.7
-5858.95
-5859.18
-5859.39
-5859.56
-5859.71
-5859.8
-5859.85
-5859.86
-5859.81
-5859.72
-5859.58
-5859.4
-5859.19
-5858.96
-5858.71
-5858.47
-5858.23
-5858.02
-5857.84
-5857.69
-5857.6
-5857.56
-5857.57
-5857.63
-5857.74
-5857.89
-5858.08
-5858.28
-5858.49
-5858.69
-5858.88
-5859.03
-5859.14
-5859.2
-5859.21
-5859.16
-5859.07
-5858.95
-5858.79
-5858.62
-5858.44
-5858.29
-5858.16
-5858.07
-5858.02
-5858.02
-5858.06
-5858.14
-5858.25
-5858.37
-5858.5
-5858.61
-5858.69
-5858.75
-5858.77
-5858.76
-5858.71
-5858.65
-5858.58
-5858.5
-5858.44
-5858.4
-5858.38
-5858.39
-5858.42
-5858.47
-5858.53
-5858.59
-5858.64
-5858.67
-5858.69
-5858.68
-5858.66
-5858.61
-5858.56
-5858.49
-5858.43
-5858.38
-5858.34
-5858.32
-5858.32
-5858.34
-5858.38
-5858.43
-5858.49
-5858.56
-5858.63
-5858.68
-5858.72
-5858.74
-6420.28
-6420.37
-6420.53
-6420.78
-6421.11
-6421.53
-6422.02
-6422.56
-6423.16
-6423.77
-6424.36
-6424.92
-6425.44
-6425.9
-6426.3
-6426.64
-6426.91
-6427.12
-6427.27
-6427.34
-6427.34
-6427.26
-6427.08
-6426.81
-6426.44
-6425.97
-6425.42
-6424.79
-6424.13
-6423.47
-6422.83
-6422.2
-6421.6
-6421.03
-6420.48
-6419.97
-6419.5
-6419.05
-6418.65
-6418.28
-6417.94
-6417.63
-6417.36
-6417.12
-6416.91
-6416.72
-6416.59
-6416.48
-6416.4
-6416.35
-6416.33
-6416.34
-6416.37
-6416.44
-6416.53
-6416.65
-6416.8
-6416.96
-6417.15
-6417.36
-6417.58
-6417.82
-6418.07
-6418.32
-6418.58
-6418.85
-6419.11
-6419.36
-6419.61
-6419.84
-6420.06
-6420.25
-6420.42
-6420.57
-6420.68
-6420.77
-6420.82
-6420.83
-6420.8
-6420.74
-6420.65
-6420.51
-6420.34
-6420.14
-6419.91
-6419.65
-6419.37
-6419.08
-6418.77
-6418.46
-6418.15
-6417.85
-6417.57
-6417.3
-6417.06
-6416.86
-6416.7
-6416.58
-6416.51
-6416.49
-6416.51
-6416.59
-6416.72
-6416.89
-6417.11
-6417.36
-6417.65
-6417.95
-6418.27
-6418.58
-6418.89
-6419.18
-6419.44
-6419.66
-6419.83
-6419.95
-6420.01
-6420.01
-6419.94
-6419.82
-6419.64
-6419.42
-6419.15
-6418.86
-6418.55
-6418.25
-6417.96
-6417.69
-6417.47
-6417.3
-6417.19
-6417.14
-6417.16
-6417.24
-6417.39
-6417.59
-6417.82
-6418.08
-6418.34
-6418.6
-6418.82
-6419.01
-6419.14
-6419.21
-6419.22
-6419.16
-6419.04
-6418.87
-6418.68
-6418.46
-6418.24
-6418.05
-6417.89
-6417.78
-6417.73
-6417.73
-6417.79
-6417.9
-6418.03
-6418.19
-6418.35
-6418.48
-6418.59
-6418.65
-6418.68
-6418.65
-6418.59
-6418.51
-6418.41
-6418.32
-6418.24
-6418.19
-6418.17
-6418.18
-6418.22
-6418.29
-6418.36
-6418.43
-6418.49
-6418.54
-6418.56
-6418.55
-6418.52
-6418.47
-6418.4
-6418.32
-6418.25
-6418.19
-6418.14
-6418.12
-6418.12
-6418.14
-6418.19
-6418.25
-6418.32
-6418.4
-6418.47
-6418.54
-6418.58
-6418.6
-6913.57
-6913.71
-6914.03
-6914.48
-6915.09
-6915.83
-6916.73
-6917.74
-6918.85
-6919.97
-6921.1
-6922.19
-6923.24
-6924.22
-6925.11
-6925.89
-6926.55
-6927.02
-6927.29
-6927.35
-6927.21
-6926.89
-6926.41
-6925.79
-6925.03
-6924.15
-6923.14
-6921.96
-6920.82
-6919.8
-6918.85
-6917.98
-6917.18
-6916.45
-6915.79
-6915.19
-6914.65
-6914.15
-6913.71
-6913.3
-6912.94
-6912.62
-6912.34
-6912.1
-6911.9
-6911.74
-6911.59
-6911.49
-6911.42
-6911.39
-6911.4
-6911.44
-6911.52
-6911.62
-6911.76
-6911.93
-6912.13
-6912.35
-6912.6
-6912.87
-6913.16
-6913.47
-6913.79
-6914.11
-6914.44
-6914.77
-6915.1
-6915.42
-6915.73
-6916.02
-6916.29
-6916.53
-6916.74
-6916.92
-6917.07
-6917.17
-6917.23
-6917.25
-6917.22
-6917.14
-6917.02
-6916.86
-6916.65
-6916.4
-6916.12
-6915.8
-6915.46
-6915.1
-6914.73
-6914.35
-6913.97
-6913.61
-6913.26
-6912.94
-6912.66
-6912.41
-6912.22
-6912.08
-6911.99
-6911.97
-6912.01
-6912.11
-6912.28
-6912.5
-6912.77
-6913.08
-6913.43
-6913.81
-6914.19
-6914.58
-6914.96
-6915.31
-6915.62
-6915.89
-6916.09
-6916.23
-6916.3
-6916.29
-6916.21
-6916.06
-6915.83
-6915.55
-6915.23
-6914.87
-6914.5
-6914.12
-6913.77
-6913.45
-6913.18
-6912.98
-6912.85
-6912.8
-6912.83
-6912.94
-6913.12
-6913.37
-6913.66
-6913.98
-6914.3
-6914.61
-6914.89
-6915.11
-6915.27
-6915.35
-6915.35
-6915.27
-6915.12
-6914.91
-6914.67
-6914.4
-6914.14
-6913.9
-6913.71
-6913.58
-6913.52
-6913.54
-6913.61
-6913.75
-6913.92
-6914.11
-6914.31
-6914.47
-6914.6
-6914.67
-6914.69
-6914.66
-6914.58
-6914.47
-6914.35
-6914.24
-6914.14
-6914.08
-6914.06
-6914.08
-6914.13
-6914.2
-6914.29
-6914.38
-6914.45
-6914.51
-6914.53
-6914.52
-6914.48
-6914.42
-6914.34
-6914.25
-6914.17
-6914.1
-6914.05
-6914.02
-6914.02
-6914.05
-6914.1
-6914.17
-6914.25
-6914.34
-6914.42
-6914.49
-6914.54
-6914.57
-7348.65
-7348.84
-7349.24
-7349.86
-7350.76
-7352.04
-7353.61
-7355.62
-7359.18
-7361.41
-7363.2
-7364.75
-7366.07
-7367.16
-7368.04
-7368.76
-7369.27
-7369.61
-7369.8
-7369.85
-7369.74
-7369.47
-7369.01
-7368.3
-7367.29
-7366.3
-7364.96
-7361.56
-7360.04
-7358.7
-7357.55
-7356.55
-7355.66
-7354.88
-7354.17
-7353.54
-7352.97
-7352.46
-7352
-7351.59
-7351.22
-7350.9
-7350.62
-7350.39
-7350.19
-7350.03
-7349.91
-7349.83
-7349.79
-7349.79
-7349.83
-7349.91
-7350.02
-7350.18
-7350.37
-7350.59
-7350.85
-7351.13
-7351.45
-7351.79
-7352.15
-7352.53
-7352.92
-7353.32
-7353.72
-7354.13
-7354.53
-7354.91
-7355.29
-7355.64
-7355.96
-7356.26
-7356.51
-7356.73
-7356.9
-7357.02
-7357.09
-7357.11
-7357.08
-7356.98
-7356.84
-7356.64
-7356.39
-7356.09
-7355.75
-7355.37
-7354.96
-7354.53
-7354.09
-7353.63
-7353.18
-7352.75
-7352.34
-7351.96
-7351.62
-7351.33
-7351.11
-7350.94
-7350.85
-7350.83
-7350.88
-7351.01
-7351.21
-7351.48
-7351.81
-7352.19
-7352.61
-7353.06
-7353.52
-7353.99
-7354.44
-7354.85
-7355.23
-7355.54
-7355.78
-7355.95
-7356.02
-7356.01
-7355.9
-7355.71
-7355.44
-7355.1
-7354.71
-7354.28
-7353.83
-7353.39
-7352.97
-7352.59
-7352.28
-7352.04
-7351.89
-7351.84
-7351.88
-7352.02
-7352.25
-7352.55
-7352.9
-7353.28
-7353.67
-7354.04
-7354.37
-7354.63
-7354.81
-7354.9
-7354.89
-7354.79
-7354.61
-7354.35
-7354.06
-7353.74
-7353.43
-7353.15
-7352.93
-7352.78
-7352.71
-7352.73
-7352.83
-7353
-7353.21
-7353.44
-7353.67
-7353.87
-7354.01
-7354.1
-7354.11
-7354.07
-7353.97
-7353.84
-7353.69
-7353.55
-7353.44
-7353.37
-7353.34
-7353.36
-7353.43
-7353.52
-7353.62
-7353.73
-7353.82
-7353.88
-7353.91
-7353.9
-7353.85
-7353.78
-7353.69
-7353.59
-7353.49
-7353.41
-7353.35
-7353.32
-7353.32
-7353.35
-7353.41
-7353.49
-7353.58
-7353.68
-7353.77
-7353.85
-7353.91
-7353.94
-7731.84
-7732.09
-7732.61
-7733.44
-7734.63
-7736.11
-7737.87
-7740.34
-7744.81
-7747.74
-7750.38
-7752.69
-7754.67
-7756.35
-7757.74
-7758.82
-7759.66
-7760.29
-7760.69
-7760.85
-7760.74
-7760.35
-7759.64
-7758.62
-7757.28
-7755.6
-7753.59
-7750.52
-7748.55
-7746.89
-7745.57
-7744.5
-7743.59
-7742.81
-7742.12
-7741.51
-7740.96
-7740.47
-7740.03
-7739.64
-7739.28
-7738.97
-7738.71
-7738.48
-7738.3
-7738.16
-7738.06
-7738
-7737.99
-7738.02
-7738.09
-7738.21
-7738.37
-7738.57
-7738.81
-7739.09
-7739.41
-7739.76
-7740.15
-7740.56
-7740.99
-7741.44
-7741.91
-7742.39
-7742.87
-7743.35
-7743.83
-7744.29
-7744.73
-7745.14
-7745.52
-7745.87
-7746.17
-7746.42
-7746.62
-7746.76
-7746.84
-7746.86
-7746.82
-7746.71
-7746.53
-7746.3
-7746
-7745.65
-7745.25
-7744.8
-7744.32
-7743.82
-7743.29
-7742.76
-7742.24
-7741.73
-7741.25
-7740.81
-7740.42
-7740.09
-7739.82
-7739.64
-7739.53
-7739.52
-7739.59
-7739.74
-7739.98
-7740.3
-7740.69
-7741.14
-7741.64
-7742.17
-7742.71
-7743.26
-7743.78
-7744.27
-7744.7
-7745.06
-7745.34
-7745.53
-7745.61
-7745.59
-7745.46
-7745.23
-7744.91
-7744.51
-7744.05
-7743.54
-7743.02
-7742.5
-7742.01
-7741.57
-7741.21
-7740.93
-7740.77
-7740.71
-7740.78
-7740.95
-7741.22
-7741.57
-7741.99
-7742.43
-7742.9
-7743.33
-7743.71
-7744.01
-7744.21
-7744.31
-7744.3
-7744.17
-7743.95
-7743.65
-7743.3
-7742.93
-7742.56
-7742.24
-7741.98
-7741.81
-7741.74
-7741.77
-7741.9
-7742.1
-7742.35
-7742.63
-7742.89
-7743.12
-7743.29
-7743.38
-7743.39
-7743.33
-7743.21
-7743.05
-7742.88
-7742.71
-7742.58
-7742.5
-7742.47
-7742.5
-7742.58
-7742.69
-7742.81
-7742.93
-7743.04
-7743.11
-7743.14
-7743.12
-7743.07
-7742.99
-7742.88
-7742.77
-7742.66
-7742.57
-7742.51
-7742.47
-7742.47
-7742.51
-7742.58
-7742.66
-7742.76
-7742.87
-7742.97
-7743.06
-7743.12
-7743.15
-8069.48
-8069.57
-8069.75
-8070
-8070.27
-8070.63
-8070.89
-8071.35
-8089.2
-8088.66
-8088.29
-8087.75
-8087.17
-8086.58
-8086.02
-8085.47
-8084.95
-8084.47
-8084.02
-8083.61
-8083.24
-8082.9
-8082.61
-8082.36
-8082.15
-8081.98
-8081.86
-8081.78
-8081.75
-8081.76
-8081.82
-8081.93
-8082.09
-8082.29
-8082.55
-8082.84
-8083.18
-8083.56
-8083.98
-8084.43
-8084.91
-8085.42
-8085.95
-8086.5
-8087.06
-8087.62
-8088.18
-8088.73
-8089.26
-8089.77
-8090.25
-8090.69
-8091.08
-8091.43
-8091.72
-8091.95
-8092.11
-8092.2
-8092.22
-8092.16
-8092.03
-8091.83
-8091.55
-8091.2
-8090.8
-8090.33
-8089.82
-8089.26
-8088.68
-8088.08
-8087.47
-8086.87
-8086.28
-8085.73
-8085.23
-8084.78
-8084.4
-8084.11
-8083.9
-8083.78
-8083.77
-8083.85
-8084.04
-8084.32
-8084.7
-8085.15
-8085.67
-8086.25
-8086.86
-8087.49
-8088.11
-8088.71
-8089.27
-8089.77
-8090.18
-8090.5
-8090.71
-8090.8
-8090.76
-8090.61
-8090.34
-8089.96
-8089.5
-8088.96
-8088.38
-8087.78
-8087.18
-8086.62
-8086.12
-8085.71
-8085.4
-8085.22
-8085.16
-8085.24
-8085.45
-8085.76
-8086.18
-8086.66
-8087.17
-8087.72
-8088.2
-8088.63
-8088.98
-8089.21
-8089.31
-8089.29
-8089.14
-8088.88
-8088.53
-8088.12
-8087.69
-8087.27
-8086.9
-8086.61
-8086.42
-8086.35
-8086.39
-8086.54
-8086.78
-8087.07
-8087.39
-8087.7
-8087.96
-8088.14
-8088.24
-8088.25
-8088.18
-8088.03
-8087.84
-8087.64
-8087.45
-8087.31
-8087.21
-8087.19
-8087.22
-8087.31
-8087.43
-8087.58
-8087.72
-8087.83
-8087.91
-8087.95
-8087.93
-8087.87
-8087.78
-8087.66
-8087.53
-8087.41
-8087.31
-8087.24
-8087.21
-8087.21
-8087.25
-8087.32
-8087.42
-8087.53
-8087.64
-8087.75
-8087.85
-8087.91
-8087.95
-8367.25
-8367.26
-8367.28
-8367.3
-8367.36
-8367.56
-8367.92
-8368.25
-8392.39
-8392.04
-8391.74
-8391.34
-8390.89
-8390.43
-8389.98
-8389.52
-8389.07
-8388.65
-8388.24
-8387.87
-8387.52
-8387.21
-8386.93
-8386.69
-8386.49
-8386.34
-8386.24
-8386.18
-8386.17
-8386.21
-8386.3
-8386.44
-8386.64
-8386.89
-8387.19
-8387.54
-8387.94
-8388.38
-8388.87
-8389.39
-8389.94
-8390.53
-8391.14
-8391.76
-8392.4
-8393.04
-8393.68
-8394.3
-8394.9
-8395.48
-8396.02
-8396.52
-8396.97
-8397.36
-8397.69
-8397.94
-8398.12
-8398.22
-8398.24
-8398.17
-8398.02
-8397.79
-8397.47
-8397.07
-8396.61
-8396.08
-8395.49
-8394.86
-8394.2
-8393.52
-8392.83
-8392.14
-8391.49
-8390.86
-8390.3
-8389.79
-8389.37
-8389.04
-8388.81
-8388.68
-8388.67
-8388.78
-8388.99
-8389.32
-8389.75
-8390.27
-8390.86
-8391.52
-8392.21
-8392.92
-8393.63
-8394.31
-8394.94
-8395.5
-8395.96
-8396.32
-8396.55
-8396.64
-8396.6
-8396.42
-8396.11
-8395.68
-8395.15
-8394.54
-8393.87
-8393.19
-8392.52
-8391.88
-8391.32
-8390.86
-8390.52
-8390.32
-8390.26
-8390.36
-8390.6
-8390.97
-8391.44
-8391.99
-8392.58
-8393.18
-8393.74
-8394.22
-8394.61
-8394.86
-8394.98
-8394.94
-8394.76
-8394.46
-8394.06
-8393.6
-8393.11
-8392.63
-8392.22
-8391.89
-8391.68
-8391.61
-8391.66
-8391.84
-8392.11
-8392.45
-8392.82
-8393.16
-8393.45
-8393.66
-8393.77
-8393.77
-8393.68
-8393.51
-8393.29
-8393.06
-8392.85
-8392.68
-8392.58
-8392.55
-8392.59
-8392.7
-8392.84
-8393
-8393.16
-8393.29
-8393.38
-8393.41
-8393.4
-8393.33
-8393.22
-8393.09
-8392.96
-8392.82
-8392.71
-8392.64
-8392.6
-8392.6
-8392.64
-8392.72
-8392.83
-8392.95
-8393.08
-8393.19
-8393.29
-8393.36
-8393.4
-8631.59
-8631.64
-8631.74
-8631.91
-8632.1
-8632.07
-8632.05
-8632.15
-8661.03
-8660.82
-8660.63
-8660.34
-8660.01
-8659.63
-8659.24
-8658.84
-8658.45
-8658.06
-8657.68
-8657.33
-8657
-8656.7
-8656.43
-8656.21
-8656.02
-8655.88
-8655.79
-8655.75
-8655.76
-8655.82
-8655.94
-8656.12
-8656.36
-8656.65
-8657
-8657.4
-8657.86
-8658.36
-8658.91
-8659.5
-8660.13
-8660.79
-8661.48
-8662.18
-8662.9
-8663.61
-8664.33
-8665.03
-8665.7
-8666.35
-8666.95
-8667.51
-8668.01
-8668.44
-8668.8
-8669.09
-8669.28
-8669.39
-8669.41
-8669.33
-8669.15
-8668.88
-8668.53
-8668.08
-8667.56
-8666.96
-8666.31
-8665.6
-8664.86
-8664.09
-8663.32
-8662.56
-8661.83
-8661.14
-8660.5
-8659.95
-8659.48
-8659.11
-8658.86
-8658.73
-8658.72
-8658.84
-8659.09
-8659.46
-8659.94
-8660.53
-8661.19
-8661.93
-8662.7
-8663.5
-8664.29
-8665.05
-8665.75
-8666.37
-8666.89
-8667.28
-8667.53
-8667.63
-8667.57
-8667.36
-8667.01
-8666.53
-8665.93
-8665.24
-8664.5
-8663.74
-8662.99
-8662.29
-8661.66
-8661.15
-8660.78
-8660.56
-8660.51
-8660.62
-8660.9
-8661.31
-8661.85
-8662.46
-8663.12
-8663.8
-8664.42
-8664.96
-8665.38
-8665.66
-8665.78
-8665.73
-8665.53
-8665.18
-8664.73
-8664.21
-8663.66
-8663.13
-8662.67
-8662.31
-8662.09
-8662.01
-8662.08
-8662.28
-8662.59
-8662.98
-8663.38
-8663.77
-8664.09
-8664.32
-8664.44
-8664.43
-8664.32
-8664.13
-8663.88
-8663.62
-8663.38
-8663.2
-8663.09
-8663.06
-8663.11
-8663.23
-8663.39
-8663.57
-8663.74
-8663.88
-8663.98
-8664.02
-8664
-8663.93
-8663.81
-8663.67
-8663.52
-8663.37
-8663.25
-8663.17
-8663.13
-8663.13
-8663.18
-8663.27
-8663.38
-8663.51
-8663.65
-8663.77
-8663.88
-8663.95
-8663.99
-8865.56
-8865.58
-8865.6
-8865.61
-8865.59
-8865.67
-8865.71
-8865.76
-8899.25
-8899.1
-8898.94
-8898.72
-8898.44
-8898.12
-8897.78
-8897.42
-8897.05
-8896.69
-8896.33
-8895.99
-8895.67
-8895.37
-8895.12
-8894.89
-8894.72
-8894.59
-8894.5
-8894.48
-8894.51
-8894.59
-8894.74
-8894.95
-8895.23
-8895.56
-8895.95
-8896.41
-8896.92
-8897.48
-8898.1
-8898.76
-8899.46
-8900.19
-8900.95
-8901.73
-8902.52
-8903.32
-8904.1
-8904.88
-8905.62
-8906.34
-8907
-8907.62
-8908.16
-8908.64
-8909.04
-8909.34
-8909.56
-8909.67
-8909.68
-8909.59
-8909.39
-8909.09
-8908.69
-8908.2
-8907.62
-8906.96
-8906.23
-8905.45
-8904.63
-8903.79
-8902.94
-8902.1
-8901.29
-8900.53
-8899.83
-8899.22
-8898.71
-8898.31
-8898.04
-8897.9
-8897.89
-8898.03
-8898.31
-8898.73
-8899.27
-8899.91
-8900.65
-8901.46
-8902.32
-8903.2
-8904.07
-8904.91
-8905.68
-8906.36
-8906.92
-8907.35
-8907.62
-8907.72
-8907.66
-8907.42
-8907.03
-8906.49
-8905.82
-8905.07
-8904.25
-8903.41
-8902.58
-8901.81
-8901.12
-8900.56
-8900.16
-8899.92
-8899.87
-8900.01
-8900.32
-8900.78
-8901.38
-8902.06
-8902.79
-8903.53
-8904.21
-8904.8
-8905.27
-8905.57
-8905.7
-8905.64
-8905.41
-8905.02
-8904.52
-8903.94
-8903.33
-8902.75
-8902.24
-8901.85
-8901.61
-8901.53
-8901.61
-8901.84
-8902.19
-8902.62
-8903.07
-8903.5
-8903.85
-8904.1
-8904.22
-8904.21
-8904.08
-8903.86
-8903.58
-8903.3
-8903.03
-8902.83
-8902.71
-8902.68
-8902.74
-8902.87
-8903.05
-8903.25
-8903.44
-8903.6
-8903.7
-8903.74
-8903.72
-8903.64
-8903.51
-8903.36
-8903.19
-8903.04
-8902.91
-8902.82
-8902.78
-8902.79
-8902.84
-8902.93
-8903.05
-8903.19
-8903.33
-8903.47
-8903.58
-8903.66
-8903.7
-9072.79
-9072.8
-9072.81
-9072.83
-9072.85
-9072.88
-9072.9
-9072.93
-9110.43
-9110.31
-9110.16
-9109.97
-9109.72
-9109.43
-9109.11
-9108.77
-9108.42
-9108.06
-9107.71
-9107.37
-9107.06
-9106.77
-9106.51
-9106.29
-9106.12
-9105.99
-9105.92
-9105.9
-9105.95
-9106.06
-9106.23
-9106.47
-9106.78
-9107.15
-9107.59
-9108.09
-9108.66
-9109.28
-9109.96
-9110.68
-9111.45
-9112.25
-9113.09
-9113.94
-9114.8
-9115.67
-9116.53
-9117.38
-9118.19
-9118.97
-9119.69
-9120.36
-9120.96
-9121.47
-9121.9
-9122.23
-9122.46
-9122.58
-9122.59
-9122.49
-9122.27
-9121.94
-9121.49
-9120.95
-9120.31
-9119.59
-9118.79
-9117.94
-9117.04
-9116.12
-9115.2
-9114.28
-9113.4
-9112.57
-9111.82
-9111.15
-9110.6
-9110.17
-9109.87
-9109.73
-9109.73
-9109.89
-9110.2
-9110.65
-9111.24
-9111.95
-9112.77
-9113.65
-9114.59
-9115.55
-9116.5
-9117.41
-9118.25
-9118.99
-9119.6
-9120.05
-9120.34
-9120.45
-9120.38
-9120.11
-9119.68
-9119.08
-9118.35
-9117.53
-9116.63
-9115.71
-9114.81
-9113.97
-9113.23
-9112.63
-9112.19
-9111.94
-9111.89
-9112.05
-9112.39
-9112.91
-9113.56
-9114.31
-9115.11
-9115.91
-9116.65
-9117.3
-9117.8
-9118.12
-9118.25
-9118.18
-9117.92
-9117.5
-9116.94
-9116.31
-9115.65
-9115.01
-9114.46
-9114.04
-9113.78
-9113.7
-9113.8
-9114.06
-9114.44
-9114.91
-9115.41
-9115.87
-9116.25
-9116.52
-9116.65
-9116.63
-9116.48
-9116.23
-9115.93
-9115.61
-9115.33
-9115.11
-9114.98
-9114.96
-9115.02
-9115.17
-9115.36
-9115.58
-9115.79
-9115.95
-9116.07
-9116.11
-9116.08
-9116
-9115.86
-9115.69
-9115.52
-9115.35
-9115.22
-9115.13
-9115.08
-9115.09
-9115.14
-9115.24
-9115.37
-9115.51
-9115.67
-9115.8
-9115.92
-9116.01
-9116.05
-9256.36
-9256.36
-9256.37
-9256.37
-9256.39
-9256.41
-9256.42
-9256.44
-9297.57
-9297.49
-9297.35
-9297.17
-9296.93
-9296.65
-9296.34
-9296.01
-9295.66
-9295.3
-9294.95
-9294.61
-9294.29
-9293.99
-9293.73
-9293.51
-9293.34
-9293.22
-9293.15
-9293.15
-9293.21
-9293.33
-9293.53
-9293.8
-9294.14
-9294.55
-9295.03
-9295.58
-9296.19
-9296.87
-9297.61
-9298.39
-9299.23
-9300.1
-9301
-9301.93
-9302.86
-9303.8
-9304.73
-9305.64
-9306.52
-9307.36
-9308.14
-9308.86
-9309.5
-9310.05
-9310.51
-9310.87
-9311.11
-9311.24
-9311.24
-9311.13
-9310.88
-9310.52
-9310.04
-9309.45
-9308.76
-9307.97
-9307.11
-9306.19
-9305.22
-9304.22
-9303.22
-9302.23
-9301.28
-9300.39
-9299.58
-9298.86
-9298.27
-9297.81
-9297.49
-9297.34
-9297.35
-9297.52
-9297.86
-9298.36
-9299
-9299.77
-9300.65
-9301.61
-9302.63
-9303.66
-9304.69
-9305.67
-9306.57
-9307.37
-9308.02
-9308.51
-9308.82
-9308.93
-9308.84
-9308.55
-9308.08
-9307.43
-9306.64
-9305.74
-9304.78
-9303.79
-9302.81
-9301.91
-9301.11
-9300.46
-9300
-9299.73
-9299.69
-9299.86
-9300.24
-9300.8
-9301.51
-9302.32
-9303.19
-9304.05
-9304.85
-9305.55
-9306.08
-9306.43
-9306.56
-9306.48
-9306.2
-9305.73
-9305.13
-9304.44
-9303.72
-9303.04
-9302.45
-9302
-9301.72
-9301.64
-9301.75
-9302.04
-9302.46
-9302.97
-9303.51
-9304.01
-9304.42
-9304.7
-9304.83
-9304.81
-9304.64
-9304.37
-9304.04
-9303.7
-9303.39
-9303.16
-9303.02
-9303
-9303.07
-9303.23
-9303.44
-9303.67
-9303.89
-9304.07
-9304.19
-9304.24
-9304.21
-9304.11
-9303.97
-9303.79
-9303.61
-9303.43
-9303.29
-9303.19
-9303.15
-9303.15
-9303.21
-9303.32
-9303.45
-9303.6
-9303.76
-9303.91
-9304.03
-9304.12
-9304.17
-9418.95
-9418.95
-9418.96
-9418.97
-9418.98
-9419
-9419.01
-9419.02
-9463.43
-9463.37
-9463.23
-9463.05
-9462.81
-9462.53