/*--------------------------------*- C++ -*----------------------------------*\
  =========                 |
  \\      /  F ield         | OpenFOAM: The Open Source CFD Toolbox
   \\    /   O peration     | Website:  https://openfoam.org
    \\  /    A nd           | Version:  12
     \\/     M anipulation  |
\*---------------------------------------------------------------------------*/
FoamFile
{
    format      ascii;
    class       volScalarField;
    location    "10";
    object      p_rgh;
}
// * * * * * * * * * * * * * * * * * * * * * * * * * * * * * * * * * * * * * //

dimensions      [1 -1 -2 0 0 0 0];

internalField   nonuniform List<scalar> 
3829
(
-4.10621
-4.10484
-4.10205
-4.09776
-4.09192
-4.08444
-4.07523
-4.06421
-4.05129
-4.03635
-4.01928
-3.99997
-3.97828
-3.95409
-3.92725
-3.89763
-3.86511
-3.82955
-3.79086
-3.74892
-3.70366
-3.655
-3.60291
-3.54737
-3.48838
-3.42598
-3.36025
-3.29128
-3.21919
-3.14416
-3.06637
-2.98606
-2.90345
-2.81885
-2.73253
-2.64483
-2.55606
-2.46659
-2.37676
-2.28694
-2.19752
-2.10887
-2.02136
-1.93538
-1.85229
-1.77176
-1.69412
-1.61967
-1.54873
-1.48153
-1.41832
-1.35925
-1.30449
-1.25412
-1.20822
-1.16679
-1.12984
-1.09731
-1.0691
-1.04506
-1.025
-1.00865
-0.995725
-0.985857
-0.97865
-0.973662
-0.970413
-0.9684
-0.967097
-0.965958
-0.964383
-0.961837
-0.95778
-0.951685
-0.943052
-0.931425
-0.916405
-0.897653
-0.874911
-0.848063
-0.816149
-0.779745
-0.739088
-0.694433
-0.646068
-0.594371
-0.539853
-0.483125
-0.424882
-0.365897
-0.307101
-0.249386
-0.193719
-0.141069
-0.0923969
-0.0486346
-0.0106302
0.0208445
0.0451732
0.0618996
0.0707571
0.0709537
0.0629312
0.0471324
0.0240858
-0.00551098
-0.0407308
-0.0804397
-0.123323
-0.167934
-0.212705
-0.256037
-0.296352
-0.332124
-0.361967
-0.384694
-0.3994
-0.405509
-0.399687
-0.384558
-0.360687
-0.328798
-0.289931
-0.245509
-0.197259
-0.147055
-0.0973321
-0.0500982
-0.00743967
0.0287694
0.0569447
0.0759018
0.0849886
0.0832269
0.0716216
0.0511515
0.0231843
-0.010408
-0.0473681
-0.0852937
-0.121381
-0.153347
-0.178998
-0.196612
-0.205054
-0.203897
-0.193039
-0.17377
-0.147627
-0.116733
-0.0836055
-0.0508949
-0.0213146
0.00289802
0.0199347
0.0286995
0.028875
0.0208119
0.00582519
-0.0142823
-0.0372809
-0.0607859
-0.0824412
-0.100372
-0.11328
-0.11951
-0.120489
-0.115383
-0.107915
-0.0989864
-0.0904204
-0.0838227
-0.0805193
-0.081207
-0.0860537
-0.0942094
-0.104457
-0.11514
-0.12441
-0.130583
-0.132092
-0.128207
-0.118756
-0.104306
-0.0861217
-0.0659724
-0.0460032
-0.0283798
-0.0154728
-0.00885729
-0.00962321
-0.0181437
-0.0339965
-0.055996
-0.0822471
-0.110326
-0.137555
-0.161197
-0.178753
-0.188181
-4.23282
-4.23182
-4.22977
-4.2266
-4.22222
-4.21654
-4.20942
-4.20071
-4.19023
-4.17779
-4.16317
-4.14618
-4.12661
-4.10426
-4.07892
-4.05035
-4.01831
-3.98259
-3.94296
-3.89925
-3.85129
-3.79897
-3.74219
-3.68093
-3.6152
-3.54506
-3.47062
-3.39205
-3.30955
-3.22337
-3.13377
-3.04105
-2.94553
-2.84761
-2.74772
-2.64631
-2.54387
-2.44089
-2.33787
-2.2353
-2.13365
-2.03336
-1.93482
-1.83838
-1.74608
-1.65773
-1.57358
-1.49391
-1.41898
-1.34901
-1.28422
-1.22475
-1.17075
-1.12229
-1.07941
-1.0421
-1.01032
-0.983961
-0.962856
-0.94678
-0.935439
-0.928478
-0.925482
-0.925971
-0.929418
-0.935252
-0.942854
-0.951575
-0.960736
-0.969641
-0.977599
-0.983918
-0.987916
-0.988942
-0.986383
-0.979674
-0.968329
-0.951938
-0.930162
-0.902738
-0.869597
-0.830706
-0.786249
-0.736488
-0.681804
-0.622721
-0.559914
-0.494189
-0.426446
-0.35767
-0.288996
-0.22156
-0.15657
-0.0952239
-0.0387197
0.0118025
0.0552983
0.090814
0.117555
0.134935
0.142548
0.139997
0.127617
0.105817
0.0752193
0.0367402
-0.00843036
-0.0588641
-0.112921
-0.168815
-0.224596
-0.278314
-0.328008
-0.371807
-0.407992
-0.435121
-0.452048
-0.457953
-0.451214
-0.433086
-0.404094
-0.36517
-0.317758
-0.26369
-0.205076
-0.143738
-0.0838747
-0.0274076
0.0231702
0.0655874
0.0979394
0.118839
0.127361
0.123188
0.107045
0.0800913
0.0441846
0.00171178
-0.0445221
-0.0917964
-0.136107
-0.174965
-0.205744
-0.226386
-0.235565
-0.232758
-0.218451
-0.193876
-0.161088
-0.122818
-0.0822246
-0.0424993
-0.00709144
0.0213731
0.040778
0.0498807
0.0483689
0.0371047
0.0176071
-0.00772628
-0.0360818
-0.0646189
-0.0901301
-0.11051
-0.124168
-0.130199
-0.129373
-0.122349
-0.111022
-0.0986778
-0.0871957
-0.0784867
-0.0741299
-0.0749401
-0.0808786
-0.0910343
-0.103816
-0.117158
-0.128818
-0.136952
-0.139404
-0.13554
-0.12516
-0.108946
-0.0883923
-0.065571
-0.0429099
-0.0228057
-0.00811956
-0.000497673
-0.00112926
-0.0103804
-0.0277791
-0.0518893
-0.0806566
-0.111447
-0.14127
-0.167153
-0.186361
-0.196694
-4.43051
-4.43067
-4.43096
-4.4313
-4.43157
-4.4316
-4.43115
-4.42993
-4.42762
-4.42384
-4.41821
-4.41031
-4.39964
-4.38565
-4.36778
-4.34551
-4.31831
-4.28572
-4.2473
-4.20268
-4.15153
-4.09362
-4.02878
-3.95696
-3.87817
-3.79254
-3.7003
-3.60176
-3.49733
-3.38752
-3.27289
-3.15412
-3.03189
-2.90691
-2.77986
-2.65145
-2.52243
-2.39357
-2.26561
-2.13931
-2.01544
-1.89478
-1.77815
-1.66639
-1.5572
-1.45387
-1.3568
-1.26642
-1.18309
-1.10712
-1.03873
-0.978071
-0.925264
-0.880354
-0.843329
-0.814101
-0.792519
-0.77834
-0.771214
-0.770699
-0.776294
-0.787426
-0.803458
-0.823678
-0.847315
-0.873556
-0.90153
-0.930333
-0.959018
-0.98664
-1.01225
-1.03491
-1.05369
-1.06773
-1.07621
-1.07838
-1.07359
-1.06129
-1.04114
-1.01277
-0.976298
-0.931672
-0.879075
-0.818876
-0.751639
-0.678144
-0.599353
-0.516395
-0.43054
-0.343162
-0.255809
-0.170052
-0.0875379
-0.00990149
0.06123
0.124309
0.177929
0.220855
0.252013
0.27055
0.275763
0.267857
0.246977
0.213606
0.168623
0.113349
0.0494486
-0.021116
-0.0961066
-0.173068
-0.249364
-0.322375
-0.389466
-0.448111
-0.49604
-0.531281
-0.552199
-0.55767
-0.548712
-0.52416
-0.484833
-0.432218
-0.368488
-0.296328
-0.218961
-0.134958
-0.0569997
0.0163569
0.0815028
0.135308
0.175185
0.199307
0.20671
0.197494
0.172301
0.132835
0.0818096
0.0226204
-0.0408365
-0.10571
-0.165088
-0.216565
-0.256615
-0.282553
-0.292767
-0.286701
-0.26539
-0.230509
-0.18508
-0.132927
-0.0784017
-0.0256001
0.0204124
0.0565072
0.0799814
0.0893487
0.0844937
0.0667676
0.0385402
0.00329207
-0.0349344
-0.0732055
-0.105615
-0.130412
-0.145566
-0.150707
-0.146482
-0.134508
-0.115779
-0.0973409
-0.0805245
-0.0679821
-0.06179
-0.0629322
-0.0710987
-0.0850814
-0.102632
-0.120954
-0.137169
-0.148441
-0.152723
-0.148865
-0.136741
-0.117309
-0.0924718
-0.064852
-0.0374119
-0.01286
0.00494603
0.0142821
0.0138313
0.0032499
-0.0168238
-0.0446971
-0.0779108
-0.113413
-0.147779
-0.177573
-0.199645
-0.211566
-4.60415
-4.60721
-4.61335
-4.62249
-4.63441
-4.64881
-4.66526
-4.68319
-4.7019
-4.72054
-4.73801
-4.75306
-4.76445
-4.7711
-4.77206
-4.76637
-4.75302
-4.73103
-4.69949
-4.65759
-4.60465
-4.5402
-4.46392
-4.37575
-4.27584
-4.16458
-4.04262
-3.91079
-3.77011
-3.62164
-3.46638
-3.30538
-3.13985
-2.97104
-2.80027
-2.62878
-2.45781
-2.2885
-2.12196
-1.95922
-1.8012
-1.64876
-1.5026
-1.36325
-1.23073
-1.11043
-1.00066
-0.90121
-0.81212
-0.733517
-0.665556
-0.608346
-0.561948
-0.526367
-0.501502
-0.487158
-0.483026
-0.488676
-0.503576
-0.527069
-0.558403
-0.596727
-0.64111
-0.690515
-0.743846
-0.799933
-0.857556
-0.915442
-0.972287
-1.02678
-1.0776
-1.12347
-1.16313
-1.19544
-1.21929
-1.23369
-1.23778
-1.23084
-1.21234
-1.18167
-1.13933
-1.08529
-1.01984
-0.943533
-0.857257
-0.762126
-0.659517
-0.551039
-0.438459
-0.323733
-0.209019
-0.0965007
0.011537
0.112838
0.205165
0.286383
0.354572
0.407996
0.445249
0.46517
0.467071
0.450975
0.417225
0.366603
0.300447
0.220628
0.129479
0.0297255
-0.0755466
-0.183053
-0.288917
-0.38965
-0.481686
-0.561605
-0.626331
-0.673221
-0.700336
-0.70629
-0.691872
-0.656375
-0.600844
-0.527424
-0.439136
-0.339658
-0.233143
-0.123075
-0.0171503
0.0811908
0.16738
0.237356
0.287766
0.316191
0.321474
0.304128
0.26509
0.206972
0.133624
0.049805
-0.03918
-0.127556
-0.209011
-0.278549
-0.331593
-0.364675
-0.375787
-0.364455
-0.332245
-0.281939
-0.217864
-0.145392
-0.0704924
0.000385489
0.0615656
0.108277
0.13713
0.146384
0.135979
0.108279
0.0669785
0.0169979
-0.0361806
-0.0867594
-0.129467
-0.160477
-0.177438
-0.180574
-0.17083
-0.151647
-0.12117
-0.094407
-0.0699299
-0.0519663
-0.0433213
-0.0451462
-0.0568042
-0.0764527
-0.100904
-0.126334
-0.148962
-0.164804
-0.171473
-0.167507
-0.152879
-0.128887
-0.09809
-0.0639022
-0.0300399
0.00083347
0.0226938
0.0342455
0.0339827
0.0215484
-0.00216483
-0.0351104
-0.0742925
-0.11608
-0.15649
-0.191456
-0.217297
-0.231403
-4.69818
-4.70713
-4.72518
-4.75228
-4.78822
-4.83249
-4.88428
-4.94224
-5.00478
-5.07
-5.13585
-5.20005
-5.26021
-5.31363
-5.35751
-5.38929
-5.40673
-5.40791
-5.39128
-5.35566
-5.30024
-5.22452
-5.12834
-5.0119
-4.87581
-4.72115
-4.54949
-4.36273
-4.163
-3.95229
-3.73258
-3.50612
-3.27517
-3.04188
-2.80829
-2.57626
-2.34757
-2.12382
-1.90648
-1.6969
-1.49637
-1.30612
-1.12729
-0.96094
-0.808679
-0.668419
-0.541568
-0.429016
-0.331292
-0.248706
-0.18139
-0.129385
-0.0926132
-0.0708588
-0.0637972
-0.0709404
-0.0916433
-0.125137
-0.17056
-0.226935
-0.293173
-0.368052
-0.450251
-0.538336
-0.630775
-0.725968
-0.822255
-0.917907
-1.01114
-1.10015
-1.18321
-1.2586
-1.32461
-1.3797
-1.42247
-1.45167
-1.46625
-1.46543
-1.44876
-1.41314
-1.36168
-1.29406
-1.21062
-1.11222
-1.00008
-0.87578
-0.741235
-0.598685
-0.450582
-0.299631
-0.148801
-0.00108364
0.140404
0.272601
0.392511
0.497287
0.584353
0.651499
0.696959
0.719209
0.71506
0.687218
0.635943
0.562286
0.468091
0.355921
0.228967
0.0909862
-0.0537543
-0.201197
-0.345368
-0.481962
-0.606114
-0.713297
-0.799358
-0.860987
-0.89552
-0.901098
-0.878834
-0.828079
-0.750513
-0.649257
-0.528444
-0.393169
-0.249233
-0.102742
0.038678
0.168982
0.281995
0.372362
0.435738
0.469049
0.470808
0.441893
0.383959
0.300818
0.197872
0.0817253
-0.0403518
-0.16005
-0.269656
-0.362047
-0.431202
-0.472838
-0.484546
-0.46522
-0.417928
-0.346866
-0.258063
-0.158902
-0.0574888
0.0370146
0.117374
0.177159
0.212105
0.220475
0.201884
0.160531
0.101691
0.0322652
-0.0402306
-0.107439
-0.162874
-0.201349
-0.220045
-0.219497
-0.201331
-0.16999
-0.129581
-0.089725
-0.054887
-0.0300093
-0.0184682
-0.0215117
-0.0380554
-0.0652606
-0.098712
-0.133255
-0.164154
-0.185721
-0.195247
-0.190991
-0.173039
-0.143266
-0.104997
-0.0626732
-0.0214805
0.0181644
0.0443202
0.0584646
0.0583372
0.0435841
0.0154063
-0.0236655
-0.0700096
-0.119319
-0.166956
-0.20813
-0.23826
-0.25518
-4.39234
-4.41328
-4.4552
-4.51757
-4.59952
-4.69929
-4.81492
-4.94354
-5.08224
-5.22708
-5.37426
-5.5196
-5.65921
-5.78926
-5.9062
-6.00671
-6.08759
-6.1458
-6.17832
-6.18203
-6.15391
-6.09101
-5.99104
-5.85301
-5.67773
-5.46753
-5.22608
-4.95775
-4.6676
-4.36095
-4.04349
-3.71995
-3.39431
-3.06998
-2.74996
-2.43687
-2.13303
-1.84043
-1.56081
-1.29563
-1.04614
-0.813501
-0.598434
-0.401716
-0.223701
-0.0616334
0.0765467
0.194038
0.291518
0.369189
0.427051
0.465205
0.483862
0.483394
0.464329
0.427366
0.373378
0.303389
0.218571
0.120248
0.00989003
-0.110847
-0.240202
-0.376252
-0.516989
-0.660084
-0.803716
-0.945394
-1.08278
-1.21352
-1.33535
-1.44599
-1.54325
-1.62516
-1.68982
-1.73553
-1.76086
-1.76455
-1.74565
-1.70583
-1.6432
-1.55818
-1.45168
-1.32505
-1.18009
-1.01893
-0.844225
-0.659001
-0.466577
-0.27058
-0.0749537
0.116278
0.298934
0.468967
0.622451
0.755652
0.865268
0.94853
1.00355
1.02983
1.01623
0.973259
0.900064
0.797797
0.668839
0.516605
0.345414
0.160298
-0.0330625
-0.22903
-0.420073
-0.600341
-0.763481
-0.903452
-1.01502
-1.09381
-1.13641
-1.1409
-1.10791
-1.03739
-0.931896
-0.795694
-0.63442
-0.454916
-0.264901
-0.07301
0.111602
0.280585
0.425827
0.540324
0.61857
0.656927
0.653343
0.609179
0.527162
0.412581
0.272737
0.116545
-0.0461358
-0.204307
-0.347952
-0.467617
-0.555568
-0.606437
-0.617675
-0.587599
-0.521106
-0.42394
-0.304322
-0.172222
-0.0380405
0.0851744
0.188351
0.263288
0.304532
0.309583
0.281068
0.222414
0.141503
0.0479374
-0.0485515
-0.135972
-0.206404
-0.253289
-0.273337
-0.267267
-0.238177
-0.1924
-0.13679
-0.0819313
-0.0347463
-0.00177594
0.0128335
0.00786088
-0.0150449
-0.0517339
-0.0962325
-0.141556
-0.18283
-0.210869
-0.223617
-0.218833
-0.196804
-0.160067
-0.112909
-0.0608232
-0.00965645
0.0363781
0.0688845
0.0861079
0.08606
0.0685593
0.0352338
-0.0108276
-0.0652628
-0.123037
-0.17882
-0.226978
-0.262377
-0.281286
-3.79281
-3.83684
-3.92597
-4.06075
-4.24118
-4.46546
-4.73133
-5.03326
-5.36484
-5.71627
-6.07845
-6.44107
-6.79269
-7.12063
-7.41293
-7.65847
-7.84837
-7.97589
-8.03672
-8.02865
-7.9518
-7.80784
-7.60086
-7.3343
-7.01342
-6.64253
-6.22969
-5.78386
-5.32
-4.84934
-4.37825
-3.91176
-3.45454
-3.01035
-2.58217
-2.17223
-1.7823
-1.41376
-1.06777
-0.745132
-0.44679
-0.173243
0.0748199
0.296843
0.492265
0.661611
0.808058
0.929102
1.02431
1.09367
1.1375
1.1562
1.15033
1.12065
1.06801
0.993453
0.898142
0.783423
0.650828
0.502073
0.339053
0.163884
-0.0211672
-0.213625
-0.410903
-0.610282
-0.808956
-1.00401
-1.19243
-1.37125
-1.53755
-1.68848
-1.82126
-1.93333
-2.02242
-2.08634
-2.12347
-2.13238
-2.11181
-2.06277
-1.98427
-1.87679
-1.74157
-1.58036
-1.39553
-1.18994
-0.967037
-0.730788
-0.485545
-0.236027
0.0126335
0.255246
0.48642
0.700865
0.893467
1.05943
1.1944
1.29448
1.35647
1.37754
1.36167
1.3038
1.20558
1.06961
0.899448
0.699778
0.47628
0.235549
-0.015079
-0.267693
-0.513693
-0.74486
-0.95315
-1.13097
-1.27162
-1.36953
-1.4207
-1.42285
-1.37608
-1.28128
-1.14208
-0.964072
-0.754654
-0.522772
-0.27847
-0.0331285
0.201925
0.415754
0.598097
0.740046
0.834633
0.877445
0.866656
0.803549
0.692332
0.540064
0.356339
0.152825
-0.0578513
-0.261051
-0.444101
-0.594989
-0.703969
-0.764144
-0.771728
-0.729706
-0.640085
-0.511504
-0.355258
-0.184479
-0.0110947
0.14521
0.274441
0.366318
0.414104
0.415419
0.372911
0.292737
0.185195
0.0629482
-0.0619828
-0.172739
-0.260137
-0.316041
-0.336711
-0.323218
-0.280537
-0.217282
-0.142999
-0.0706089
-0.00928273
0.032695
0.0503728
0.0426042
0.0118491
-0.0362174
-0.0937898
-0.152244
-0.203804
-0.239742
-0.256057
-0.250469
-0.22363
-0.178873
-0.121619
-0.0586266
0.0031287
0.0570867
0.0960297
0.116482
0.116388
0.0957723
0.0567027
0.00298955
-0.0602466
-0.127131
-0.191652
-0.247915
-0.287995
-0.309431
-2.01675
-2.09987
-2.26419
-2.51475
-2.84873
-3.26029
-3.74958
-4.29406
-4.89481
-5.50108
-6.09149
-6.65309
-7.17244
-7.63494
-8.03475
-8.37082
-8.64445
-8.85496
-9.00031
-9.07595
-9.07553
-8.99164
-8.81717
-8.54532
-8.17639
-7.70765
-7.15167
-6.52142
-5.86694
-5.20659
-4.56061
-3.93382
-3.33252
-2.75936
-2.21681
-1.70672
-1.23051
-0.788883
-0.38188
-0.00941158
0.329096
0.634493
0.907346
1.14846
1.35964
1.54387
1.67949
1.78759
1.86713
1.91733
1.93792
1.92908
1.89129
1.8253
1.73208
1.61285
1.46904
1.30231
1.11455
0.907889
0.684669
0.447532
0.199288
-0.056991
-0.318101
-0.580672
-0.841179
-1.09601
-1.34144
-1.57377
-1.78941
-1.98482
-2.15659
-2.30161
-2.41697
-2.50019
-2.5491
-2.56215
-2.53828
-2.47747
-2.37945
-2.24502
-2.07579
-1.87404
-1.64277
-1.38566
-1.10711
-0.812164
-0.506325
-0.195553
0.113638
0.414747
0.701014
0.965819
1.20272
1.40571
1.56937
1.68892
1.76033
1.78023
1.75503
1.67725
1.54906
1.37381
1.15611
0.901998
0.618716
0.314625
-0.000984755
-0.317924
-0.625839
-0.914323
-1.1732
-1.39312
-1.56574
-1.68445
-1.74427
-1.74237
-1.6789
-1.55563
-1.37726
-1.15104
-0.886441
-0.594766
-0.288701
0.017222
0.309113
0.573224
0.796793
0.968879
1.08103
1.12783
1.10748
1.02178
0.876437
0.680657
0.446671
0.189127
-0.0763514
-0.330371
-0.557467
-0.742914
-0.87479
-0.944827
-0.949325
-0.890269
-0.772837
-0.607671
-0.409355
-0.195427
0.0243887
0.216736
0.374778
0.484965
0.539149
0.534855
0.475526
0.369934
0.231481
0.0764746
-0.0810745
-0.217676
-0.323638
-0.388848
-0.40917
-0.386323
-0.327413
-0.243745
-0.147816
-0.055597
0.0214266
0.0730868
0.0936384
0.082121
0.04208
-0.0190913
-0.0914689
-0.164431
-0.227594
-0.271954
-0.291962
-0.285239
-0.2529
-0.199221
-0.130901
-0.0561045
0.0168396
0.0796604
0.125182
0.148887
0.148574
0.124505
0.0792546
0.0173937
-0.0551197
-0.131448
-0.20621
-0.269145
-0.314711
-0.338889
0.634669
0.486499
0.174981
-0.281724
-0.88926
-1.63354
-2.5312
-3.5424
-4.64425
-5.76553
-6.89669
-7.99392
-9.0397
-10.0172
-10.9084
-11.6941
-12.3509
-12.8199
-13.0844
-13.1453
-13.009
-12.691
-12.2108
-11.5844
-10.8268
-9.94894
-8.93856
-7.76356
-6.62211
-5.59953
-4.65036
-3.77636
-2.97689
-2.24966
-1.58941
-0.990269
-0.446457
0.0469419
0.493675
0.89646
1.25742
1.57776
1.85861
2.10049
2.30258
2.46258
2.60691
2.7114
2.77766
2.80715
2.80094
2.75995
2.68509
2.57738
2.43804
2.2685
2.07046
1.84589
1.59705
1.32649
1.03703
0.731846
0.414355
0.0882741
-0.24253
-0.573963
-0.901741
-1.22148
-1.52869
-1.81886
-2.08766
-2.33082
-2.54418
-2.72402
-2.86694
-2.96988
-3.03039
-3.04655
-3.01731
-2.94217
-2.82133
-2.65591
-2.44795
-2.20032
-1.91681
-1.60194
-1.26122
-0.900883
-0.527701
-0.14896
0.227215
0.592884
0.939799
1.2599
1.54537
1.78889
1.98394
2.12486
2.20727
2.22821
2.18901
2.0871
1.92441
1.70481
1.43396
1.11927
0.769736
0.395648
0.00838931
-0.379442
-0.755273
-1.10629
-1.42025
-1.68568
-1.89266
-2.03308
-2.10116
-2.09383
-2.01093
-1.85529
-1.63294
-1.35286
-1.02687
-0.669009
-0.2948
0.0777694
0.431903
0.750793
1.01894
1.2232
1.35352
1.40381
1.37151
1.25978
1.07593
0.83149
0.54168
0.224355
-0.102024
-0.411665
-0.686531
-0.909116
-1.06518
-1.14499
-1.14453
-1.06587
-0.916673
-0.710232
-0.464559
-0.200439
0.0642215
0.298304
0.487834
0.617372
0.677515
0.66577
0.586886
0.452306
0.278916
0.0864914
-0.104471
-0.270178
-0.396038
-0.470573
-0.489422
-0.455328
-0.377721
-0.271018
-0.150903
-0.0369331
0.0569992
0.118762
0.141853
0.125652
0.0749903
-0.000780704
-0.0894056
-0.17801
-0.253826
-0.306942
-0.33063
-0.322414
-0.28397
-0.220635
-0.140518
-0.0532456
0.0313408
0.10355
0.155729
0.18263
0.181916
0.15412
0.102375
0.0320331
-0.0500281
-0.135675
-0.221499
-0.290973
-0.342041
-0.369021
4.89118
4.69464
4.30123
3.67859
2.7757
1.50121
-0.0779535
-2.08744
-5.64313
-7.86985
-9.66208
-11.2127
-12.5303
-13.6196
-14.5064
-15.2232
-15.7291
-16.069
-16.2643
-16.3148
-16.2045
-15.9325
-15.4734
-14.7602
-13.7563
-12.7605
-11.4219
-8.0229
-6.50015
-5.16003
-4.01637
-3.00909
-2.12508
-1.339
-0.634187
-0.00135172
0.567652
1.07915
1.53807
1.94829
2.31293
2.63401
2.91296
3.15052
3.34753
3.50486
3.62473
3.70494
3.74542
3.74608
3.70716
3.62918
3.5129
3.35931
3.16971
2.94566
2.68912
2.40237
2.08801
1.74904
1.38877
1.01097
0.619652
0.219227
-0.185713
-0.590303
-0.989453
-1.37796
-1.75048
-2.10166
-2.42639
-2.71959
-2.97638
-3.19235
-3.36351
-3.48627
-3.55786
-3.57622
-3.53945
-3.4476
-3.30102
-3.10112
-2.85041
-2.55245
-2.2118
-1.83405
-1.4258
-0.994606
-0.548628
-0.0964524
0.351885
0.786941
1.19891
1.57819
1.91547
2.20207
2.43032
2.59362
2.68699
2.70711
2.65318
2.52475
2.32421
2.05623
1.7276
1.34731
0.926214
0.476704
0.0125149
-0.451301
-0.899749
-1.31749
-1.68991
-2.00345
-2.24634
-2.4091
-2.48503
-2.47065
-2.36592
-2.17459
-1.90408
-1.56548
-1.1731
-0.743785
-0.296317
0.147659
0.56827
0.945377
1.26059
1.49842
1.6471
1.69976
1.65362
1.51296
1.28685
0.989442
0.639477
0.258319
-0.135367
-0.503679
-0.829
-1.0906
-1.27162
-1.36079
-1.35365
-1.25302
-1.06873
-0.817154
-0.520113
-0.202293
0.11094
0.389057
0.611724
0.761162
0.826641
0.805762
0.704835
0.538197
0.326608
0.0939782
-0.133264
-0.32959
-0.476103
-0.55974
-0.57596
-0.528839
-0.430356
-0.298411
-0.152074
-0.0148683
0.0968222
0.168871
0.194078
0.172303
0.109849
0.0182592
-0.0877373
-0.192845
-0.281996
-0.34405
-0.371311
-0.361247
-0.316199
-0.24266
-0.150215
-0.0500916
0.0464469
0.128266
0.187081
0.217065
0.215772
0.184052
0.125609
0.0466283
-0.0451573
-0.14157
-0.235443
-0.312863
-0.36951
-0.399942
10.8794
10.6299
10.1167
9.28317
8.08944
6.61444
4.8549
2.38112
-2.08596
-5.0194
-7.65715
-9.96469
-11.9503
-13.6286
-15.0134
-16.0912
-16.9383
-17.5698
-17.9699
-18.1215
-18.0204
-17.6213
-16.9136
-15.8972
-14.5574
-12.8776
-10.8704
-7.79235
-5.82904
-4.16826
-2.84525
-1.77622
-0.863734
-0.0821542
0.605082
1.21417
1.75999
2.25075
2.69224
3.08802
3.44011
3.74964
4.01711
4.24284
4.42654
4.56807
4.66719
4.72401
4.73739
4.70707
4.63308
4.51573
4.35564
4.15376
3.91141
3.6303
3.31261
2.9609
2.57816
2.16783
1.73375
1.28026
0.812057
0.334255
-0.147788
-0.628399
-1.10164
-1.56145
-2.00159
-2.41584
-2.79823
-3.14287
-3.44409
-3.69681
-3.89638
-4.03871
-4.12049
-4.13926
-4.09388
-3.98348
-3.80878
-3.57158
-3.27495
-2.92314
-2.52163
-2.07703
-1.59719
-1.09105
-0.568281
-0.0385099
0.485648
0.993624
1.47381
1.91499
2.30633
2.63772
2.90026
3.08638
3.19029
3.20818
3.13854
2.98177
2.74082
2.42136
2.0315
1.58187
1.08528
0.556397
0.0112479
-0.532208
-1.0566
-1.54392
-1.97711
-2.34042
-2.62016
-2.80546
-2.88862
-2.86577
-2.73716
-2.50746
-2.18562
-1.78491
-1.32225
-0.817698
-0.293198
0.225622
0.715654
1.15329
1.51717
1.78933
1.95619
2.0094
1.9485
1.77656
1.5051
1.15136
0.738032
0.291561
-0.176825
-0.604534
-0.982031
-1.28387
-1.49019
-1.58812
-1.57285
-1.44818
-1.2261
-0.926445
-0.575098
-0.201094
0.163844
0.487432
0.744176
0.913632
0.98373
0.952219
0.827161
0.625999
0.373709
0.09872
-0.166886
-0.394832
-0.562321
-0.654626
-0.667116
-0.605406
-0.484254
-0.325319
-0.151291
0.0101775
0.140119
0.222416
0.249264
0.221114
0.145932
0.0375833
-0.0865417
-0.208734
-0.31157
-0.382588
-0.413242
-0.401007
-0.348974
-0.264869
-0.159806
-0.0466629
0.0619379
0.153364
0.21869
0.251604
0.249575
0.213803
0.148586
0.0609618
-0.0404395
-0.147481
-0.249434
-0.334534
-0.39664
-0.429871
18.0089
17.9173
17.74
17.494
17.225
16.8647
16.6057
16.1376
-1.70875
-1.16822
-0.800827
-0.2554
0.32005
0.914666
1.4709
2.0235
2.54158
3.026
3.47319
3.88278
4.25404
4.58654
4.87945
5.13179
5.34246
5.51028
5.6341
5.71282
5.74552
5.7313
5.66951
5.55986
5.40241
5.19766
4.94652
4.65035
4.311
3.93086
3.5128
3.06021
2.57697
2.06747
1.53667
0.989941
0.433136
-0.1276
-0.685751
-1.23451
-1.76691
-2.27582
-2.75409
-3.1949
-3.59153
-3.93748
-4.22697
-4.45472
-4.61608
-4.70736
-4.72579
-4.67009
-4.53945
-4.33474
-4.05814
-3.71329
-3.30517
-2.84021
-2.32609
-1.77193
-1.18809
-0.585755
0.0237165
0.626195
1.20926
1.7596
2.2643
2.71095
3.088
3.38528
3.59418
3.70816
3.72288
3.63654
3.44996
3.16682
2.79377
2.3403
1.81887
1.24424
0.633426
0.00494851
-0.620424
-1.22273
-1.78128
-2.27649
-2.69036
-3.00729
-3.21491
-3.30462
-3.27212
-3.11803
-2.84799
-2.47256
-2.00724
-1.47183
-0.889549
-0.285711
0.310047
0.871209
1.37065
1.78394
2.09064
2.27543
2.32938
2.25116
2.04591
1.72685
1.31432
0.835019
0.322506
-0.224266
-0.711578
-1.14257
-1.48525
-1.71683
-1.82282
-1.7982
-1.6478
-1.38603
-1.03623
-0.628627
-0.196847
0.221649
0.591527
0.882705
1.07197
1.14593
1.10253
0.951708
0.714217
0.41945
0.100718
-0.204538
-0.464605
-0.653025
-0.753421
-0.761185
-0.683605
-0.538428
-0.351193
-0.148726
0.0376709
0.186022
0.278342
0.306339
0.271141
0.18254
0.0568233
-0.0859031
-0.225395
-0.342012
-0.42188
-0.455699
-0.441016
-0.381743
-0.286878
-0.169123
-0.0430083
0.0775768
0.178441
0.250074
0.285736
0.282838
0.242954
0.170988
0.0748338
-0.0358425
-0.153357
-0.263283
-0.355719
-0.423102
-0.459058
25.6697
25.6544
25.6352
25.613
25.5555
25.3569
24.9956
24.6612
0.522634
0.880175
1.18031
1.5733
2.0222
2.48226
2.9405
3.39874
3.843
4.2695
4.6729
5.0498
5.39651
5.70977
5.98667
6.22462
6.42111
6.57388
6.68082
6.74009
6.75003
6.70928
6.61685
6.47217
6.2751
6.02603
5.72582
5.37591
4.97829
4.5356
4.05102
3.52833
2.9719
2.38665
1.77821
1.15261
0.516464
-0.12328
-0.759245
-1.38374
-1.98889
-2.56663
-3.10891
-3.60802
-4.05638
-4.4467
-4.77248
-5.0278
-5.20749
-5.30746
-5.3247
-5.25751
-5.10539
-4.8694
-4.55206
-4.15759
-3.69175
-3.16189
-2.57681
-1.94693
-1.28403
-0.600809
0.0892831
0.771174
1.43023
2.05141
2.62016
3.12244
3.54526
3.87718
4.10854
4.23203
4.24284
4.13901
3.9217
3.59528
3.16747
2.64918
2.05463
1.40075
0.706905
-0.00593154
-0.714091
-1.395
-2.02525
-2.58272
-3.04712
-3.40099
-3.63048
-3.72603
-3.68291
-3.50221
-3.19057
-2.76025
-2.22905
-1.61963
-0.958357
-0.27437
0.399185
1.03202
1.59352
2.05619
2.39712
2.59924
2.65285
2.55647
2.31661
1.94866
1.47582
0.928376
0.341054
-0.266935
-0.821986
-1.30761
-1.69119
-1.94757
-2.0609
-2.0259
-1.84865
-1.54601
-1.14489
-0.679952
-0.189771
0.283048
0.699364
1.02481
1.2334
1.31048
1.25419
1.07648
0.801506
0.463234
0.100164
-0.245328
-0.537531
-0.746524
-0.854353
-0.856534
-0.762137
-0.592042
-0.375825
-0.144392
0.0670289
0.233639
0.335617
0.364276
0.321509
0.219045
0.0756525
-0.0858145
-0.242553
-0.372819
-0.4613
-0.498026
-0.480672
-0.414025
-0.308387
-0.178039
-0.0391453
0.0931204
0.20315
0.280822
0.319036
0.31516
0.271171
0.192567
0.0881037
-0.0314605
-0.159126
-0.276767
-0.376193
-0.448689
-0.487191
31.8921
31.8448
31.7389
31.5664
31.3763
31.4099
31.4304
31.3304
2.44765
2.65991
2.85568
3.13678
3.47317
3.85092
4.23761
4.63691
5.03435
5.42391
5.79874
6.15345
6.48287
6.78234
7.04756
7.27466
7.46003
7.6004
7.69283
7.7347
7.72377
7.65823
7.53672
7.3584
7.12296
6.83068
6.48244
6.07976
5.62477
5.12038
4.5701
3.97812
3.34929
2.68909
2.00378
1.3001
0.585414
-0.13253
-0.84549
-1.54488
-2.22193
-2.86763
-3.47301
-4.02951
-4.52869
-4.96246
-5.3236
-5.6056
-5.80274
-5.91053
-5.92569
-5.8463
-5.672
-5.40404
-5.04535
-4.60075
-4.07673
-3.48161
-2.8253
-2.11953
-1.37751
-0.613491
0.157256
0.918273
1.65299
2.34464
2.97697
3.53439
4.00244
4.36842
4.62164
4.75404
4.76037
4.63854
4.39007
4.01997
3.53708
2.95378
2.28604
1.55294
0.776207
-0.0207699
-0.81131
-1.57034
-2.2717
-2.89077
-3.40502
-3.79504
-4.04568
-4.14638
-4.09192
-3.88397
-3.53022
-3.04462
-2.44731
-1.76375
-1.02383
-0.259457
0.491314
1.19527
1.81819
2.32953
2.7039
2.92258
2.97503
2.8598
2.58478
2.16735
1.63384
1.01807
0.358145
-0.314357
-0.934744
-1.47448
-1.89831
-2.17878
-2.29865
-2.25255
-2.04778
-1.70376
-1.25101
-0.728709
-0.180117
0.346768
0.809017
1.16811
1.39534
1.47485
1.40493
1.1997
0.886764
0.504735
0.0972389
-0.288345
-0.612243
-0.841197
-0.95576
-0.95166
-0.839837
-0.644351
-0.398934
-0.13857
0.0976427
0.282105
0.393265
0.422142
0.371436
0.254909
0.0938185
-0.0862335
-0.259947
-0.403525
-0.500286
-0.539648
-0.519454
-0.445421
-0.32914
-0.186466
-0.0351957
0.108428
0.227203
0.310595
0.351157
0.346222
0.298196
0.213141
0.100648
-0.0272049
-0.16486
-0.28972
-0.395773
-0.47305
-0.514028
37.6028
37.5877
37.5642
37.5493
37.5707
37.4914
37.4507
37.3996
3.91786
4.06643
4.22817
4.44638
4.72311
5.04356
5.38465
5.74506
6.11201
6.47825
6.83577
7.1777
7.49763
7.78971
8.04855
8.26923
8.44724
8.5785
8.6593
8.68638
8.65691
8.56868
8.42004
8.20991
7.93783
7.60403
7.20939
6.75553
6.24479
5.68031
5.06597
4.40637
3.70682
2.97338
2.21295
1.43294
0.641471
-0.152905
-0.941098
-1.71365
-2.46088
-3.17286
-3.83973
-4.45205
-5.00058
-5.4764
-5.87165
-6.17917
-6.39276
-6.50755
-6.51996
-6.42789
-6.23109
-5.93104
-5.53108
-5.03659
-4.45483
-3.79505
-3.06826
-2.28752
-1.46744
-0.623778
0.226461
1.06528
1.87432
2.63511
3.32976
3.9411
4.45327
4.85234
5.12659
5.26728
5.26869
5.12867
4.84902
4.43554
3.89808
3.25046
2.51047
1.69926
0.840885
-0.0387468
-0.91025
-1.74591
-2.5169
-3.19614
-3.75892
-4.18397
-4.45479
-4.56004
-4.49372
-4.25835
-3.86264
-3.32218
-2.6594
-1.9027
-1.08518
-0.241962
0.584714
1.35836
2.04131
2.6
3.00671
3.24101
3.29165
3.15727
2.847
2.38042
1.78681
1.10365
0.373075
-0.364747
-1.04821
-1.6407
-2.10362
-2.40717
-2.53284
-2.47512
-2.24265
-1.85738
-1.35343
-0.774426
-0.168501
0.411586
0.918717
1.31045
1.55548
1.63679
1.5528
1.3199
0.969097
0.543664
0.0922612
-0.332698
-0.687464
-0.93557
-1.05616
-1.04525
-0.915712
-0.694805
-0.420299
-0.131586
0.12892
0.330625
0.450415
0.479125
0.42026
0.289688
0.111134
-0.0871204
-0.277306
-0.433727
-0.538359
-0.580085
-0.556942
-0.475612
-0.348951
-0.19435
-0.0312092
0.123326
0.250364
0.339129
0.381835
0.375792
0.323842
0.232575
0.112396
-0.0237408
-0.169889
-0.302015
-0.414329
-0.496085
-0.539402
42.6969
42.6898
42.6773
42.6588
42.6409
42.607
42.5864
42.5578
5.06168
5.18419
5.32676
5.51896
5.76688
6.05991
6.37881
6.72035
7.0728
7.42864
7.77936
8.11722
8.43491
8.72565
8.98317
9.20173
9.37608
9.50147
9.57355
9.58847
9.54281
9.4341
9.26044
9.02054
8.71385
8.34054
7.90154
7.3986
6.83423
6.21189
5.53576
4.81087
4.04303
3.23881
2.40576
1.55196
0.686253
-0.182009
-1.04291
-1.88615
-2.70114
-3.47708
-4.20322
-4.86928
-5.46521
-5.98136
-6.40915
-6.74089
-6.96986
-7.09088
-7.10005
-6.99507
-6.77583
-6.44404
-6.00344
-5.46
-4.82168
-4.09866
-3.30305
-2.44914
-1.553
-0.631806
0.295794
1.21021
2.0914
2.91924
3.67423
4.33771
4.89246
5.32335
5.61764
5.76591
5.76215
5.604
5.29362
4.83759
4.24673
3.5363
2.72583
1.83855
0.900728
-0.0591281
-1.00927
-1.91922
-2.75759
-3.49497
-4.10447
-4.56307
-4.85304
-4.96233
-4.88379
-4.62124
-4.18426
-3.59006
-2.86335
-2.03538
-1.14209
-0.222565
0.677872
1.51902
2.25997
2.86426
3.3019
3.55084
3.59914
3.44559
3.10055
2.58571
1.93335
1.18452
0.385688
-0.416516
-1.16072
-1.80407
-2.30454
-2.62999
-2.76072
-2.69114
-2.4312
-2.00536
-1.45132
-0.816997
-0.155236
0.476417
1.0269
1.44998
1.71182
1.79441
1.69616
1.43583
1.04778
0.579782
0.0857175
-0.377556
-0.762058
-1.02835
-1.15429
-1.13621
-0.988965
-0.742955
-0.439976
-0.123613
0.160324
0.378506
0.506326
0.534544
0.467438
0.323046
0.127471
-0.0884303
-0.294385
-0.463083
-0.575128
-0.618954
-0.592809
-0.504361
-0.36769
-0.201648
-0.0272217
0.137649
0.272453
0.366228
0.410881
0.404045
0.347982
0.250794
0.123307
-0.0210679
-0.174174
-0.31359
-0.431778
-0.51771
-0.563207
47.2262
47.2241
47.2181
47.2087
47.1936
47.1719
47.1606
47.1402
6.00892
6.08952
6.23202
6.41308
6.64831
6.92928
7.23959
7.57494
7.92425
8.27956
8.63189
8.97284
9.29433
9.58882
9.84931
10.0694
10.2434
10.3657
10.4317
10.4369
10.3773
10.2503
10.0537
9.78613
9.44699
9.0364
8.55536
8.00574
7.39029
6.71272
5.97758
5.19027
4.3571
3.48516
2.58258
1.65814
0.721363
-0.217622
-1.14811
-2.05898
-2.9388
-3.77586
-4.55857
-5.27589
-5.91696
-6.4714
-6.93001
-7.28452
-7.52777
-7.65431
-7.65993
-7.54198
-7.30069
-6.9379
-6.4578
-5.8669
-5.17384
-4.38966
-3.52757
-2.60308
-1.63362
-0.637759
0.364301
1.35138
2.30187
3.19405
4.00689
4.72027
5.31569
5.77688
6.09009
6.24526
6.23623
6.06023
5.71994
5.2226
4.58013
3.80905
2.93064
1.97002
0.955831
-0.0813933
-1.10693
-2.08816
-2.99108
-3.78406
-4.43814
-4.92856
-5.23649
-5.34948
-5.25847
-4.96937
-4.4923
-3.84609
-3.05767
-2.16084
-1.19467
-0.201782