/*--------------------------------*- C++ -*----------------------------------*\
  =========                 |
  \\      /  F ield         | OpenFOAM: The Open Source CFD Toolbox
   \\    /   O peration     | Website:  https://openfoam.org
    \\  /    A nd           | Version:  12
     \\/     M anipulation  |
\*---------------------------------------------------------------------------*/
FoamFile
{
    format      ascii;
    class       surfaceScalarField;
    location    "10";
    object      phi;
}
// * * * * * * * * * * * * * * * * * * * * * * * * * * * * * * * * * * * * * //

dimensions      [1 0 -1 0 0 0 0];

internalField   nonuniform List<scalar> 
7429
(
0.000162716
-0.000162716
0.000328329
-0.000165613
0.000496079
-0.00016775
0.000666118
-0.000170039
0.000838636
-0.000172518
0.00101389
-0.000175251
0.00119215
-0.000178264
0.00137363
-0.000181479
0.00155824
-0.000184612
0.00174588
-0.000187639
0.00193641
-0.000190528
0.00212969
-0.000193277
0.00232558
-0.000195888
0.00252387
-0.000198294
0.00272439
-0.000200518
0.00292688
-0.000202492
0.00313111
-0.000204225
0.00333679
-0.000205688
0.00354368
-0.000206885
0.00375143
-0.000207754
0.00395971
-0.000208273
0.00416809
-0.000208383
0.00437613
-0.000208042
0.00458333
-0.000207197
0.00478912
-0.000205795
0.00499285
-0.000203721
0.00519382
-0.000200973
0.00539128
-0.000197461
0.00558437
-0.000193095
0.00577222
-0.000187848
0.00595383
-0.000181609
0.00612817
-0.000174338
0.0062942
-0.000166029
0.00645075
-0.000156551
0.00659663
-0.000145883
0.00673036
-0.000133723
0.00685118
-0.000120827
0.00695885
-0.000107667
0.00705241
-9.3562e-05
0.0071309
-7.84904e-05
0.00719324
-6.23325e-05
0.00723828
-4.50407e-05
0.00726485
-2.65733e-05
0.00727161
-6.75623e-06
0.00725327
1.83398e-05
0.00721074
4.25272e-05
0.0071432
6.75378e-05
0.00704988
9.3317e-05
0.00693022
0.000119663
0.00678383
0.000146393
0.00661061
0.000173214
0.0064106
0.000200016
0.00618421
0.000226389
0.00593204
0.000252171
0.00565498
0.000277053
0.00535393
0.000301052
0.00503037
0.000323557
0.00468554
0.000344831
0.0043214
0.000364148
0.0039397
0.000381693
0.00354316
0.000396543
0.00313424
0.00040892
0.00271618
0.000418057
0.00229225
0.000423936
0.00186597
0.000426277
0.00144117
0.0004248
0.00102187
0.000419298
0.000612255
0.000409616
0.000216625
0.00039563
-0.000160705
0.00037733
-0.000515578
0.000354873
-0.000843628
0.00032805
-0.00114077
0.000297141
-0.00140337
0.000262596
-0.00162791
0.000224543
-0.00181125
0.000183342
-0.00195092
0.000139669
-0.00204507
9.41486e-05
-0.00209278
4.77115e-05
-0.00209125
-1.53117e-06
-0.00203769
-5.3563e-05
-0.00193578
-0.000101909
-0.00178853
-0.000147249
-0.00159885
-0.000189682
-0.0013701
-0.000228747
-0.00110632
-0.000263776
-0.000812845
-0.000293479
-0.000495553
-0.000317292
-0.000160719
-0.000334833
0.000184139
-0.000344858
0.000531448
-0.00034731
0.000873162
-0.000341714
0.00120106
-0.000327896
0.00150713
-0.000306075
0.00178335
-0.000276216
0.0020224
-0.000239051
0.00221743
-0.000195027
0.00236287
-0.000145439
0.00245416
-9.12983e-05
0.00248832
-3.41552e-05
0.00245644
3.18826e-05
0.00236187
9.45709e-05
0.00220807
0.000153792
0.00199895
0.000209123
0.00173928
0.000259669
0.00143558
0.000303701
0.00109601
0.000339573
0.000730235
0.000365774
0.000349236
0.000380999
-3.50271e-05
0.000384263
-0.000410154
0.000375127
-0.000763377
0.000353223
-0.00108261
0.000319233
-0.0013563
0.000273695
-0.00157444
0.00021814
-0.00172863
0.000154184
-0.00181319
8.4561e-05
-0.00182504
1.18533e-05
-0.00175454
-7.05053e-05
-0.00161099
-0.000143548
-0.00140103
-0.00020996
-0.00113266
-0.000268367
-0.000816566
-0.000316096
-0.000466022
-0.000350544
-9.66722e-05
-0.00036935
0.000274478
-0.00037115
0.000630347
-0.000355869
0.00095411
-0.000323763
0.00122989
-0.00027578
0.00144416
-0.000214266
0.00158614
-0.000141984
0.00164952
-6.33802e-05
0.00162613
2.33853e-05
0.00151939
0.000106744
0.00133801
0.000181384
0.00109239
0.000245614
0.000796275
0.000296117
0.000467117
0.000329159
0.000124489
0.000342627
-0.000210535
0.000335025
-0.00051793
0.000307394
-0.000779227
0.000261298
-0.000979059
0.000199831
-0.00110628
0.000127225
-0.00115543
4.91454e-05
-0.0011217
-3.37306e-05
-0.00101399
-0.000107706
-0.000843876
-0.000170116
-0.000626513
-0.000217363
-0.000380841
-0.000245672
-0.000127414
-0.000253427
0.000112608
-0.000240022
0.000320183
-0.000207576
0.000479962
-0.000159779
0.000581548
-0.000101586
0.000620877
-3.93285e-05
0.000596974
2.39023e-05
0.000520827
7.61477e-05
0.000405754
0.000115073
0.000268678
0.000137076
0.000128644
0.000140034
4.32609e-06
0.000124317
-8.82569e-05
9.2583e-05
-0.000137766
4.95096e-05
-0.000138037
2.70804e-07
-8.7596e-05
-5.04412e-05
3.50497e-06
-9.1101e-05
0.000124161
-0.000120656
0.000258508
-0.000134347
0.000388862
-0.000130355
0.000498485
-0.000109623
0.000573531
-7.50461e-05
0.000604796
-3.12653e-05
0.000586853
1.79437e-05
0.000522941
6.39114e-05
0.00042113
0.000101811
0.000293091
0.000128038
0.000153254
0.000139837
1.6637e-05
0.000136617
-0.000101709
0.000118346
-0.000191535
8.9826e-05
-0.000245575
5.40398e-05
-0.000261646
1.60715e-05
-0.000241187
-2.04594e-05
-0.000191185
-5.00022e-05
-0.000120514
-7.06702e-05
-3.98302e-05
-8.06842e-05
4.02322e-05
-8.00624e-05
0.000110701
-7.04684e-05
0.000164743
-5.4042e-05
0.000198554
-3.38117e-05
0.000211494
-1.29402e-05
0.000205094
6.40024e-06
0.000184381
2.07134e-05
0.000154005
3.03759e-05
0.000119876
3.41289e-05
8.56069e-05
3.42693e-05
5.4163e-05
3.14439e-05
2.60301e-05
2.81329e-05
2.60301e-05
0.000171904
-0.00033462
0.000348123
-0.000341832
0.000526394
-0.000346021
0.000706673
-0.000350317
0.000888855
-0.000354699
0.00107283
-0.000359226
0.00125846
-0.000363894
0.0014458
-0.000368818
0.00163522
-0.000374028
0.00182718
-0.0003796
0.00202211
-0.000385459
0.00222054
-0.000391711
0.00242297
-0.000398319
0.00262901
-0.000404331
0.0028381
-0.000409603
0.00304968
-0.000414077
0.00326324
-0.000417787
0.00347835
-0.000420789
0.00369453
-0.000423074
0.00391137
-0.000424589
0.0041284
-0.0004253
0.00434511
-0.000425101
0.00456098
-0.000423911
0.00477527
-0.000421483
0.00498726
-0.000417788
0.00519609
-0.000412551
0.00540062
-0.000405498
0.00559979
-0.000396635
0.00579237
-0.000385669
0.00597706
-0.000372538
0.00615327
-0.000357823
0.00632104
-0.000342108
0.00648004
-0.000325027
0.00663002
-0.00030653
0.00677057
-0.000286438
0.00690129
-0.000264438
0.00702086
-0.000240401
0.0071274
-0.00021421
0.00721964
-0.000185798
0.00729624
-0.000155093
0.00735604
-0.000122132
0.00739818
-8.71728e-05
0.00742114
-4.95393e-05
0.00742292
-8.53853e-06
0.00739555
4.57169e-05
0.00734091
9.71668e-05
0.00725915
0.000149295
0.00715019
0.000202272
0.00701387
0.000255987
0.00685013
0.00031013
0.00665891
0.000364441
0.00644051
0.000418408
0.0061951
0.000471807
0.00592332
0.000523949
0.00562585
0.00057452
0.00530358
0.000623327
0.00495785
0.000669279
0.00459007
0.000712612
0.00420217
0.000752057
0.00379615
0.000787704
0.00337468
0.00081802
0.00294064
0.000842961
0.00249721
0.00086148
0.00204825
0.000872897
0.00159747
0.000877053
0.00114901
0.000873264
0.000707201
0.000861107
0.000276511
0.000840306
-0.000138348
0.000810489
-0.000532517
0.000771499
-0.000901562
0.000723918
-0.00124083
0.000667319
-0.00154602
0.00060233
-0.00181318
0.000529755
-0.00203872
0.00045008
-0.00221911
0.000363739
-0.00235209
0.000272646
-0.0024353
0.000177361
-0.00246733
7.97409e-05
-0.00244355
-2.5317e-05
-0.00236758
-0.000129529
-0.00224081
-0.000228678
-0.00206559
-0.00032247
-0.00184443
-0.000410848
-0.00158142
-0.000491756
-0.00128104
-0.000564154
-0.000949376
-0.000625142
-0.000592742
-0.000673926
-0.000218788
-0.000708787
0.000164844
-0.00072849
0.00054964
-0.000732106
0.000926634
-0.000718707
0.0012871
-0.000688361
0.00162208
-0.000641054
0.00192318
-0.000577323
0.00218238
-0.000498251
0.00239226
-0.000404901
0.00254652
-0.000299703
0.00264094
-0.000185716
0.00267163
-6.48429e-05
0.00263148
7.20254e-05
0.00252451
0.000201544
0.00235346
0.000324845
0.00212181
0.000440776
0.00183511
0.000546363
0.00150081
0.000638004
0.00112813
0.000712254
0.000727885
0.000766015
0.000312666
0.000796219
-0.000105088
0.000802016
-0.000511232
0.000781271
-0.000892084
0.000734075
-0.00123457
0.00066172
-0.00152601
0.00056513
-0.00175607
0.000448203
-0.00191598
0.000314095
-0.00199845
0.000167031
-0.00199819
1.15941e-05
-0.00191425
-0.000154449
-0.001752
-0.000305797
-0.00151748
-0.000444482
-0.00121992
-0.000565924
-0.000871586
-0.000664431
-0.000487938
-0.000734192
-8.59226e-05
-0.000771365
0.00031681
-0.000773883
0.000700922
-0.00073998
0.00104776
-0.000670604
0.0013408
-0.000568818
0.00156564
-0.000439107
0.00171108
-0.000287427
0.00176885
-0.000121147
0.00173369
5.8551e-05
0.00161069
0.000229739
0.00140751
0.000384564
0.00113541
0.00051771
0.000811016
0.000620515
0.000452849
0.000687326
8.31327e-05
0.000712344
-0.000275555
0.000693712
-0.000601458
0.000633298
-0.000874648
0.000534487
-0.00107919
0.00040437
-0.00120338
0.000251417
-0.00124171
8.74773e-05
-0.00119188
-8.35662e-05
-0.0010636
-0.000235976
-0.000869238
-0.000364483
-0.000626127
-0.000460474
-0.000355497
-0.000516302
-8.07275e-05
-0.000528196
0.000175606
-0.000496356
0.000393179
-0.000425148
0.000555628
-0.000322228
0.000652272
-0.000198229
0.000679362
-6.64192e-05
0.000638795
6.44698e-05
0.000542017
0.000172925
0.000404347
0.000252743
0.000245267
0.000296156
8.58568e-05
0.000299444
-5.33839e-05
0.000263558
-0.000155233
0.000194432
-0.000207775
0.000102052
-0.000204387
-3.11701e-06
-0.000147303
-0.000107525
-4.52923e-05
-0.000193112
8.7336e-05
-0.000253284
0.000234581
-0.000281592
0.000375835
-0.000271608
0.000493296
-0.000227084
0.000572459
-0.000154209
0.000604168
-6.2974e-05
0.000583851
3.82602e-05
0.000515783
0.00013198
0.000408555
0.00020904
0.00027529
0.000261304
0.000131429
0.000283698
-6.87482e-06
0.000274921
-0.000125471
0.000236942
-0.000212946
0.000177301
-0.000262827
0.00010392
-0.000273348
2.65928e-05
-0.000247559
-4.62488e-05
-0.000192538
-0.000105023
-0.000118209
-0.000145
-3.53012e-05
-0.000163592
4.52817e-05
-0.000160645
0.000114489
-0.000139675
0.000165897
-0.00010545
0.000196088
-6.40024e-05
0.000205005
-2.1857e-05
0.000195515
1.58898e-05
0.000172231
4.39973e-05
0.000140949
6.16576e-05
0.000106483
6.85951e-05
7.39722e-05
6.67801e-05
4.54875e-05
5.99286e-05
2.13183e-05
5.23021e-05
4.73484e-05
0.000128439
-0.000463058
0.000258118
-0.00047151
0.00038874
-0.000476643
0.000520108
-0.000481685
0.000652122
-0.000486713
0.000784832
-0.000491935
0.000918379
-0.000497441
0.00105333
-0.000503767
0.00119055
-0.000511249
0.00133211
-0.000521156
0.00147824
-0.00053159
0.00162665
-0.000540128
0.00177634
-0.000548002
0.0019277
-0.000555695
0.00208135
-0.000563246
0.00223773
-0.000570461
0.00239743
-0.000577488
0.00256099
-0.00058435
0.00272873
-0.000590808
0.00290095
-0.000596808
0.00307784
-0.000602188
0.00325959
-0.000606854
0.00344619
-0.000610511
0.0036376
-0.000612893
0.00383356
-0.00061375
0.00403374
-0.00061273
0.00423751
-0.000609265
0.00444449
-0.000603611
0.00465398
-0.00059516
0.0048653
-0.000583862
0.00507681
-0.00056933
0.00528605
-0.000551354
0.00549055
-0.000529523
0.0056867
-0.000502681
0.00587397
-0.000473709
0.00605313
-0.000443597
0.00622344
-0.000410714
0.0063835
-0.000374263
0.00653128
-0.000333586
0.0066642
-0.000288004
0.00678034
-0.000238277
0.00687687
-0.000183698
0.00695214
-0.000124812
0.00700372
-6.01151e-05
0.00703156
1.78761e-05
0.00703174
9.69856e-05
0.00700222
0.000178816
0.00694123
0.000263257
0.00684744
0.000349782
0.00671993
0.000437632
0.0065582
0.000526174
0.00636184
0.000614765
0.00613116
0.000702492
0.00586626
0.000788848
0.00556782
0.000872963
0.00523687
0.000954269
0.00487502
0.00103114
0.00448376
0.00110387
0.00406594
0.00116987
0.00362433
0.00122931
0.00316209
0.00128026
0.00268336
0.00132169
0.00219202
0.00135283
0.00169293
0.00137199
0.00119041
0.00137957
0.000690089
0.00137359
0.000196856
0.00135434
-0.000283399
0.00132056
-0.000744969
0.00127206
-0.00118229
0.00120882
-0.00159007
0.0011317
-0.00196254
0.00103979
-0.00229434
0.000934133
-0.00258119
0.000816597
-0.00281849
0.000687381
-0.00300238
0.000547637
-0.00312957
0.00039983
-0.00319882
0.000246616
-0.00320667
8.75895e-05
-0.00314838
-8.36092e-05
-0.00303002
-0.000247893
-0.00285316
-0.000405531
-0.00261911
-0.000556522
-0.00233221
-0.000697748
-0.0019963
-0.000827671
-0.0016181
-0.000942352
-0.00120418
-0.00103906
-0.000762597
-0.00111551
-0.00030248
-0.0011689
0.000166732
-0.0011977
0.000634771
-0.00120015
0.00109141
-0.00117535
0.00152573
-0.00112268
0.00192721
-0.00104253
0.00228587
-0.000935986
0.00259236
-0.000804737
0.00283875
-0.000651299
0.00301629
-0.000477244
0.00311943
-0.000288856
0.00314399
-8.94012e-05
0.00308733
0.000128691
0.00295174
0.000337131
0.00273941
0.000537179
0.00245478
0.000725401
0.00210477
0.000896379
0.00169899
0.00104378
0.001249
0.00116225
0.000768118
0.0012469
0.000270771
0.00129357
-0.000226468
0.00129925
-0.000707833
0.00126264
-0.00115702
0.00118326
-0.0015578
0.0010625
-0.00189624
0.000903564
-0.00215927
0.000711232
-0.0023358
0.000490633
-0.00242044
0.000251666
-0.00240291
-5.9353e-06
-0.00229054
-0.00026682
-0.00208544
-0.000510899
-0.00179489
-0.000735028
-0.0014306
-0.000930215
-0.00100863
-0.0010864
-0.000545933
-0.00119689
-6.38719e-05
-0.00125343
0.000413828
-0.00125158
0.00086657
-0.00119272
0.00127198
-0.00107601
0.0016104
-0.00090724
0.00186454
-0.000693244
0.00202253
-0.000445419
0.00207657
-0.000175183
0.00201976
0.000115358
0.00186077
0.000388727
0.0016074
0.00063794
0.00127477
0.000850338
0.000882536
0.00101275
0.000455141
0.00111472
1.79577e-05
0.00114953
-0.000401333
0.001113
-0.000776913
0.00100888
-0.00108607
0.000843639
-0.00131034
0.000628641
-0.00143705
0.000378128
-0.00146014
0.000110574
-0.00138035
-0.000163365
-0.00120942
-0.000406906
-0.000962822
-0.000611076
-0.000662946
-0.00076035
-0.000335799
-0.00084345
-9.1072e-06
-0.000854888
0.000289683
-0.000795146
0.000536316
-0.000671782
0.000712487
-0.000498398
0.000807065
-0.000292808
0.000817082
-7.64361e-05
0.00074634
0.000135212
0.000609749
0.000309516
0.000427276
0.000435217
0.000222898
0.000500534
2.2976e-05
0.000499366
-0.000147433
0.000433967
-0.000269041
0.00031604
-0.000328565
0.000161575
-0.000318731
-1.29511e-05
-0.000245313
-0.000180943
-0.000118765
-0.00031966
4.2429e-05
-0.000414478
0.000219809
-0.000458972
0.000386893
-0.000438692
0.000523575
-0.000363766
0.000613667
-0.0002443
0.000647288
-9.65953e-05
0.00062106
6.44879e-05
0.000540784
0.000212256
0.000417273
0.00033255
0.000266524
0.000412053
0.0001068
0.000443421
-4.382e-05
0.000425541
-0.000169713
0.000362835
-0.000258878
0.000266467
-0.000305122
0.000150164
-0.000308018
2.94882e-05
-0.000271925
-8.23417e-05
-0.000205673
-0.000171275
-0.000120448
-0.000230225
-2.91902e-05
-0.000254849
5.70972e-05
-0.000246933
0.000128566
-0.000211144
0.000178833
-0.000155718
0.000205715
-9.08843e-05
0.000209498
-2.56397e-05
0.000194319
3.1069e-05
0.000165673
7.26428e-05
0.000130409
9.69217e-05
9.42241e-05
0.00010478
6.18668e-05
9.91374e-05
3.57127e-05
8.60826e-05
1.6112e-05
7.19028e-05
6.34604e-05
0.000153444
-0.000616502
0.000311604
-0.000629669
0.000473233
-0.000638272
0.000639068
-0.000647519
0.00080928
-0.000656925
0.000984364
-0.000667019
0.00116303
-0.000676103
0.00134535
-0.000686091
0.00152813
-0.000694029
0.00171013
-0.000703151
0.0018911
-0.000712563
0.0020753
-0.000724326
0.00226234
-0.00073504
0.00245087
-0.000744228
0.0026401
-0.000752475
0.00282976
-0.000760117
0.00301988
-0.000767617
0.00321132
-0.000775787
0.00340562
-0.000785103
0.00360419
-0.000795382
0.00380813
-0.00080613
0.00401869
-0.000817416
0.0042363
-0.000828112
0.00446166
-0.000838252
0.00469322
-0.000845319
0.00493069
-0.00085019
0.00517044
-0.000849024
0.00541067
-0.000843838
0.00564448
-0.000828972
0.00587011
-0.000809486
0.00608825
-0.000787476
0.00630247
-0.00076557
0.00651375
-0.000740803
0.00672339
-0.000712321
0.0069287
-0.00067902
0.00712565
-0.000640544
0.00731109
-0.000596152
0.00748254
-0.000545719
0.0076377
-0.000488741
0.00777501
-0.000425318
0.00789179
-0.000355056
0.00798588
-0.000277789
0.00805518
-0.000194114
0.00810091
-0.000105838
0.0081109
7.88523e-06
0.00807938
0.000128505
0.00801061
0.00024758
0.00790588
0.000367989
0.00776456
0.0004911
0.00758625
0.000615944
0.00737068
0.000741742
0.00711732
0.000868124
0.0068254
0.000994419
0.00649554
0.00111871
0.00612738
0.00124112
0.00572286
0.00135879
0.0052829
0.0014711
0.0048097
0.00157706
0.00430642
0.00167316
0.00377577
0.00175997
0.00322274
0.00183329
0.00265085
0.00189357
0.00206589
0.00193779
0.00147255
0.00196532
0.000877322
0.0019748
0.00028598
0.00196493
-0.000294901
0.00193522
-0.000858738
0.0018844
-0.00139882
0.00181214
-0.00190786
0.00171786
-0.00237955
0.00160339
-0.00280739
0.00146762
-0.00318551
0.00131226
-0.00350747
0.00113855
-0.00376797
0.000947882
-0.00396276
0.000742435
-0.00408849
0.000525559
-0.00414276
0.000300884
-0.00412379
6.86175e-05
-0.00402619
-0.00018121
-0.00385685
-0.000417233
-0.00361672
-0.000645662
-0.00330836
-0.000864882
-0.0029361
-0.00107001
-0.00250639
-0.00125738
-0.00202644
-0.00142231
-0.00150554
-0.00155996
-0.000953123
-0.00166792
-0.000380162
-0.00174187
0.000201232
-0.0017791
0.000778384
-0.0017773
0.00133891
-0.00173587
0.00186946
-0.00165323
0.00235736
-0.00153043
0.00279001
-0.00136864
0.00315699
-0.00117172
0.00344756
-0.000941866
0.00365438
-0.000684059
0.00377028
-0.000404761
0.00379156
-0.00011068
0.00371017
0.000210085
0.00353289
0.000514411
0.00326299
0.00080708
0.00290517
0.00108321
0.00246941
0.00133215
0.00196743
0.00154575
0.00141339
0.00171629
0.000823897
0.00183639
0.00021726
0.0019002
-0.000387048
0.00190356
-0.00096888
0.00184447
-0.0015087
0.00172308
-0.00198683
0.00154063
-0.00238654
0.00130328
-0.00269107
0.00101575
-0.00289171
0.000691274
-0.00297777
0.00033773
-0.00294062
-4.30886e-05
-0.00278828
-0.000419157
-0.00252425
-0.000774933
-0.00215787
-0.00110141
-0.00170385
-0.00138423
-0.00118174
-0.00160851
-0.000615315
-0.00176331
-2.896e-05
-0.00183978
0.000550336
-0.00183088
0.00109469
-0.00173708
0.00157812
-0.00155944
0.00197659
-0.00130572
0.00227011
-0.000986761
0.0024437
-0.000619008
0.00249031
-0.000221798
0.00240477
0.000200897
0.00219569
0.000597814
0.00187443
0.0009592
0.00146018
0.00126459
0.000978506
0.00149442
0.0004579
0.00163533
-6.88368e-05
0.00167626
-0.000569292
0.00161346
-0.00101191
0.00145149
-0.00136916
0.0012009
-0.0016189
0.000878378
-0.00174825
0.000507477
-0.00175201
0.000114332
-0.00163251
-0.000282859
-0.00140398
-0.000635435
-0.00108809
-0.000926965
-0.000712375
-0.00113607
-0.000309677
-0.00124615
8.56309e-05
-0.0012502
0.000440273
-0.00114979
0.000726246
-0.000957754
0.000921454
-0.000693607
0.00101263
-0.000383986
0.000998744
-6.25478e-05
0.000888585
0.000245371
0.000699867
0.000498234
0.000458903
0.00067618
0.000196377
0.00076306
-5.53423e-05
0.000751086
-0.000266448
0.000645073
-0.000412893
0.000462485
-0.000479612
0.000228294
-0.000460329
-3.22344e-05
-0.000363289
-0.000277983
-0.000202249
-0.0004807
-2.56775e-07
-0.000616471
0.000214522
-0.000673751
0.000415044
-0.000639215
0.000576382
-0.000525104
0.000679591
-0.00034751
0.000714785
-0.000131789
0.000679509
9.97645e-05
0.000581721
0.000310043
0.000435682
0.000478589
0.000260818
0.000586918
7.9019e-05
0.00062522
-8.87239e-05
0.000593284
-0.000224845
0.000498956
-0.00031697
0.000358592
-0.000359544
0.000192738
-0.00035263
2.2574e-05
-0.000303616
-0.000131356
-0.000222626
-0.000252265
-0.000123617
-0.000329233
-2.03963e-05
-0.00035807
7.34324e-05
-0.000340762
0.000148319
-0.000286031
0.000198463
-0.000205861
0.000221069
-0.00011349
0.000218696
-2.3267e-05
0.000196413
5.33515e-05
0.000160939
0.000108117
0.00012005
0.000137811
8.08884e-05
0.000143942
4.8353e-05
0.000131673
2.52106e-05
0.000109225
1.00406e-05
8.70728e-05
7.35011e-05
0.000163399
-0.000779901
0.000327531
-0.000793801
0.000489958
-0.000800699
0.000649325
-0.000806885
0.000803523
-0.000811123
0.000953832
-0.000817328
0.0010954
-0.000817668
0.0012263
-0.000816991
0.00133529
-0.000803023
0.00142708
-0.000794938
0.00150001
-0.000785489
0.00155822
-0.000782541
0.00160609
-0.00078291
0.00165107
-0.00078921
0.00169904
-0.000800439
0.00175555
-0.000816627
0.00182486
-0.000836924
0.00190962
-0.000860547
0.00201165
-0.000887141
0.00213121
-0.000914942
0.00226861
-0.000943524
0.00242549
-0.000974302
0.00260166
-0.00100428
0.0027989
-0.00103549
0.00301554
-0.00106196
0.00325275
-0.00108739
0.00350437
-0.00110065
0.00376941
-0.00110888
0.00403758
-0.00109715
0.00431537
-0.00108728
0.00460264
-0.00107474
0.00489759
-0.00106052
0.00519814
-0.00104136
0.00550214
-0.00101632
0.0058068
-0.000983682
0.00610893
-0.000942675
0.00640522
-0.000892441
0.0066918
-0.000832296
0.00696465
-0.000761594
0.00721813
-0.000678789
0.00744742
-0.00058435
0.00764764
-0.000478004
0.00781859
-0.000365064
0.00794343
-0.000230687
0.00804289
-9.15701e-05
0.008102
6.93954e-05
0.00811742
0.000232157
0.00808565
0.000399758
0.00800461
0.00057214
0.00787328
0.000747281
0.00768954
0.000925476
0.00745359
0.00110407
0.00716525
0.00128276
0.00682458
0.00145938
0.00643371
0.00163199
0.00599327
0.00179923
0.00550715
0.00195722
0.00497826
0.00210595
0.00441052
0.00224089
0.00380829
0.00236221
0.00317639
0.00246519
0.00252106
0.0025489
0.00184834
0.00261051
0.00116543
0.00264824
0.000479027
0.0026612
-0.000203016
0.00264697
-0.000872873
0.00260508
-0.00152249
0.00253401
-0.00214297
0.00243263
-0.00272679
0.00230168
-0.00326615
0.00214274
-0.00375193
0.00195341
-0.00417672
0.00173705
-0.0045354
0.00149724
-0.00482148
0.00123396
-0.00502807
0.000949028
-0.00515156
0.000649051
-0.00518798
0.000337298
-0.00512944
1.00809e-05
-0.00498879
-0.000321867
-0.00476145
-0.00064457
-0.00444869
-0.00095842
-0.00405472
-0.00125885
-0.00358554
-0.00153919
-0.00304895
-0.00179396
-0.00245401
-0.00201725
-0.00181209
-0.00220188
-0.00113552
-0.00234449
-0.000436685
-0.0024407
0.000269532
-0.00248531
0.000968148
-0.00247591
0.00164418
-0.00241191
0.00228169
-0.00229074
0.00286544
-0.00211418
0.00338045
-0.00188365
0.00381324
-0.00160451
0.00415299
-0.00128162
0.00438992
-0.000920985
0.00451488
-0.000529725
0.00452063
-0.000116424
0.0044117
0.00031901
0.00418726
0.000738855
0.00384988
0.00114446
0.0034089
0.00152419
0.00287487
0.00186618
0.00226263
0.002158
0.00159028
0.00238864
0.000877762
0.00254891
0.00014742
0.00263055
-0.000577152
0.00262814
-0.00127168
0.002539
-0.00191156
0.00236296
-0.00247674
0.00210581
-0.00294282
0.00176935
-0.00329553
0.00136846
-0.00351893
0.000914674
-0.00360141
0.000420214
-0.00354135
-0.000103153
-0.00334258
-0.000617923
-0.00300965
-0.00110787
-0.0025552
-0.00155586
-0.00199917
-0.00194026
-0.00136458
-0.00224311
-0.0006781
-0.00244979
2.61412e-05
-0.00254402
0.000717815
-0.00252255
0.00136378
-0.00238304
0.00193273
-0.00212839
0.00239667
-0.00176965
0.00273225
-0.00132234
0.00292163
-0.000808392
0.00295687
-0.000257037
0.0028368
0.000320968
0.0025688
0.00086581
0.00216874
0.00135926
0.0016605
0.00177283
0.00107583
0.00207909
0.000451142
0.00226001
-0.000177387
0.00230479
-0.000767976
0.00220405
-0.00128385
0.00196737
-0.00169258
0.00160962
-0.00197058
0.00115638
-0.0021004
0.000637294
-0.00207717
9.11063e-05
-0.00191154
-0.000448497
-0.0016166
-0.000930369
-0.0012206
-0.00132297
-0.000758876
-0.00159779
-0.000271056
-0.00173397
0.000200919
-0.00172217
0.000617836
-0.00156671
0.000945354
-0.00128527
0.00115847
-0.000906724
0.00124606
-0.000471574
0.00120213
-1.86208e-05
0.00104583
0.000401671
0.000796958
0.000747108
0.000488965
0.000984174
0.000160161
0.00109186
-0.000148798
0.00106004
-0.000403182
0.000899458
-0.0005748
0.000634103
-0.00064695
0.000300444
-0.000615049
-6.41357e-05
-0.000489082
-0.000403949
-0.000288191
-0.000681591
-4.08361e-05
-0.000863826
0.000217227
-0.000931814
0.000454625
-0.000876613
0.000642424
-0.000712902
0.000759238
-0.000464324
0.000794041
-0.000166592
0.000747019
0.000146786
0.000628352
0.000428711
0.000456217
0.000650724
0.000254383
0.000788751
4.79231e-05
0.00083168
-0.000137891
0.000779098
-0.000284684
0.000645749
-0.000379551
0.00045346
-0.000416954
0.000230141
-0.000399299
4.91913e-06
-0.000335497
-0.000195158
-0.000238676
-0.000349086
-0.000124632
-0.000443277
-8.70388e-06
-0.000473998
9.26155e-05
-0.000442081
0.000171151
-0.000364566
0.000220022
-0.000254733
0.000238355
-0.000131823
0.000229103
-1.40147e-05
0.000198872
8.35821e-05
0.000156092
0.000150897
0.000109494
0.000184409
6.74079e-05
0.000186028
3.49174e-05
0.000164163
1.34753e-05
0.000130667
3.51826e-06
9.70299e-05
7.70193e-05
6.74615e-05
-0.000847362
0.00014133
-0.000867669
0.000232262
-0.00089163
0.00034943
-0.000924053
0.00049781
-0.000959502
0.000689139
-0.00100866
0.000908961
-0.00103749
0.00119883
-0.00110685
0.00148384
-0.00108804
0.00178501
-0.0010961
0.00206366
-0.00106414
0.0023135
-0.00103238
0.0025208
-0.000990213
0.00268419
-0.000952596
0.00280397
-0.000920225
0.00288483
-0.000897481
0.00293427
-0.000886364
0.00296296
-0.000889233
0.00298076
-0.000904947
0.00300413
-0.000938315
0.00304719
-0.000986575
0.00312622
-0.00105334
0.00325029
-0.00112834
0.00343176
-0.00121697
0.0036602
-0.0012904
0.00394851
-0.0013757
0.00425169
-0.00140382
0.0046161
-0.00147329
0.00495921
-0.00144025
0.00532257
-0.00145064
0.0056741
-0.00142626
0.00602702
-0.00141344
0.00637531
-0.00138965
0.0067186
-0.00135961
0.00705466
-0.00131975
0.00738
-0.00126801
0.00769112
-0.00120356
0.00798461
-0.00112579
0.00825673
-0.0010337
0.00850491
-0.000926976
0.00872382
-0.000803261
0.00891447
-0.000668652
0.00906611
-0.0005167
0.00918599
-0.000350565
0.00926263
-0.000168216
0.00928466
4.73626e-05
0.00925428
0.000262544
0.0091736
0.000480435
0.00904299
0.000702754
0.00885881
0.000931456
0.00861931
0.00116497
0.00832262
0.00140077
0.00796942
0.00163596
0.00755818
0.00187062
0.00709102
0.00209915
0.00656938
0.00232088
0.00599651
0.00253009
0.00537544
0.00272702
0.00471122
0.00290511
0.00400836
0.00306507
0.00327334
0.00320021
0.00251235
0.00330988
0.00173258
0.00339028
0.000942134
0.00343868
0.000149213
0.00345413
-0.000636987
0.00343317
-0.00140757
0.00337566
-0.00215282
0.00327926
-0.00286315
0.00314296
-0.00352854
0.00296707
-0.0041399
0.0027541
-0.00468846
0.00250197
-0.00516575
0.00221434
-0.00556242
0.0018939
-0.00587232
0.00154386
-0.00608877
0.00116548
-0.00620745
0.000767728
-0.00622739
0.000357246
-0.00613812
-7.91971e-05
-0.0059501
-0.000509879
-0.00566005
-0.000934621
-0.0052708
-0.00134767
-0.00478836
-0.00174129
-0.00421979
-0.00210776
-0.00357378
-0.00243997
-0.00286127
-0.00272976
-0.00209568
-0.00296747
-0.00129157
-0.0031486
-0.000463735
-0.00326854
0.000370454
-0.0033195
0.00119255
-0.00329801
0.00198435
-0.0032037
0.00272896
-0.00303535
0.00340938
-0.00279459
0.00400622
-0.00248049
0.00450463
-0.00210292
0.0048905
-0.00166748
0.00515195
-0.00118244
0.00528194
-0.000659713
0.00527886
-0.000113338
0.00513664
0.000461221
0.00485774
0.00101776
0.00444828
0.00155393
0.00391696
0.00205551
0.00327887
0.00250426
0.00255225
0.00288462
0.0017576
0.00318328
0.000918821
0.00338769
6.2263e-05
0.0034871
-0.000784452
0.00347485
-0.00159503
0.00334958
-0.00233772
0.00310565
-0.00298759
0.00275569
-0.00352103
0.00230279
-0.00391863
0.00176606
-0.00416002
0.00115606
-0.00424042
0.000500619
-0.00415367
-0.000189908
-0.0039038
-0.000867793
-0.00349765
-0.00151401
-0.00295154
-0.00210197
-0.00228777
-0.00260403
-0.00153553
-0.00299535
-0.000729107
-0.00325621
9.75647e-05
-0.0033707
0.000904639
-0.00332963
0.00165373
-0.00313213
0.0023079
-0.00278257
0.00283581
-0.00229756
0.00321194
-0.00169847
0.00341588
-0.00101233
0.00343382
-0.000274982
0.00327473
0.000480064
0.00294385
0.00119669
0.00246073
0.00184238
0.00185473
0.00237884
0.00116357
0.00277025
0.000428148
0.00299543
-0.000301956
0.0030349
-0.000983169
0.00288526
-0.00157166
0.00255586
-0.00203071
0.00206866
-0.00233371
0.00145938
-0.0024615
0.000765092
-0.00240898
3.85816e-05
-0.00219116
-0.000666315
-0.001825
-0.00129653
-0.00134553
-0.00180244
-0.00079444
-0.00214888
-0.000218793
-0.00230962
0.000330991
-0.00227195
0.000809435
-0.00204515
0.00117734
-0.00165317
0.00140818
-0.00113757
0.00148492
-0.000548314
0.00141093
5.53746e-05
0.00120314
0.00060946
0.000890225
0.00106002
0.000512275
0.00136212
0.000116168
0.00148797
-0.000251314
0.00142753
-0.000548447
0.00119659
-0.000743909
0.000829565
-0.000818748
0.000375283
-0.000771206
-0.000111677
-0.000613096
-0.000562059
-0.000369812
-0.000924875
-7.65261e-05
-0.00115711
0.000226974
-0.00123531
0.000501795
-0.00115143
0.000714724
-0.000925831
0.000842831
-0.000592432
0.000875291
-0.000199052
0.000814677
0.0002074
0.000673422
0.000569967
0.000474544
0.000849602
0.000245394
0.0010179
1.4759e-05
0.00106232
-0.000188169
0.000982026
-0.000344424
0.000802004
-0.000440498
0.000549534
-0.000471817
0.00026146
-0.000442532
-2.43654e-05
-0.000363699
-0.000273992
-0.000251185
-0.0004616
-0.000122794
-0.000571668
3.20819e-06
-0.0006
0.000112832
-0.000551705
0.000194071
-0.000445805
0.000241476
-0.000302139
0.000254808
-0.000145154
0.000238409
2.38495e-06
0.00020039
0.000121601
0.000150122
0.000201166
9.84365e-05
0.000236094
5.35053e-05
0.00023096
2.00913e-05
0.000197577
2.8533e-06
0.000147905
-2.17241e-06
0.000102056
7.48469e-05
0.000386714
-0.00123408
0.000778578
-0.00125953
0.00118339
-0.00129644
0.00160402
-0.00134468
0.00204098
-0.00139647
0.00250365
-0.00147133
0.0029124
-0.00144624
0.00328314
-0.00147759
0.00328777
-0.00109267
0.00308738
-0.000895708
0.00272926
-0.000706022
0.0023007
-0.000603815
0.00184068
-0.000530199
0.00139516
-0.000507078
0.000996025
-0.000521086
0.000665111
-0.000566566
0.000413743
-0.000634996
0.00024485
-0.00072034
0.000155867
-0.000815963
0.000138895
-0.000921343
0.000177634
-0.00102531
0.000278982
-0.00115469
0.000428509
-0.00127787
0.000644301
-0.00143276
0.00091818
-0.00156428
0.00129836
-0.00175588
0.00176218
-0.00186764
0.00236532
-0.00207644
0.00291077
-0.0019857
0.0034042
-0.00194407
0.0038905
-0.00191256
0.00438102
-0.00190395
0.00487285
-0.00188148
0.0053631
-0.00184986
0.00584946
-0.00180611
0.00632878
-0.00174733
0.00679827
-0.00167305
0.00725133
-0.00157886
0.00768577