/*--------------------------------*- C++ -*----------------------------------*\
  =========                 |
  \\      /  F ield         | OpenFOAM: The Open Source CFD Toolbox
   \\    /   O peration     | Website:  https://openfoam.org
    \\  /    A nd           | Version:  12
     \\/     M anipulation  |
\*---------------------------------------------------------------------------*/
FoamFile
{
    format      ascii;
    class       volVectorField;
    location    "10";
    object      U;
}
// * * * * * * * * * * * * * * * * * * * * * * * * * * * * * * * * * * * * * //

dimensions      [0 1 -1 0 0 0 0];

internalField   nonuniform List<vector> 
3829
(
(6.59135e-06 -0.000207348 0)
(1.95462e-05 -0.000211721 0)
(3.2956e-05 -0.000211491 0)
(4.64064e-05 -0.00021105 0)
(6.00783e-05 -0.000210456 0)
(7.39688e-05 -0.000209701 0)
(8.80798e-05 -0.000208784 0)
(0.000102439 -0.000207713 0)
(0.000117068 -0.000206484 0)
(0.000131909 -0.0002051 0)
(0.00014705 -0.000203556 0)
(0.000162384 -0.000201859 0)
(0.000177888 -0.00019998 0)
(0.000193625 -0.000197922 0)
(0.000209543 -0.00019566 0)
(0.000225651 -0.000193193 0)
(0.000241891 -0.000190509 0)
(0.000258255 -0.000187603 0)
(0.000274723 -0.000184467 0)
(0.00029128 -0.000181099 0)
(0.000307893 -0.000177492 0)
(0.000324533 -0.000173642 0)
(0.000341162 -0.00016955 0)
(0.000357749 -0.000165209 0)
(0.000374228 -0.000160624 0)
(0.000390569 -0.000155794 0)
(0.000406736 -0.000150721 0)
(0.000422653 -0.000145419 0)
(0.000438253 -0.000139869 0)
(0.000453486 -0.000134138 0)
(0.000468245 -0.000128222 0)
(0.000482498 -0.000122101 0)
(0.000496065 -0.000115848 0)
(0.000509008 -0.000109423 0)
(0.000521116 -0.000102871 0)
(0.00053217 -9.61326e-05 0)
(0.000542336 -8.9238e-05 0)
(0.000551415 -8.21638e-05 0)
(0.000559445 -7.49072e-05 0)
(0.00056637 -6.75097e-05 0)
(0.000571979 -5.9971e-05 0)
(0.000576253 -5.23042e-05 0)
(0.000579107 -4.45366e-05 0)
(0.000580427 -3.66737e-05 0)
(0.000579968 -2.87594e-05 0)
(0.000577528 -2.08413e-05 0)
(0.000573132 -1.2972e-05 0)
(0.000566699 -5.19404e-06 0)
(0.000558184 2.44388e-06 0)
(0.000547561 9.93243e-06 0)
(0.000534673 1.7178e-05 0)
(0.000519782 2.42418e-05 0)
(0.000502954 3.0957e-05 0)
(0.000483735 3.73589e-05 0)
(0.00046249 4.33999e-05 0)
(0.000439501 4.90485e-05 0)
(0.000414495 5.42257e-05 0)
(0.000387545 5.89145e-05 0)
(0.000359347 6.31084e-05 0)
(0.000329632 6.66607e-05 0)
(0.000298505 6.96285e-05 0)
(0.000266294 7.19362e-05 0)
(0.000233155 7.35315e-05 0)
(0.000199513 7.44319e-05 0)
(0.000165369 7.45989e-05 0)
(0.000131391 7.40049e-05 0)
(9.76909e-05 7.26609e-05 0)
(6.44581e-05 7.05621e-05 0)
(3.22516e-05 6.77489e-05 0)
(1.52084e-06 6.42394e-05 0)
(-2.76478e-05 5.99984e-05 0)
(-5.49827e-05 5.51284e-05 0)
(-7.98776e-05 4.96413e-05 0)
(-0.000102281 4.36324e-05 0)
(-0.00012169 3.71299e-05 0)
(-0.000137823 3.02794e-05 0)
(-0.000150781 2.30987e-05 0)
(-0.000160065 1.57489e-05 0)
(-0.00016552 8.29604e-06 0)
(-0.000167475 8.9194e-07 0)
(-0.00016527 -6.30715e-06 0)
(-0.000158768 -1.32403e-05 0)
(-0.000148923 -1.98553e-05 0)
(-0.000135387 -2.58925e-05 0)
(-0.00011852 -3.14071e-05 0)
(-9.89951e-05 -3.6144e-05 0)
(-7.67385e-05 -4.00762e-05 0)
(-5.22778e-05 -4.30768e-05 0)
(-2.61708e-05 -4.51584e-05 0)
(1.0395e-06 -4.61741e-05 0)
(2.87384e-05 -4.61375e-05 0)
(5.62623e-05 -4.5037e-05 0)
(8.29905e-05 -4.28767e-05 0)
(0.000108311 -3.96957e-05 0)
(0.000131558 -3.55643e-05 0)
(0.000152109 -3.05627e-05 0)
(0.00016944 -2.47976e-05 0)
(0.000182997 -1.84253e-05 0)
(0.000192435 -1.15875e-05 0)
(0.000197411 -4.4755e-06 0)
(0.000197462 2.7339e-06 0)
(0.000192361 9.82846e-06 0)
(0.000182399 1.66541e-05 0)
(0.000167859 2.29827e-05 0)
(0.00014909 2.8655e-05 0)
(0.000126556 3.34445e-05 0)
(0.000100809 3.72279e-05 0)
(7.26178e-05 3.9838e-05 0)
(4.27534e-05 4.12205e-05 0)
(1.21662e-05 4.12557e-05 0)
(-1.82175e-05 3.99532e-05 0)
(-4.73201e-05 3.73519e-05 0)
(-7.41561e-05 3.35074e-05 0)
(-9.78778e-05 2.85574e-05 0)
(-0.000117467 2.26743e-05 0)
(-0.0001323 1.60158e-05 0)
(-0.000141799 8.8805e-06 0)
(-0.00014555 1.51266e-06 0)
(-0.000143181 -5.73396e-06 0)
(-0.000134543 -1.26547e-05 0)
(-0.000120334 -1.89601e-05 0)
(-0.000101104 -2.43745e-05 0)
(-7.76925e-05 -2.86775e-05 0)
(-5.10344e-05 -3.16758e-05 0)
(-2.22442e-05 -3.31885e-05 0)
(7.46073e-06 -3.31403e-05 0)
(3.66819e-05 -3.15501e-05 0)
(6.38335e-05 -2.85321e-05 0)
(8.77406e-05 -2.41753e-05 0)
(0.000107297 -1.87327e-05 0)
(0.000121456 -1.24654e-05 0)
(0.00012954 -5.68661e-06 0)
(0.000131071 1.19812e-06 0)
(0.000125702 7.80938e-06 0)
(0.000114051 1.38787e-05 0)
(9.68928e-05 1.89835e-05 0)
(7.51073e-05 2.29283e-05 0)
(5.00311e-05 2.53765e-05 0)
(2.31565e-05 2.63071e-05 0)
(-4.07582e-06 2.55668e-05 0)
(-2.99011e-05 2.33597e-05 0)
(-5.25775e-05 1.97789e-05 0)
(-7.0937e-05 1.51099e-05 0)
(-8.39064e-05 9.69693e-06 0)
(-9.08434e-05 3.9509e-06 0)
(-9.12705e-05 -1.73494e-06 0)
(-8.54105e-05 -6.93301e-06 0)
(-7.41492e-05 -1.13407e-05 0)
(-5.84775e-05 -1.45746e-05 0)
(-3.98162e-05 -1.64771e-05 0)
(-1.97478e-05 -1.69574e-05 0)
(7.3686e-08 -1.60091e-05 0)
(1.79962e-05 -1.38236e-05 0)
(3.26283e-05 -1.06504e-05 0)
(4.29741e-05 -6.84983e-06 0)
(4.84625e-05 -2.81866e-06 0)
(4.88841e-05 1.00657e-06 0)
(4.46787e-05 4.29109e-06 0)
(3.68225e-05 6.71513e-06 0)
(2.65743e-05 8.06802e-06 0)
(1.53293e-05 8.25283e-06 0)
(4.62967e-06 7.32155e-06 0)
(-4.08947e-06 5.46151e-06 0)
(-9.75482e-06 2.94564e-06 0)
(-1.16376e-05 1.42634e-07 0)
(-9.6178e-06 -2.5781e-06 0)
(-4.0186e-06 -4.86175e-06 0)
(4.93001e-06 -6.51709e-06 0)
(1.56892e-05 -7.24341e-06 0)
(2.63454e-05 -7.01126e-06 0)
(3.59329e-05 -5.87429e-06 0)
(4.32751e-05 -4.02145e-06 0)
(4.7445e-05 -1.69305e-06 0)
(4.7855e-05 7.82129e-07 0)
(4.44227e-05 3.12936e-06 0)
(3.76397e-05 5.04965e-06 0)
(2.82936e-05 6.35917e-06 0)
(1.74516e-05 6.9185e-06 0)
(6.35671e-06 6.73117e-06 0)
(-3.92047e-06 5.80723e-06 0)
(-1.22943e-05 4.40392e-06 0)
(-1.79727e-05 2.6665e-06 0)
(-2.06718e-05 8.45602e-07 0)
(-2.03615e-05 -8.32029e-07 0)
(-1.74044e-05 -2.21034e-06 0)
(-1.24534e-05 -3.15489e-06 0)
(-6.30501e-06 -3.60409e-06 0)
(2.66251e-07 -3.56244e-06 0)
(6.34971e-06 -3.12813e-06 0)
(1.12929e-05 -2.39239e-06 0)
(1.47529e-05 -1.50508e-06 0)
(1.65116e-05 -5.99759e-07 0)
(1.66699e-05 1.91142e-07 0)
(1.54598e-05 8.05255e-07 0)
(1.33334e-05 1.224e-06 0)
(1.07112e-05 1.37992e-06 0)
(7.94974e-06 1.39366e-06 0)
(5.34632e-06 1.28452e-06 0)
(3.02903e-06 1.15589e-06 0)
(9.80965e-07 1.06216e-06 0)
(7.65563e-06 -6.36223e-05 0)
(2.34319e-05 -6.09841e-05 0)
(3.94085e-05 -6.10036e-05 0)
(5.555e-05 -6.11016e-05 0)
(7.18652e-05 -6.12298e-05 0)
(8.8413e-05 -6.14279e-05 0)
(0.000105055 -6.16741e-05 0)
(0.00012186 -6.19962e-05 0)
(0.00013888 -6.24046e-05 0)
(0.00015608 -6.28827e-05 0)
(0.000173508 -6.34358e-05 0)
(0.00019125 -6.40286e-05 0)
(0.000209316 -6.46728e-05 0)
(0.000227729 -6.53516e-05 0)
(0.000246472 -6.61068e-05 0)
(0.000265427 -6.6882e-05 0)
(0.000284585 -6.77276e-05 0)
(0.0003039 -6.85824e-05 0)
(0.000323327 -6.94731e-05 0)
(0.000342828 -7.03321e-05 0)
(0.000362397 -7.11552e-05 0)
(0.000381949 -7.19021e-05 0)
(0.000401449 -7.25363e-05 0)
(0.000420854 -7.30075e-05 0)
(0.00044006 -7.32775e-05 0)
(0.00045905 -7.32703e-05 0)
(0.000477683 -7.29503e-05 0)
(0.000496036 -7.22592e-05 0)
(0.00051369 -7.11262e-05 0)
(0.000530494 -6.95021e-05 0)
(0.00054694 -6.72889e-05 0)
(0.000562487 -6.44595e-05 0)
(0.000577082 -6.09581e-05 0)
(0.000590998 -5.67689e-05 0)
(0.000604113 -5.18879e-05 0)
(0.00061631 -4.62764e-05 0)
(0.000627534 -3.99342e-05 0)
(0.000637786 -3.27839e-05 0)
(0.000646726 -2.48997e-05 0)
(0.000654288 -1.62051e-05 0)
(0.000660441 -6.73123e-06 0)
(0.000665008 3.52092e-06 0)
(0.000667951 1.44987e-05 0)
(0.000669072 2.61652e-05 0)
(0.000667901 3.84422e-05 0)
(0.000664204 5.13195e-05 0)
(0.000658052 6.47071e-05 0)
(0.000649405 7.85409e-05 0)
(0.000638404 9.26855e-05 0)
(0.000624807 0.000107035 0)
(0.000608826 0.000121434 0)
(0.000590375 0.000135785 0)
(0.000569382 0.000149895 0)
(0.000546027 0.000163604 0)
(0.000520338 0.000176716 0)
(0.000492462 0.000189174 0)
(0.000462208 0.000200678 0)
(0.000430012 0.000211149 0)
(0.00039596 0.00022028 0)
(0.000360092 0.000228056 0)
(0.000322869 0.000234145 0)
(0.000284115 0.000238625 0)
(0.00024442 0.000241161 0)
(0.000204279 0.000241821 0)
(0.000163491 0.000240397 0)
(0.000122948 0.000236931 0)
(8.28623e-05 0.000231242 0)
(4.35406e-05 0.00022345 0)
(5.62963e-06 0.000213522 0)
(-3.07373e-05 0.000201479 0)
(-6.51265e-05 0.000187416 0)
(-9.71038e-05 0.000171436 0)
(-0.000126101 0.000153723 0)
(-0.000152003 0.000134415 0)
(-0.000174146 0.000113796 0)
(-0.000192313 9.20328e-05 0)
(-0.000206563 6.9474e-05 0)
(-0.000216234 4.641e-05 0)
(-0.000221254 2.31294e-05 0)
(-0.000221632 -5.07092e-08 0)
(-0.000217075 -2.24676e-05 0)
(-0.00020786 -4.42233e-05 0)
(-0.00019425 -6.45629e-05 0)
(-0.000176297 -8.34357e-05 0)
(-0.000154411 -0.000100252 0)
(-0.000128998 -0.000114895 0)
(-0.000100464 -0.000126843 0)
(-6.9476e-05 -0.000135982 0)
(-3.6541e-05 -0.000142097 0)
(-2.21531e-06 -0.00014498 0)
(3.24293e-05 -0.000144558 0)
(6.67645e-05 -0.000140821 0)
(0.000100009 -0.000133796 0)
(0.00013135 -0.000123615 0)
(0.000160009 -0.000110475 0)
(0.000185269 -9.46664e-05 0)
(0.000206397 -7.65278e-05 0)
(0.000222761 -5.64934e-05 0)
(0.000233943 -3.50486e-05 0)
(0.000239536 -1.2786e-05 0)
(0.000239057 9.6923e-06 0)
(0.000232377 3.1817e-05 0)
(0.000219782 5.30139e-05 0)
(0.000201573 7.26553e-05 0)
(0.000178145 9.01441e-05 0)
(0.000150096 0.000104897 0)
(0.000118169 0.000116424 0)
(8.3339e-05 0.000124349 0)
(4.65267e-05 0.000128314 0)
(8.86005e-06 0.000128244 0)
(-2.83156e-05 0.000123977 0)
(-6.38115e-05 0.000115626 0)
(-9.64039e-05 0.000103482 0)
(-0.000124974 8.78899e-05 0)
(-0.00014848 6.94162e-05 0)
(-0.000166019 4.86273e-05 0)
(-0.000176845 2.6389e-05 0)
(-0.000180465 3.41367e-06 0)
(-0.000176643 -1.91202e-05 0)
(-0.000165424 -4.05827e-05 0)
(-0.000147386 -6.00762e-05 0)
(-0.000123283 -7.67784e-05 0)
(-9.41704e-05 -8.99548e-05 0)
(-6.11054e-05 -9.89177e-05 0)
(-2.54889e-05 -0.00010331 0)
(1.10106e-05 -0.000102953 0)
(4.65852e-05 -9.77514e-05 0)
(7.95112e-05 -8.80862e-05 0)
(0.00010834 -7.43148e-05 0)
(0.000131634 -5.71938e-05 0)
(0.000148264 -3.7588e-05 0)
(0.000157299 -1.65375e-05 0)
(0.000158177 4.86865e-06 0)
(0.00015088 2.54504e-05 0)
(0.000135986 4.41311e-05 0)
(0.000114457 5.98491e-05 0)
(8.73803e-05 7.17296e-05 0)
(5.64499e-05 7.91481e-05 0)
(2.35295e-05 8.16232e-05 0)
(-9.52023e-06 7.90772e-05 0)
(-4.04842e-05 7.18428e-05 0)
(-6.74962e-05 6.0477e-05 0)
(-8.89639e-05 4.57717e-05 0)
(-0.000103635 2.88528e-05 0)
(-0.000110826 1.08992e-05 0)
(-0.000110079 -6.6872e-06 0)
(-0.000101822 -2.27911e-05 0)
(-8.70603e-05 -3.61978e-05 0)
(-6.70604e-05 -4.60261e-05 0)
(-4.37587e-05 -5.15942e-05 0)
(-1.89964e-05 -5.27067e-05 0)
(5.11525e-06 -4.94145e-05 0)
(2.65268e-05 -4.22924e-05 0)
(4.36075e-05 -3.22043e-05 0)
(5.5166e-05 -2.02121e-05 0)
(6.0556e-05 -7.61905e-06 0)
(5.97049e-05 4.34616e-06 0)
(5.32701e-05 1.44866e-05 0)
(4.24454e-05 2.18624e-05 0)
(2.88428e-05 2.58317e-05 0)
(1.42535e-05 2.61783e-05 0)
(6.28827e-07 2.30281e-05 0)
(-1.02953e-05 1.70141e-05 0)
(-1.72153e-05 9.04553e-06 0)
(-1.92992e-05 1.9823e-07 0)
(-1.64816e-05 -8.30383e-06 0)
(-9.3609e-06 -1.54421e-05 0)
(1.73281e-06 -2.0411e-05 0)
(1.50277e-05 -2.26495e-05 0)
(2.81307e-05 -2.17837e-05 0)
(3.97959e-05 -1.81707e-05 0)
(4.8619e-05 -1.23508e-05 0)
(5.35164e-05 -5.12412e-06 0)
(5.38819e-05 2.53635e-06 0)
(4.96968e-05 9.70754e-06 0)
(4.15874e-05 1.55627e-05 0)
(3.05543e-05 1.94459e-05 0)
(1.79003e-05 2.10452e-05 0)
(5.05095e-06 2.03416e-05 0)
(-6.63036e-06 1.74652e-05 0)
(-1.59111e-05 1.30891e-05 0)
(-2.20251e-05 7.76686e-06 0)
(-2.46116e-05 2.24709e-06 0)
(-2.37642e-05 -2.8352e-06 0)
(-1.9962e-05 -6.93818e-06 0)
(-1.39714e-05 -9.69813e-06 0)
(-6.74542e-06 -1.095e-05 0)
(7.70233e-07 -1.07455e-05 0)
(7.57728e-06 -9.32341e-06 0)
(1.29774e-05 -7.05381e-06 0)
(1.65926e-05 -4.35663e-06 0)
(1.82326e-05 -1.62844e-06 0)
(1.8079e-05 7.58752e-07 0)
(1.64837e-05 2.56904e-06 0)
(1.38966e-05 3.72803e-06 0)
(1.0875e-05 4.173e-06 0)
(7.85778e-06 4.1134e-06 0)
(5.12032e-06 3.71673e-06 0)
(2.81995e-06 3.28115e-06 0)
(8.9348e-07 2.99131e-06 0)
(6.47102e-06 -0.000463407 0)
(1.95502e-05 -0.000470417 0)
(3.2674e-05 -0.000470152 0)
(4.59312e-05 -0.000469603 0)
(5.92169e-05 -0.000468812 0)
(7.25935e-05 -0.000467769 0)
(8.61498e-05 -0.00046641 0)
(9.96705e-05 -0.000464746 0)
(0.000113518 -0.000462697 0)
(0.000127674 -0.000460339 0)
(0.000142354 -0.000457592 0)
(0.000157416 -0.000454585 0)
(0.000172699 -0.00045125 0)
(0.000188051 -0.000447571 0)
(0.000203706 -0.00044358 0)
(0.000219604 -0.000439251 0)
(0.000235715 -0.000434583 0)
(0.000252195 -0.000429595 0)
(0.000269047 -0.000424274 0)
(0.000286456 -0.000418626 0)
(0.000304196 -0.000412628 0)
(0.000322431 -0.000406217 0)
(0.000341171 -0.00039933 0)
(0.00036038 -0.000391839 0)
(0.000380129 -0.000383705 0)
(0.000400346 -0.000374859 0)
(0.000420864 -0.000364995 0)
(0.000441811 -0.00035435 0)
(0.000463005 -0.000342681 0)
(0.000484515 -0.000329998 0)
(0.000506168 -0.00031633 0)
(0.000527601 -0.000301761 0)
(0.000548567 -0.000286042 0)
(0.000568872 -0.000269291 0)
(0.000588432 -0.000251359 0)
(0.000607029 -0.000232147 0)
(0.00062499 -0.000211634 0)
(0.00064171 -0.000189856 0)
(0.000657146 -0.000166811 0)
(0.000671477 -0.000142527 0)
(0.000684113 -0.000117111 0)
(0.000694925 -9.06139e-05 0)
(0.000703667 -6.30885e-05 0)
(0.000710112 -3.46632e-05 0)
(0.000714143 -5.39327e-06 0)
(0.000715524 2.45581e-05 0)
(0.000714037 5.49337e-05 0)
(0.000709426 8.55283e-05 0)
(0.000701499 0.00011618 0)
(0.00069016 0.000146661 0)
(0.000675367 0.000176797 0)
(0.000657219 0.000206267 0)
(0.000635527 0.000234997 0)
(0.00060996 0.000262553 0)
(0.00058133 0.000288828 0)
(0.000549513 0.000313358 0)
(0.000514182 0.000336024 0)
(0.000475496 0.000356446 0)
(0.000434374 0.000374358 0)
(0.000390545 0.000389416 0)
(0.000344559 0.000401608 0)
(0.000296733 0.000410404 0)
(0.000247238 0.00041588 0)
(0.000197058 0.000417611 0)
(0.000146059 0.000415642 0)
(9.5076e-05 0.00040979 0)
(4.4539e-05 0.000400027 0)
(-4.78499e-06 0.000386315 0)
(-5.27327e-05 0.000368705 0)
(-9.84275e-05 0.000347286 0)
(-0.00014143 0.000322207 0)
(-0.000181192 0.000293757 0)
(-0.00021703 0.000262211 0)
(-0.000248535 0.0002278 0)
(-0.000275176 0.000191096 0)
(-0.000296536 0.000152367 0)
(-0.000312309 0.000112299 0)
(-0.000322274 7.13736e-05 0)
(-0.000326287 3.01526e-05 0)
(-0.000323468 -1.07146e-05 0)
(-0.000314634 -5.05724e-05 0)
(-0.000299518 -8.88466e-05 0)
(-0.00027855 -0.000124762 0)
(-0.000252043 -0.000157772 0)
(-0.000220199 -0.000187214 0)
(-0.000183961 -0.000212526 0)
(-0.000143384 -0.000233157 0)
(-9.99856e-05 -0.000248711 0)
(-5.40577e-05 -0.000258714 0)
(-6.60039e-06 -0.000263017 0)
(4.11174e-05 -0.000261416 0)
(8.81598e-05 -0.000253848 0)
(0.000133494 -0.000240485 0)
(0.000176024 -0.000221466 0)
(0.000214685 -0.000197262 0)
(0.000248505 -0.000168344 0)
(0.000276616 -0.000135389 0)
(0.000298137 -9.91445e-05 0)
(0.000312375 -6.04897e-05 0)
(0.000318797 -2.04131e-05 0)
(0.000317105 2.00587e-05 0)
(0.000307247 5.97878e-05 0)
(0.000289475 9.76686e-05 0)
(0.000264112 0.000132634 0)
(0.000231731 0.000163592 0)
(0.000193168 0.000189556 0)
(0.000149577 0.000209706 0)
(0.00010213 0.000223314 0)
(5.23699e-05 0.000229804 0)
(1.76116e-06 0.000228974 0)
(-4.82829e-05 0.000220672 0)
(-9.56548e-05 0.000205217 0)
(-0.000138853 0.00018288 0)
(-0.000176451 0.000154559 0)
(-0.000207015 0.000121106 0)
(-0.000229323 8.3779e-05 0)
(-0.000242585 4.38604e-05 0)
(-0.000245854 2.8589e-06 0)
(-0.000239058 -3.74611e-05 0)
(-0.000222785 -7.57167e-05 0)
(-0.00019744 -0.000110261 0)
(-0.000164052 -0.000139605 0)
(-0.000123845 -0.000162488 0)
(-7.86061e-05 -0.000177878 0)
(-3.05452e-05 -0.000185051 0)
(1.85322e-05 -0.000183578 0)
(6.61087e-05 -0.000173694 0)
(0.000109753 -0.000155701 0)
(0.000147613 -0.00013058 0)
(0.000177688 -9.95405e-05 0)
(0.00019852 -6.42113e-05 0)
(0.000209114 -2.6464e-05 0)
(0.000208868 1.16853e-05 0)
(0.000197637 4.8218e-05 0)
(0.000176374 8.11698e-05 0)
(0.000146353 0.000108688 0)
(0.000109329 0.000129163 0)
(6.74196e-05 0.00014156 0)
(2.31257e-05 0.000145158 0)
(-2.0702e-05 0.000139799 0)
(-6.12385e-05 0.000126154 0)
(-9.60453e-05 0.000105156 0)
(-0.000123086 7.84331e-05 0)
(-0.000140775 4.79289e-05 0)
(-0.00014816 1.58571e-05 0)
(-0.000144995 -1.54388e-05 0)
(-0.000131955 -4.37831e-05 0)
(-0.000110403 -6.71382e-05 0)
(-8.22545e-05 -8.3869e-05 0)
(-5.00659e-05 -9.29694e-05 0)
(-1.65495e-05 -9.39718e-05 0)
(1.54885e-05 -8.7187e-05 0)
(4.32376e-05 -7.36786e-05 0)
(6.46734e-05 -5.49679e-05 0)
(7.82684e-05 -3.30459e-05 0)
(8.33293e-05 -1.02913e-05 0)
(7.99235e-05 1.10502e-05 0)
(6.90134e-05 2.89314e-05 0)
(5.24287e-05 4.16464e-05 0)
(3.24772e-05 4.81655e-05 0)
(1.1624e-05 4.80928e-05 0)
(-7.46248e-06 4.1801e-05 0)
(-2.23638e-05 3.04809e-05 0)
(-3.14999e-05 1.57977e-05 0)
(-3.38296e-05 -2.705e-07 0)
(-2.94043e-05 -1.5595e-05 0)
(-1.91765e-05 -2.82937e-05 0)
(-4.00592e-06 -3.68679e-05 0)
(1.39823e-05 -4.06847e-05 0)
(3.17235e-05 -3.87989e-05 0)
(4.71702e-05 -3.20778e-05 0)
(5.86563e-05 -2.15476e-05 0)
(6.48066e-05 -8.68667e-06 0)
(6.49642e-05 4.81487e-06 0)
(5.92866e-05 1.73212e-05 0)
(4.8636e-05 2.73581e-05 0)
(3.44276e-05 3.38635e-05 0)
(1.84633e-05 3.63425e-05 0)
(2.48034e-06 3.47489e-05 0)
(-1.1711e-05 2.95659e-05 0)
(-2.2602e-05 2.17704e-05 0)
(-2.93745e-05 1.25011e-05 0)
(-3.16995e-05 2.96355e-06 0)
(-2.98122e-05 -5.66421e-06 0)
(-2.43925e-05 -1.25151e-05 0)
(-1.64996e-05 -1.69902e-05 0)
(-7.36018e-06 -1.88543e-05 0)
(1.84889e-06 -1.82545e-05 0)
(9.92084e-06 -1.56063e-05 0)
(1.60518e-05 -1.158e-05 0)
(1.98958e-05 -6.88006e-06 0)
(2.1307e-05 -2.23601e-06 0)
(2.05622e-05 1.76911e-06 0)
(1.81868e-05 4.72523e-06 0)
(1.47926e-05 6.47119e-06 0)
(1.1062e-05 7.07265e-06 0)
(7.55276e-06 6.75643e-06 0)
(4.62192e-06 5.94245e-06 0)
(2.40196e-06 5.05738e-06 0)
(7.31399e-07 4.51402e-06 0)
(8.63621e-06 -0.000309005 0)
(2.652e-05 -0.00030691 0)
(4.47358e-05 -0.0003057 0)
(6.34348e-05 -0.000303973 0)
(8.25321e-05 -0.000301691 0)
(0.00010225 -0.000299024 0)
(0.000122325 -0.000295845 0)
(0.000142887 -0.000292515 0)
(0.000163614 -0.0002888 0)
(0.000184469 -0.000285281 0)
(0.000205236 -0.000281968 0)
(0.00022588 -0.000279274 0)
(0.000247342 -0.000277262 0)
(0.000269004 -0.000276182 0)
(0.000290902 -0.000275949 0)
(0.00031311 -0.000276708 0)
(0.000335337 -0.000278271 0)
(0.000357642 -0.000280698 0)
(0.000380082 -0.000283613 0)
(0.000402693 -0.000286886 0)
(0.000425825 -0.000290324 0)
(0.000449625 -0.000293858 0)
(0.000474416 -0.000297235 0)
(0.000499973 -0.000300314 0)
(0.000525858 -0.000302747 0)
(0.00055346 -0.000304468 0)
(0.000580959 -0.000305079 0)
(0.000608071 -0.000304633 0)
(0.000635582 -0.00030264 0)
(0.000661928 -0.00029937 0)
(0.000687175 -0.000294364 0)
(0.000712178 -0.000287706 0)
(0.000736692 -0.000279096 0)
(0.000760415 -0.000268344 0)
(0.000784225 -0.000255452 0)
(0.00080742 -0.000240092 0)
(0.000829335 -0.000222224 0)
(0.00084984 -0.000201797 0)
(0.000868726 -0.000178586 0)
(0.000885446 -0.000152738 0)
(0.000899803 -0.000124207 0)
(0.000911886 -9.31433e-05 0)
(0.000921311 -5.96908e-05 0)
(0.000927884 -2.39982e-05 0)
(0.00093106 1.35249e-05 0)
(0.000929771 5.28302e-05 0)
(0.000923927 9.36638e-05 0)
(0.000913939 0.000135709 0)
(0.00089987 0.000178621 0)
(0.000881503 0.000222025 0)
(0.000858703 0.000265439 0)
(0.000831862 0.000308626 0)
(0.000800509 0.000350754 0)
(0.00076469 0.000391705 0)
(0.0007245 0.000430821 0)
(0.000680059 0.000467561 0)
(0.000631576 0.00050149 0)
(0.000578933 0.000532182 0)
(0.000522538 0.000559201 0)
(0.000463384 0.000581967 0)
(0.000401326 0.000600219 0)
(0.000336604 0.000613443 0)
(0.0002702 0.000621526 0)
(0.000202557 0.000623919 0)
(0.000134383 0.000620631 0)
(6.63013e-05 0.000611348 0)
(-9.36151e-07 0.000596099 0)
(-6.67091e-05 0.000574788 0)
(-0.00013004 0.000547516 0)
(-0.000190386 0.000514499 0)
(-0.000246702 0.000475929 0)
(-0.000298234 0.000432171 0)
(-0.000344635 0.000383689 0)
(-0.000384858 0.000331025 0)
(-0.000418264 0.000274734 0)
(-0.000444398 0.000215524 0)
(-0.000462672 0.000154194 0)
(-0.000472992 9.16455e-05 0)
(-0.000474939 2.87491e-05 0)
(-0.000468225 -3.32413e-05 0)
(-0.000453013 -9.38066e-05 0)
(-0.000429342 -0.000151596 0)
(-0.000397686 -0.000205992 0)
(-0.000358559 -0.000255557 0)
(-0.000312401 -0.000299745 0)
(-0.0002601 -0.000337333 0)
(-0.000202585 -0.000367761 0)
(-0.000140882 -0.000390335 0)
(-7.61806e-05 -0.000404286 0)
(-9.84917e-06 -0.000409502 0)
(5.67826e-05 -0.000405619 0)
(0.00012209 -0.000392669 0)
(0.000184775 -0.000370763 0)
(0.000243294 -0.000340332 0)
(0.000296093 -0.000301947 0)
(0.000342008 -0.000256424 0)
(0.000379739 -0.000204835 0)
(0.000408275 -0.000148378 0)
(0.000426719 -8.83741e-05 0)
(0.000434498 -2.63804e-05 0)
(0.000430974 3.58835e-05 0)
(0.000415995 9.68859e-05 0)
(0.000390189 0.000154916 0)
(0.000354045 0.00020826 0)
(0.000308322 0.000255262 0)
(0.000254384 0.00029447 0)
(0.000193685 0.000324573 0)
(0.000127844 0.000344467 0)
(5.90304e-05 0.000353499 0)
(-1.0665e-05 0.000351117 0)
(-7.88257e-05 0.000337263 0)
(-0.000143326 0.000312512 0)
(-0.00020182 0.000277318 0)
(-0.000252106 0.000232984 0)
(-0.00029252 0.000180998 0)
(-0.000321428 0.000123144 0)
(-0.000337804 6.1533e-05 0)
(-0.000340402 -1.28345e-06 0)
(-0.00032942 -6.31176e-05 0)
(-0.000305378 -0.00012145 0)
(-0.000268847 -0.000173815 0)
(-0.0002215 -0.000218118 0)
(-0.000165367 -0.000252163 0)
(-0.00010266 -0.000274652 0)
(-3.60191e-05 -0.00028453 0)
(3.11812e-05 -0.000280977 0)
(9.58126e-05 -0.000264597 0)
(0.000154875 -0.000235918 0)
(0.000205451 -0.000196481 0)
(0.000245124 -0.000148124 0)
(0.000271831 -9.34687e-05 0)
(0.000284206 -3.53177e-05 0)
(0.000281667 2.30444e-05 0)
(0.000264487 7.8647e-05 0)
(0.000233752 0.000128491 0)
(0.000191206 0.000169656 0)
(0.000139412 0.000199853 0)
(8.15627e-05 0.000217508 0)
(2.09641e-05 0.000221575 0)
(-3.83515e-05 0.000211991 0)
(-9.25663e-05 0.000189708 0)
(-0.00013848 0.000156453 0)
(-0.000173161 0.000114688 0)
(-0.000194696 6.73624e-05 0)
(-0.000202018 1.80804e-05 0)
(-0.000194954 -2.96141e-05 0)
(-0.000174593 -7.23204e-05 0)
(-0.000142887 -0.000107049 0)
(-0.000102684 -0.000131422 0)
(-5.76205e-05 -0.000143851 0)
(-1.1378e-05 -0.000143846 0)
(3.19165e-05 -0.000131923 0)
(6.86798e-05 -0.000109775 0)
(9.6208e-05 -7.9946e-05 0)
(0.000112379 -4.55995e-05 0)
(0.000116421 -1.02407e-05 0)
(0.00010886 2.24292e-05 0)
(9.12064e-05 4.94087e-05 0)
(6.60623e-05 6.81537e-05 0)
(3.67337e-05 7.71475e-05 0)
(6.73901e-06 7.59141e-05 0)
(-2.01058e-05 6.50706e-05 0)
(-4.06125e-05 4.67025e-05 0)
(-5.26937e-05 2.34034e-05 0)
(-5.51285e-05 -1.65779e-06 0)
(-4.81198e-05 -2.53332e-05 0)
(-3.31275e-05 -4.46726e-05 0)
(-1.19765e-05 -5.7367e-05 0)
(1.28669e-05 -6.26694e-05 0)
(3.73516e-05 -5.91959e-05 0)
(5.81296e-05 -4.84984e-05 0)
(7.32259e-05 -3.21404e-05 0)
(8.09539e-05 -1.24473e-05 0)
(8.06563e-05 7.9374e-06 0)
(7.26572e-05 2.65517e-05 0)
(5.82623e-05 4.12398e-05 0)
(3.95282e-05 5.04955e-05 0)
(1.88154e-05 5.35965e-05 0)
(-1.49538e-06 5.06987e-05 0)
(-1.90703e-05 4.25597e-05 0)
(-3.20996e-05 3.07018e-05 0)
(-3.96749e-05 1.68497e-05 0)
(-4.14778e-05 2.83219e-06 0)
(-3.79846e-05 -9.65516e-06 0)
(-3.02592e-05 -1.93667e-05 0)
(-1.96836e-05 -2.54864e-05 0)
(-7.89443e-06 -2.77338e-05 0)
(3.5921e-06 -2.63857e-05 0)
(1.33404e-05 -2.21701e-05 0)
(2.04361e-05 -1.60237e-05 0)
(2.44967e-05 -9.06682e-06 0)
(2.54733e-05 -2.3264e-06 0)
(2.38463e-05 3.35305e-06 0)
(2.0342e-05 7.41821e-06 0)
(1.58093e-05 9.63651e-06 0)
(1.11172e-05 1.01666e-05 0)
(6.97574e-06 9.38774e-06 0)
(3.80153e-06 7.94916e-06 0)
(1.72096e-06 6.47446e-06 0)
(4.77418e-07 5.54584e-06 0)
(1.04695e-05 -0.00072643 0)
(3.16052e-05 -0.000736893 0)
(5.25968e-05 -0.000738787 0)
(7.34307e-05 -0.000741382 0)
(9.34745e-05 -0.000743876 0)
(0.000113371 -0.00074705 0)
(0.000131913 -0.000748369 0)
(0.000149467 -0.00075004 0)
(0.000165264 -0.000747431 0)
(0.000177902 -0.000743547 0)
(0.000188557 -0.000735687 0)
(0.000196783 -0.000726132 0)
(0.000203494 -0.000714216 0)
(0.000209416 -0.000701195 0)
(0.000215364 -0.000687567 0)
(0.000221983 -0.000674247 0)
(0.000229781 -0.000661736 0)
(0.000239749 -0.000650559 0)
(0.000252804 -0.00064159 0)
(0.000268087 -0.000634637 0)
(0.000285105 -0.000629404 0)
(0.000304318 -0.000626153 0)
(0.000326049 -0.000623939 0)
(0.000350651 -0.000623171 0)
(0.000377692 -0.00062136 0)
(0.000407418 -0.000620025 0)
(0.000438846 -0.000615503 0)
(0.000472465 -0.000610862 0)
(0.000507077 -0.000600979 0)
(0.000542508 -0.000590323 0)
(0.000579373 -0.000574857 0)
(0.000616766 -0.000557008 0)
(0.000655567 -0.000535544 0)
(0.00069433 -0.000510853 0)
(0.000733536 -0.000482361 0)
(0.000772969 -0.000450649 0)
(0.000811529 -0.000415377 0)
(0.000849358 -0.000376735 0)
(0.000885595 -0.000334803 0)
(0.000919615 -0.000289648 0)
(0.000950936 -0.000241355 0)
(0.000978731 -0.000190198 0)
(0.0010028 -0.00013624 0)
(0.00102194 -7.98275e-05 0)
(0.00103645 -2.12932e-05 0)
(0.00104668 3.92664e-05 0)
(0.00105144 0.000101466 0)
(0.00105031 0.000164318 0)
(0.00104298 0.000228201 0)
(0.00102895 0.000292012 0)
(0.00100875 0.000355478 0)
(0.000981414 0.000418047 0)
(0.000947194 0.000479188 0)
(0.000906574 0.000538172 0)
(0.000858885 0.000594377 0)
(0.000804949 0.000647025 0)
(0.000744998 0.00069558 0)
(0.000679233 0.000739292 0)
(0.000608098 0.000777611 0)
(0.000532127 0.000809933 0)
(0.000452127 0.00083545 0)
(0.000368913 0.000854025 0)
(0.000282733 0.000864883 0)
(0.0001949 0.000867936 0)
(0.000106167 0.000862599 0)
(1.74204e-05 0.000848907 0)
(-7.01936e-05 0.000826543 0)
(-0.000155743 0.000795697 0)
(-0.000238078 0.000756368 0)
(-0.000316123 0.000708888 0)
(-0.000388974 0.000653591 0)
(-0.000455416 0.000591005 0)
(-0.00051439 0.000521742 0)
(-0.00056519 0.000446645 0)
(-0.000607011 0.000366495 0)
(-0.000638923 0.000282441 0)
(-0.000660148 0.000195514 0)
(-0.000670475 0.000106981 0)
(-0.000669026 1.81293e-05 0)
(-0.000656026 -6.95484e-05 0)
(-0.000632124 -0.000154778 0)
(-0.000597028 -0.000236101 0)
(-0.000551148 -0.000312133 0)
(-0.000495112 -0.000381413 0)
(-0.000429848 -0.000442656 0)
(-0.000356391 -0.000494603 0)
(-0.000276324 -0.000536086 0)
(-0.000190683 -0.000566295 0)
(-0.0001013 -0.000584342 0)
(-1.02285e-05 -0.000589789 0)
(8.09131e-05 -0.000582293 0)
(0.000170045 -0.000561908 0)
(0.000255235 -0.000528882 0)
(0.000334383 -0.000483861 0)
(0.000405647 -0.000427568 0)
(0.000467059 -0.000361303 0)
(0.000517051 -0.000286519 0)
(0.00055438 -0.000205043 0)
(0.000577747 -0.00011885 0)
(0.000586061 -3.02622e-05 0)
(0.000579265 5.85869e-05 0)
(0.000557517 0.000145535 0)
(0.000520985 0.000227712 0)
(0.000470342 0.000303129 0)
(0.000406912 0.000369131 0)
(0.000332456 0.0004238 0)
(0.000248979 0.000465306 0)
(0.000159068 0.000492215 0)
(6.54621e-05 0.000503543 0)
(-2.91561e-05 0.000498685 0)
(-0.000121213 0.000477586 0)
(-0.00020773 0.000440836 0)
(-0.000285917 0.000389383 0)
(-0.000352587 0.000325218 0)
(-0.000405617 0.00025025 0)
(-0.000442866 0.000167241 0)
(-0.000462496 7.92891e-05 0)
(-0.000463691 -1.01482e-05 0)
(-0.000446709 -9.79533e-05 0)
(-0.000411925 -0.000180285 0)
(-0.000360748 -0.000253885 0)
(-0.00029496 -0.00031556 0)
(-0.000217327 -0.000362646 0)
(-0.000131637 -0.000392949 0)
(-4.10005e-05 -0.000405085 0)
(5.00146e-05 -0.000398467 0)
(0.000136797 -0.00037335 0)
(0.000215552 -0.000331032 0)
(0.000282491 -0.000273572 0)
(0.000334199 -0.000203868 0)
(0.000368018 -0.000125574 0)
(0.000382228 -4.25491e-05 0)
(0.000376291 4.01598e-05 0)
(0.000350819 0.00011866 0)
(0.000307123 0.000188318 0)
(0.00024777 0.000245355 0)
(0.000176634 0.00028649 0)
(9.77496e-05 0.000309522 0)
(1.57869e-05 0.000313434 0)
(-6.36584e-05 0.000297773 0)
(-0.000135425 0.000264276 0)
(-0.000195211 0.000215496 0)
(-0.000239551 0.000155057 0)
(-0.000265675 8.71818e-05 0)
(-0.000272164 1.68824e-05 0)
(-0.000259318 -5.03019e-05 0)
(-0.000228819 -0.000110102 0)
(-0.000183552 -0.000157934 0)
(-0.000127368 -0.000190634 0)
(-6.52638e-05 -0.000206189 0)
(-2.52116e-06 -0.000203921 0)
(5.54709e-05 -0.000184807 0)
(0.000103661 -0.000151418 0)
(0.000138507 -0.000107486 0)
(0.000157596 -5.75916e-05 0)
(0.000159904 -6.91744e-06 0)
(0.000146342 3.95195e-05 0)
(0.000119393 7.72456e-05 0)
(8.27056e-05 0.000102718 0)
(4.09486e-05 0.000114037 0)
(-1.07357e-06 0.000110502 0)
(-3.80194e-05 9.3508e-05 0)
(-6.55293e-05 6.59736e-05 0)
(-8.10762e-05 3.17931e-05 0)
(-8.32569e-05 -4.44799e-06 0)
(-7.25576e-05 -3.82228e-05 0)
(-5.09813e-05 -6.54211e-05 0)
(-2.17147e-05 -8.29005e-05 0)
(1.21237e-05 -8.92491e-05 0)
(4.52207e-05 -8.35902e-05 0)
(7.27247e-05 -6.77281e-05 0)
(9.23527e-05 -4.41408e-05 0)
(0.000101867 -1.62748e-05 0)
(0.000100642 1.22375e-05 0)
(8.94289e-05 3.78489e-05 0)
(7.00857e-05 5.77058e-05 0)
(4.54077e-05 6.97929e-05 0)
(1.87005e-05 7.32803e-05 0)
(-6.99778e-06 6.84409e-05 0)
(-2.87405e-05 5.66007e-05 0)
(-4.4274e-05 3.98944e-05 0)
(-5.26199e-05 2.07506e-05 0)
(-5.35714e-05 1.71832e-06 0)
(-4.79357e-05 -1.4977e-05 0)
(-3.71876e-05 -2.76705e-05 0)
(-2.32066e-05 -3.53191e-05 0)
(-8.10907e-06 -3.77135e-05 0)
(6.14577e-06 -3.52031e-05 0)
(1.78701e-05 -2.90216e-05 0)
(2.6008e-05 -2.04017e-05 0)
(3.01961e-05 -1.08893e-05 0)
(3.05474e-05 -1.83198e-06 0)
(2.7738e-05 5.61353e-06 0)
(2.2771e-05 1.07178e-05 0)
(1.67877e-05 1.32853e-05 0)
(1.09057e-05 1.35038e-05 0)
(6.01319e-06 1.20439e-05 0)
(2.6112e-06 9.73421e-06 0)
(7.57683e-07 7.46994e-06 0)
(1.00754e-07 6.07812e-06 0)
(4.41704e-06 -0.000511312 0)
(1.45878e-05 -0.000506651 0)
(2.55341e-05 -0.000496174 0)
(4.16497e-05 -0.000480727 0)
(5.88646e-05 -0.000458555 0)
(8.50719e-05 -0.000432805 0)
(0.000112466 -0.000396486 0)
(0.000151134 -0.000362463 0)
(0.000194485 -0.000315906 0)
(0.000236321 -0.00027972 0)
(0.00028098 -0.000246816 0)
(0.000317954 -0.000225591 0)
(0.000352762 -0.000212146 0)
(0.0003795 -0.000209432 0)
(0.000399943 -0.000215435 0)
(0.000414371 -0.000229809 0)
(0.000424188 -0.000251159 0)
(0.000428677 -0.00027804 0)
(0.000432783 -0.00030918 0)
(0.000437963 -0.000342499 0)
(0.000442773 -0.000377308 0)
(0.000452771 -0.000414414 0)
(0.000466723 -0.000450747 0)
(0.000490968 -0.000488259 0)