/*--------------------------------*- C++ -*----------------------------------*\
  =========                 |
  \\      /  F ield         | OpenFOAM: The Open Source CFD Toolbox
   \\    /   O peration     | Website:  https://openfoam.org
    \\  /    A nd           | Version:  12
     \\/     M anipulation  |
\*---------------------------------------------------------------------------*/
FoamFile
{
    format      ascii;
    class       volVectorField;
    location    "10";
    object      zeta;
}
// * * * * * * * * * * * * * * * * * * * * * * * * * * * * * * * * * * * * * //

dimensions      [0 1 0 0 0 0 0];

internalField   uniform (0 0 0);

boundaryField
{
    freeSurface
    {
        type            calculated;
        value           nonuniform List<vector> 
181
(
(0 0.00606186 0)
(0 0.0060615 0)
(0 0.00606091 0)
(0 0.00605987 0)
(0 0.0060591 0)
(0 0.00605777 0)
(0 0.00605759 0)
(0 0.00605606 0)
(0 0.000827697 0)
(0 0.000834216 0)
(0 0.000850149 0)
(0 0.000870319 0)
(0 0.000896239 0)
(0 0.000927446 0)
(0 0.000962135 0)
(0 0.00100005 0)
(0 0.00103979 0)
(0 0.00108073 0)
(0 0.00112151 0)
(0 0.00116119 0)
(0 0.00119841 0)
(0 0.00123246 0)
(0 0.00126232 0)
(0 0.00128727 0)
(0 0.00130656 0)
(0 0.00131963 0)
(0 0.00132577 0)
(0 0.00132429 0)
(0 0.0013147 0)
(0 0.00129668 0)
(0 0.00126996 0)
(0 0.00123441 0)
(0 0.00118995 0)
(0 0.00113659 0)
(0 0.00107446 0)
(0 0.00100381 0)
(0 0.000924995 0)
(0 0.00083851 0)
(0 0.000744941 0)
(0 0.000644941 0)
(0 0.000539352 0)
(0 0.000429011 0)
(0 0.000314957 0)
(0 0.000198303 0)
(0 8.02852e-05 0)
(0 -3.7809e-05 0)
(0 -0.000154696 0)
(0 -0.000268988 0)
(0 -0.000379176 0)
(0 -0.000483823 0)
(0 -0.000581445 0)
(0 -0.000670675 0)
(0 -0.000750189 0)
(0 -0.000818673 0)
(0 -0.000874996 0)
(0 -0.000918112 0)
(0 -0.000947141 0)
(0 -0.000961486 0)
(0 -0.000960644 0)
(0 -0.000944289 0)
(0 -0.000912423 0)
(0 -0.000865284 0)
(0 -0.000803486 0)
(0 -0.000727903 0)
(0 -0.000639545 0)
(0 -0.000539871 0)
(0 -0.000430554 0)
(0 -0.000313639 0)
(0 -0.000191274 0)
(0 -6.58254e-05 0)
(0 6.01691e-05 0)
(0 0.000183962 0)
(0 0.000302929 0)
(0 0.000414364 0)
(0 0.000515582 0)
(0 0.000604093 0)
(0 0.000677616 0)
(0 0.000734147 0)
(0 0.00077189 0)
(0 0.00078967 0)
(0 0.000786854 0)
(0 0.00076297 0)
(0 0.000718543 0)
(0 0.000654463 0)
(0 0.000572291 0)
(0 0.000474169 0)
(0 0.000362819 0)
(0 0.000241369 0)
(0 0.000113493 0)
(0 -1.68024e-05 0)
(0 -0.000145432 0)
(0 -0.000268154 0)
(0 -0.000380658 0)
(0 -0.000479075 0)
(0 -0.000559802 0)
(0 -0.000619687 0)
(0 -0.000656531 0)
(0 -0.000668663 0)
(0 -0.00065545 0)
(0 -0.00061732 0)
(0 -0.000555655 0)
(0 -0.000472964 0)
(0 -0.000372693 0)
(0 -0.000259176 0)
(0 -0.00013727 0)
(0 -1.27356e-05 0)
(0 0.0001089 0)
(0 0.00022179 0)
(0 0.000320534 0)
(0 0.000400238 0)
(0 0.000456964 0)
(0 0.000487781 0)
(0 0.000491221 0)
(0 0.000467396 0)
(0 0.000417679 0)
(0 0.00034529 0)
(0 0.000254666 0)
(0 0.000151547 0)
(0 4.24777e-05 0)
(0 -6.554e-05 0)
(0 -0.000165793 0)
(0 -0.000251665 0)
(0 -0.000317504 0)
(0 -0.000359109 0)
(0 -0.000373982 0)
(0 -0.000361601 0)
(0 -0.000323493 0)
(0 -0.000263259 0)
(0 -0.000186178 0)
(0 -9.88847e-05 0)
(0 -8.84561e-06 0)
(0 7.63843e-05 0)
(0 0.000149847 0)
(0 0.000205355 0)
(0 0.000238456 0)
(0 0.000246863 0)
(0 0.000230693 0)
(0 0.000192611 0)
(0 0.000137578 0)
(0 7.23076e-05 0)
(0 4.54818e-06 0)
(0 -5.81654e-05 0)
(0 -0.000109177 0)
(0 -0.000143328 0)
(0 -0.000157866 0)
(0 -0.000152658 0)
(0 -0.000130054 0)
(0 -9.44808e-05 0)
(0 -5.17581e-05 0)
(0 -8.43696e-06 0)
(0 2.99313e-05 0)
(0 5.8594e-05 0)
(0 7.45573e-05 0)
(0 7.68689e-05 0)
(0 6.64956e-05 0)
(0 4.60375e-05 0)
(0 1.91749e-05 0)
(0 -9.92435e-06 0)
(0 -3.7137e-05 0)
(0 -5.91027e-05 0)
(0 -7.33221e-05 0)
(0 -7.84726e-05 0)
(0 -7.45015e-05 0)
(0 -6.25551e-05 0)
(0 -4.46271e-05 0)
(0 -2.31991e-05 0)
(0 -9.48013e-07 0)
(0 1.96032e-05 0)
(0 3.6367e-05 0)
(0 4.77836e-05 0)
(0 5.30014e-05 0)
(0 5.18106e-05 0)
(0 4.45941e-05 0)
(0 3.23974e-05 0)
(0 1.65989e-05 0)
(0 -1.22697e-06 0)
(0 -1.94154e-05 0)
(0 -3.63624e-05 0)
(0 -5.06017e-05 0)
(0 -6.09077e-05 0)
(0 -6.63518e-05 0)
)
;
    }
    walls
    {
        type            calculated;
        value           uniform (0 0 0);
    }
    floatingObject
    {
        type            calculated;
        value           uniform (0 0 0);
    }
    frontAndBack
    {
        type            empty;
    }
}


// ************************************************************************* //
