/*--------------------------------*- C++ -*----------------------------------*\
  =========                 |
  \\      /  F ield         | OpenFOAM: The Open Source CFD Toolbox
   \\    /   O peration     | Website:  https://openfoam.org
    \\  /    A nd           | Version:  12
     \\/     M anipulation  |
\*---------------------------------------------------------------------------*/
FoamFile
{
    format      ascii;
    class       volScalarField;
    location    "8.6";
    object      p;
}
// * * * * * * * * * * * * * * * * * * * * * * * * * * * * * * * * * * * * * //

dimensions      [1 -1 -2 0 0 0 0];

internalField   nonuniform List<scalar> 
3829
(
-610.469
-610.471
-610.473
-610.477
-610.482
-610.488
-610.496
-610.505
-610.515
-610.527
-610.541
-610.558
-610.577
-610.598
-610.623
-610.65
-610.68
-610.712
-610.748
-610.787
-610.83
-610.875
-610.924
-610.975
-611.031
-611.09
-611.151
-611.216
-611.283
-611.353
-611.426
-611.501
-611.581
-611.661
-611.744
-611.829
-611.916
-612.004
-612.093
-612.183
-612.274
-612.365
-612.456
-612.546
-612.635
-612.723
-612.81
-612.894
-612.977
-613.056
-613.133
-613.206
-613.276
-613.343
-613.405
-613.463
-613.516
-613.564
-613.607
-613.645
-613.678
-613.706
-613.73
-613.75
-613.765
-613.777
-613.784
-613.788
-613.789
-613.788
-613.784
-613.779
-613.772
-613.765
-613.758
-613.751
-613.745
-613.741
-613.739
-613.74
-613.744
-613.751
-613.762
-613.777
-613.797
-613.821
-613.849
-613.882
-613.918
-613.958
-614.001
-614.046
-614.093
-614.142
-614.191
-614.239
-614.286
-614.331
-614.372
-614.41
-614.442
-614.469
-614.49
-614.504
-614.511
-614.511
-614.503
-614.489
-614.469
-614.443
-614.412
-614.377
-614.34
-614.302
-614.264
-614.228
-614.194
-614.164
-614.14
-614.121
-614.109
-614.105
-614.108
-614.118
-614.134
-614.157
-614.184
-614.214
-614.246
-614.278
-614.309
-614.337
-614.361
-614.38
-614.392
-614.399
-614.397
-614.389
-614.376
-614.359
-614.339
-614.318
-614.297
-614.278
-614.263
-614.252
-614.247
-614.248
-614.254
-614.265
-614.28
-614.298
-614.317
-614.335
-614.352
-614.365
-614.375
-614.378
-614.377
-614.372
-614.365
-614.351
-614.341
-614.331
-614.323
-614.319
-614.318
-614.322
-614.33
-614.341
-614.355
-614.37
-614.384
-614.397
-614.407
-614.412
-614.413
-614.408
-614.398
-614.384
-614.366
-614.345
-614.324
-614.303
-614.285
-614.269
-614.259
-614.254
-614.254
-614.26
-614.272
-614.288
-614.31
-614.332
-614.355
-614.378
-614.398
-614.415
-614.427
-614.433
-1768.63
-1768.63
-1768.64
-1768.64
-1768.65
-1768.65
-1768.66
-1768.68
-1768.69
-1768.71
-1768.73
-1768.75
-1768.77
-1768.8
-1768.82
-1768.85
-1768.88
-1768.92
-1768.96
-1769
-1769.04
-1769.09
-1769.14
-1769.2
-1769.25
-1769.32
-1769.38
-1769.45
-1769.53
-1769.61
-1769.69
-1769.78
-1769.87
-1769.97
-1770.06
-1770.16
-1770.26
-1770.36
-1770.46
-1770.57
-1770.67
-1770.77
-1770.87
-1770.97
-1771.07
-1771.17
-1771.27
-1771.36
-1771.45
-1771.53
-1771.62
-1771.69
-1771.77
-1771.84
-1771.9
-1771.96
-1772.01
-1772.06
-1772.1
-1772.13
-1772.16
-1772.18
-1772.2
-1772.21
-1772.22
-1772.22
-1772.22
-1772.22
-1772.21
-1772.2
-1772.19
-1772.17
-1772.15
-1772.14
-1772.12
-1772.11
-1772.09
-1772.08
-1772.07
-1772.07
-1772.07
-1772.07
-1772.08
-1772.1
-1772.12
-1772.14
-1772.17
-1772.21
-1772.25
-1772.3
-1772.35
-1772.4
-1772.46
-1772.51
-1772.57
-1772.63
-1772.68
-1772.73
-1772.78
-1772.83
-1772.86
-1772.89
-1772.92
-1772.93
-1772.94
-1772.93
-1772.92
-1772.9
-1772.88
-1772.84
-1772.81
-1772.76
-1772.72
-1772.67
-1772.62
-1772.58
-1772.54
-1772.5
-1772.47
-1772.45
-1772.44
-1772.44
-1772.44
-1772.45
-1772.48
-1772.5
-1772.54
-1772.58
-1772.62
-1772.65
-1772.69
-1772.73
-1772.75
-1772.77
-1772.79
-1772.79
-1772.79
-1772.78
-1772.76
-1772.74
-1772.71
-1772.69
-1772.66
-1772.64
-1772.62
-1772.61
-1772.6
-1772.6
-1772.61
-1772.62
-1772.64
-1772.66
-1772.69
-1772.71
-1772.73
-1772.74
-1772.75
-1772.76
-1772.76
-1772.75
-1772.74
-1772.72
-1772.71
-1772.7
-1772.69
-1772.68
-1772.68
-1772.68
-1772.69
-1772.71
-1772.72
-1772.74
-1772.76
-1772.77
-1772.78
-1772.79
-1772.79
-1772.79
-1772.77
-1772.76
-1772.74
-1772.72
-1772.69
-1772.67
-1772.65
-1772.63
-1772.62
-1772.62
-1772.62
-1772.62
-1772.64
-1772.65
-1772.68
-1772.7
-1772.73
-1772.75
-1772.77
-1772.79
-1772.8
-1772.81
-2794.67
-2794.67
-2794.67
-2794.68
-2794.68
-2794.68
-2794.68
-2794.68
-2794.69
-2794.69
-2794.7
-2794.7
-2794.71
-2794.73
-2794.75
-2794.77
-2794.8
-2794.83
-2794.87
-2794.91
-2794.95
-2795
-2795.06
-2795.13
-2795.2
-2795.27
-2795.35
-2795.44
-2795.54
-2795.63
-2795.73
-2795.84
-2795.94
-2796.05
-2796.17
-2796.29
-2796.41
-2796.53
-2796.65
-2796.77
-2796.9
-2797.02
-2797.14
-2797.26
-2797.37
-2797.49
-2797.6
-2797.7
-2797.8
-2797.9
-2797.99
-2798.08
-2798.15
-2798.23
-2798.29
-2798.35
-2798.4
-2798.44
-2798.48
-2798.5
-2798.52
-2798.54
-2798.54
-2798.54
-2798.54
-2798.52
-2798.51
-2798.48
-2798.46
-2798.43
-2798.4
-2798.36
-2798.33
-2798.29
-2798.26
-2798.23
-2798.2
-2798.18
-2798.16
-2798.15
-2798.14
-2798.14
-2798.14
-2798.16
-2798.18
-2798.21
-2798.25
-2798.29
-2798.34
-2798.4
-2798.46
-2798.53
-2798.6
-2798.67
-2798.75
-2798.82
-2798.89
-2798.96
-2799.02
-2799.07
-2799.12
-2799.16
-2799.18
-2799.2
-2799.2
-2799.2
-2799.18
-2799.15
-2799.11
-2799.06
-2799.01
-2798.95
-2798.89
-2798.82
-2798.76
-2798.7
-2798.65
-2798.6
-2798.57
-2798.54
-2798.52
-2798.52
-2798.53
-2798.55
-2798.58
-2798.62
-2798.67
-2798.72
-2798.78
-2798.83
-2798.88
-2798.92
-2798.96
-2798.98
-2799
-2799
-2798.99
-2798.98
-2798.95
-2798.92
-2798.88
-2798.84
-2798.81
-2798.78
-2798.75
-2798.73
-2798.73
-2798.73
-2798.74
-2798.76
-2798.79
-2798.82
-2798.85
-2798.88
-2798.91
-2798.92
-2798.93
-2798.94
-2798.93
-2798.92
-2798.91
-2798.89
-2798.87
-2798.85
-2798.84
-2798.83
-2798.83
-2798.83
-2798.84
-2798.86
-2798.88
-2798.9
-2798.92
-2798.94
-2798.96
-2798.96
-2798.96
-2798.96
-2798.95
-2798.93
-2798.9
-2798.88
-2798.85
-2798.82
-2798.8
-2798.78
-2798.77
-2798.76
-2798.77
-2798.77
-2798.79
-2798.81
-2798.83
-2798.86
-2798.89
-2798.91
-2798.94
-2798.96
-2798.97
-2798.98
-3703.47
-3703.47
-3703.46
-3703.46
-3703.45
-3703.44
-3703.44
-3703.43
-3703.42
-3703.41
-3703.41
-3703.4
-3703.4
-3703.4
-3703.41
-3703.42
-3703.44
-3703.46
-3703.49
-3703.53
-3703.58
-3703.63
-3703.7
-3703.77
-3703.85
-3703.94
-3704.04
-3704.15
-3704.26
-3704.38
-3704.51
-3704.65
-3704.8
-3704.95
-3705.1
-3705.25
-3705.41
-3705.56
-3705.72
-3705.88
-3706.03
-3706.18
-3706.33
-3706.48
-3706.62
-3706.75
-3706.88
-3707.01
-3707.12
-3707.23
-3707.34
-3707.43
-3707.51
-3707.59
-3707.65
-3707.71
-3707.76
-3707.79
-3707.82
-3707.84
-3707.84
-3707.84
-3707.83
-3707.81
-3707.78
-3707.75
-3707.71
-3707.66
-3707.61
-3707.55
-3707.49
-3707.43
-3707.37
-3707.31
-3707.26
-3707.21
-3707.16
-3707.12
-3707.08
-3707.05
-3707.04
-3707.03
-3707.03
-3707.04
-3707.07
-3707.11
-3707.15
-3707.21
-3707.28
-3707.35
-3707.44
-3707.53
-3707.62
-3707.72
-3707.81
-3707.91
-3708
-3708.09
-3708.17
-3708.24
-3708.3
-3708.34
-3708.37
-3708.39
-3708.39
-3708.38
-3708.35
-3708.31
-3708.25
-3708.18
-3708.11
-3708.02
-3707.94
-3707.85
-3707.76
-3707.68
-3707.61
-3707.55
-3707.5
-3707.47
-3707.45
-3707.46
-3707.47
-3707.5
-3707.55
-3707.61
-3707.67
-3707.75
-3707.82
-3707.89
-3707.96
-3708.01
-3708.06
-3708.09
-3708.11
-3708.11
-3708.09
-3708.07
-3708.03
-3707.98
-3707.93
-3707.87
-3707.82
-3707.78
-3707.75
-3707.73
-3707.72
-3707.73
-3707.74
-3707.77
-3707.81
-3707.85
-3707.9
-3707.94
-3707.97
-3707.99
-3708
-3708.01
-3708
-3707.98
-3707.96
-3707.93
-3707.9
-3707.88
-3707.86
-3707.85
-3707.84
-3707.85
-3707.87
-3707.89
-3707.91
-3707.94
-3707.97
-3707.99
-3708.01
-3708.02
-3708.02
-3708.02
-3708
-3707.98
-3707.95
-3707.92
-3707.89
-3707.86
-3707.83
-3707.81
-3707.79
-3707.79
-3707.79
-3707.8
-3707.82
-3707.84
-3707.87
-3707.9
-3707.93
-3707.96
-3707.98
-3708.01
-3708.02
-3708.03
-4508.6
-4508.6
-4508.58
-4508.56
-4508.54
-4508.51
-4508.48
-4508.44
-4508.4
-4508.36
-4508.33
-4508.29
-4508.26
-4508.23
-4508.21
-4508.2
-4508.19
-4508.2
-4508.21
-4508.24
-4508.29
-4508.35
-4508.43
-4508.52
-4508.62
-4508.74
-4508.87
-4509.02
-4509.18
-4509.35
-4509.53
-4509.71
-4509.9
-4510.09
-4510.29
-4510.49
-4510.69
-4510.89
-4511.09
-4511.28
-4511.48
-4511.67
-4511.85
-4512.03
-4512.2
-4512.36
-4512.51
-4512.66
-4512.79
-4512.92
-4513.03
-4513.13
-4513.22
-4513.3
-4513.37
-4513.42
-4513.46
-4513.48
-4513.5
-4513.5
-4513.49
-4513.46
-4513.43
-4513.38
-4513.33
-4513.26
-4513.19
-4513.11
-4513.02
-4512.93
-4512.84
-4512.75
-4512.65
-4512.56
-4512.48
-4512.4
-4512.32
-4512.26
-4512.2
-4512.16
-4512.13
-4512.11
-4512.11
-4512.13
-4512.16
-4512.21
-4512.27
-4512.34
-4512.43
-4512.53
-4512.64
-4512.76
-4512.88
-4513.01
-4513.14
-4513.26
-4513.38
-4513.5
-4513.6
-4513.69
-4513.77
-4513.82
-4513.86
-4513.88
-4513.88
-4513.85
-4513.81
-4513.75
-4513.67
-4513.57
-4513.47
-4513.35
-4513.23
-4513.12
-4513
-4512.89
-4512.8
-4512.72
-4512.66
-4512.62
-4512.6
-4512.61
-4512.63
-4512.68
-4512.75
-4512.83
-4512.92
-4513.02
-4513.12
-4513.21
-4513.3
-4513.38
-4513.44
-4513.47
-4513.49
-4513.49
-4513.46
-4513.42
-4513.36
-4513.3
-4513.22
-4513.15
-4513.08
-4513.02
-4512.98
-4512.95
-4512.94
-4512.96
-4512.98
-4513.03
-4513.08
-4513.14
-4513.19
-4513.25
-4513.29
-4513.32
-4513.33
-4513.33
-4513.32
-4513.29
-4513.26
-4513.22
-4513.18
-4513.15
-4513.12
-4513.11
-4513.1
-4513.11
-4513.13
-4513.16
-4513.2
-4513.23
-4513.27
-4513.3
-4513.32
-4513.33
-4513.33
-4513.33
-4513.31
-4513.28
-4513.25
-4513.21
-4513.17
-4513.14
-4513.1
-4513.08
-4513.06
-4513.06
-4513.06
-4513.07
-4513.09
-4513.12
-4513.15
-4513.18
-4513.22
-4513.25
-4513.28
-4513.31
-4513.32
-4513.33
-5222.08
-5222.07
-5222.04
-5221.99
-5221.94
-5221.86
-5221.78
-5221.69
-5221.59
-5221.48
-5221.37
-5221.27
-5221.17
-5221.08
-5221
-5220.93
-5220.88
-5220.85
-5220.84
-5220.86
-5220.89
-5220.96
-5221.04
-5221.16
-5221.29
-5221.45
-5221.63
-5221.84
-5222.06
-5222.29
-5222.53
-5222.78
-5223.04
-5223.3
-5223.56
-5223.82
-5224.08
-5224.34
-5224.59
-5224.84
-5225.08
-5225.31
-5225.53
-5225.75
-5225.95
-5226.14
-5226.32
-5226.49
-5226.64
-5226.78
-5226.9
-5227.01
-5227.11
-5227.18
-5227.24
-5227.29
-5227.32
-5227.33
-5227.33
-5227.31
-5227.28
-5227.23
-5227.16
-5227.09
-5226.99
-5226.89
-5226.78
-5226.66
-5226.53
-5226.4
-5226.27
-5226.14
-5226
-5225.88
-5225.75
-5225.64
-5225.54
-5225.44
-5225.37
-5225.31
-5225.27
-5225.24
-5225.24
-5225.26
-5225.29
-5225.35
-5225.43
-5225.52
-5225.64
-5225.77
-5225.91
-5226.07
-5226.23
-5226.39
-5226.56
-5226.72
-5226.88
-5227.03
-5227.16
-5227.27
-5227.37
-5227.44
-5227.48
-5227.5
-5227.49
-5227.45
-5227.39
-5227.31
-5227.2
-5227.07
-5226.93
-5226.78
-5226.62
-5226.46
-5226.31
-5226.17
-5226.05
-5225.95
-5225.87
-5225.82
-5225.8
-5225.82
-5225.86
-5225.92
-5226.02
-5226.13
-5226.25
-5226.38
-5226.51
-5226.64
-5226.75
-5226.85
-5226.92
-5226.97
-5226.99
-5226.98
-5226.94
-5226.88
-5226.8
-5226.71
-5226.61
-5226.51
-5226.42
-5226.34
-5226.28
-5226.25
-5226.25
-5226.26
-5226.3
-5226.36
-5226.43
-5226.51
-5226.59
-5226.65
-5226.71
-5226.74
-5226.76
-5226.76
-5226.73
-5226.7
-5226.65
-5226.6
-5226.55
-5226.5
-5226.47
-5226.45
-5226.45
-5226.46
-5226.49
-5226.53
-5226.57
-5226.61
-5226.66
-5226.7
-5226.72
-5226.74
-5226.74
-5226.73
-5226.71
-5226.67
-5226.63
-5226.59
-5226.55
-5226.5
-5226.47
-5226.44
-5226.42
-5226.41
-5226.42
-5226.43
-5226.46
-5226.49
-5226.52
-5226.56
-5226.6
-5226.64
-5226.67
-5226.7
-5226.72
-5226.73
-5854.41
-5854.38
-5854.32
-5854.23
-5854.11
-5853.96
-5853.79
-5853.6
-5853.39
-5853.17
-5852.94
-5852.71
-5852.49
-5852.29
-5852.11
-5851.96
-5851.84
-5851.75
-5851.69
-5851.68
-5851.71
-5851.79
-5851.91
-5852.07
-5852.27
-5852.51
-5852.78
-5853.08
-5853.4
-5853.73
-5854.08
-5854.43
-5854.78
-5855.13
-5855.47
-5855.81
-5856.14
-5856.46
-5856.77
-5857.07
-5857.35
-5857.63
-5857.89
-5858.14
-5858.38
-5858.6
-5858.8
-5858.99
-5859.16
-5859.31
-5859.45
-5859.56
-5859.66
-5859.74
-5859.79
-5859.83
-5859.84
-5859.84
-5859.82
-5859.77
-5859.71
-5859.62
-5859.52
-5859.41
-5859.28
-5859.13
-5858.97
-5858.81
-5858.63
-5858.45
-5858.27
-5858.09
-5857.91
-5857.74
-5857.58
-5857.42
-5857.29
-5857.16
-5857.06
-5856.98
-5856.93
-5856.9
-5856.89
-5856.91
-5856.96
-5857.03
-5857.13
-5857.25
-5857.4
-5857.57
-5857.75
-5857.95
-5858.15
-5858.36
-5858.57
-5858.78
-5858.98
-5859.16
-5859.33
-5859.47
-5859.59
-5859.67
-5859.73
-5859.74
-5859.73
-5859.67
-5859.59
-5859.47
-5859.33
-5859.16
-5858.98
-5858.78
-5858.58
-5858.38
-5858.19
-5858.01
-5857.86
-5857.73
-5857.64
-5857.58
-5857.57
-5857.58
-5857.64
-5857.73
-5857.85
-5858
-5858.16
-5858.33
-5858.5
-5858.66
-5858.8
-5858.92
-5859.01
-5859.07
-5859.09
-5859.07
-5859.02
-5858.93
-5858.82
-5858.7
-5858.57
-5858.44
-5858.32
-5858.23
-5858.16
-5858.12
-5858.11
-5858.14
-5858.2
-5858.28
-5858.37
-5858.47
-5858.57
-5858.65
-5858.72
-5858.76
-5858.78
-5858.77
-5858.74
-5858.69
-5858.63
-5858.56
-5858.49
-5858.44
-5858.4
-5858.37
-5858.37
-5858.39
-5858.42
-5858.47
-5858.52
-5858.58
-5858.63
-5858.68
-5858.71
-5858.73
-5858.73
-5858.72
-5858.69
-5858.65
-5858.6
-5858.55
-5858.5
-5858.45
-5858.41
-5858.38
-5858.36
-5858.35
-5858.36
-5858.37
-5858.4
-5858.44
-5858.48
-5858.52
-5858.56
-5858.61
-5858.64
-5858.67
-5858.69
-5858.71
-6415.27
-6415.21
-6415.09
-6414.91
-6414.66
-6414.36
-6414.01
-6413.6
-6413.16
-6412.71
-6412.27
-6411.85
-6411.45
-6411.09
-6410.77
-6410.5
-6410.29
-6410.13
-6410.03
-6410
-6410.03
-6410.13
-6410.3
-6410.53
-6410.84
-6411.2
-6411.63
-6412.09
-6412.58
-6413.06
-6413.54
-6414.01
-6414.46
-6414.91
-6415.34
-6415.75
-6416.15
-6416.54
-6416.91
-6417.26
-6417.59
-6417.91
-6418.21
-6418.49
-6418.76
-6419
-6419.23
-6419.44
-6419.62
-6419.79
-6419.93
-6420.05
-6420.15
-6420.22
-6420.27
-6420.29
-6420.29
-6420.27
-6420.22
-6420.15
-6420.05
-6419.93
-6419.79
-6419.63
-6419.45
-6419.25
-6419.05
-6418.83
-6418.6
-6418.36
-6418.13
-6417.9
-6417.67
-6417.44
-6417.23
-6417.04
-6416.86
-6416.71
-6416.58
-6416.48
-6416.41
-6416.37
-6416.36
-6416.39
-6416.45
-6416.54
-6416.66
-6416.82
-6417
-6417.21
-6417.44
-6417.69
-6417.95
-6418.21
-6418.47
-6418.73
-6418.97
-6419.2
-6419.4
-6419.58
-6419.72
-6419.82
-6419.88
-6419.89
-6419.87
-6419.8
-6419.69
-6419.54
-6419.35
-6419.14
-6418.91
-6418.66
-6418.4
-6418.15
-6417.92
-6417.7
-6417.51
-6417.36
-6417.25
-6417.18
-6417.17
-6417.19
-6417.27
-6417.39
-6417.55
-6417.73
-6417.94
-6418.15
-6418.36
-6418.57
-6418.74
-6418.89
-6419
-6419.06
-6419.08
-6419.05
-6418.98
-6418.87
-6418.73
-6418.57
-6418.4
-6418.24
-6418.09
-6417.97
-6417.89
-6417.85
-6417.84
-6417.88
-6417.95
-6418.06
-6418.18
-6418.3
-6418.42
-6418.53
-6418.61
-6418.66
-6418.68
-6418.67
-6418.62
-6418.55
-6418.47
-6418.39
-6418.31
-6418.24
-6418.19
-6418.16
-6418.16
-6418.18
-6418.23
-6418.28
-6418.35
-6418.42
-6418.48
-6418.53
-6418.57
-6418.59
-6418.6
-6418.58
-6418.55
-6418.5
-6418.44
-6418.39
-6418.33
-6418.27
-6418.23
-6418.19
-6418.17
-6418.16
-6418.17
-6418.19
-6418.22
-6418.26
-6418.3
-6418.35
-6418.4
-6418.45
-6418.49
-6418.52
-6418.54
-6418.56
-6913.03
-6912.93
-6912.74
-6912.44
-6912.05
-6911.55
-6910.97
-6910.31
-6909.58
-6908.81
-6908.03
-6907.28
-6906.58
-6905.95
-6905.39
-6904.92
-6904.53
-6904.25
-6904.06
-6903.98
-6904
-6904.14
-6904.38
-6904.74
-6905.19
-6905.75
-6906.38
-6907.09
-6907.79
-6908.49
-6909.16
-6909.79
-6910.38
-6910.94
-6911.46
-6911.95
-6912.42
-6912.86
-6913.27
-6913.67
-6914.02
-6914.37
-6914.71
-6915.02
-6915.31
-6915.58
-6915.83
-6916.05
-6916.25
-6916.42
-6916.57
-6916.7
-6916.79
-6916.86
-6916.9
-6916.91
-6916.89
-6916.84
-6916.76
-6916.66
-6916.52
-6916.36
-6916.18
-6915.97
-6915.74
-6915.49
-6915.23
-6914.95
-6914.66
-6914.37
-6914.07
-6913.78
-6913.5
-6913.22
-6912.96
-6912.72
-6912.51
-6912.32
-6912.16
-6912.03
-6911.95
-6911.9
-6911.89
-6911.92
-6912
-6912.11
-6912.27
-6912.46
-6912.69
-6912.94
-6913.23
-6913.53
-6913.84
-6914.16
-6914.48
-6914.79
-6915.09
-6915.36
-6915.61
-6915.81
-6915.98
-6916.1
-6916.16
-6916.18
-6916.14
-6916.05
-6915.91
-6915.72
-6915.49
-6915.23
-6914.94
-6914.64
-6914.33
-6914.02
-6913.73
-6913.47
-6913.24
-6913.06
-6912.93
-6912.86
-6912.84
-6912.89
-6912.99
-6913.14
-6913.33
-6913.56
-6913.82
-6914.08
-6914.34
-6914.59
-6914.8
-6914.98
-6915.1
-6915.17
-6915.19
-6915.15
-6915.05
-6914.91
-6914.74
-6914.54
-6914.33
-6914.13
-6913.96
-6913.81
-6913.71
-6913.66
-6913.66
-6913.71
-6913.81
-6913.94
-6914.09
-6914.24
-6914.39
-6914.52
-6914.61
-6914.67
-6914.69
-6914.67
-6914.61
-6914.53
-6914.42
-6914.32
-6914.22
-6914.14
-6914.08
-6914.05
-6914.05
-6914.08
-6914.13
-6914.2
-6914.28
-6914.36
-6914.43
-6914.5
-6914.54
-6914.56
-6914.56
-6914.54
-6914.51
-6914.45
-6914.39
-6914.32
-6914.25
-6914.19
-6914.14
-6914.1
-6914.08
-6914.07
-6914.08
-6914.1
-6914.14
-6914.18
-6914.23
-6914.29
-6914.34
-6914.39
-6914.43
-6914.47
-6914.5
-6914.51
-7355.3
-7355.16
-7354.86
-7354.4
-7353.75
-7352.88
-7351.76
-7350.33
-7348.38
-7346.86
-7345.54
-7344.4
-7343.42
-7342.58
-7341.87
-7341.29
-7340.84
-7340.52
-7340.33
-7340.26
-7340.33
-7340.54
-7340.89
-7341.4
-7342.1
-7342.99
-7344.08
-7345.66
-7346.79
-7347.76
-7348.6
-7349.34
-7350.01
-7350.62
-7351.19
-7351.72
-7352.22
-7352.69
-7353.13
-7353.55
-7353.94
-7354.31
-7354.67
-7355
-7355.31
-7355.6
-7355.86
-7356.1
-7356.31
-7356.5
-7356.65
-7356.78
-7356.87
-7356.93
-7356.96
-7356.96
-7356.92
-7356.84
-7356.73
-7356.59
-7356.42
-7356.22
-7355.98
-7355.72
-7355.44
-7355.13
-7354.8
-7354.47
-7354.12
-7353.76
-7353.4
-7353.05
-7352.71
-7352.38
-7352.06
-7351.78
-7351.52
-7351.29
-7351.1
-7350.95
-7350.85
-7350.79
-7350.79
-7350.83
-7350.92
-7351.06
-7351.25
-7351.48
-7351.76
-7352.06
-7352.4
-7352.76
-7353.14
-7353.52
-7353.9
-7354.27
-7354.62
-7354.95
-7355.23
-7355.48
-7355.67
-7355.8
-7355.88
-7355.89
-7355.84
-7355.72
-7355.55
-7355.32
-7355.04
-7354.72
-7354.38
-7354.01
-7353.64
-7353.28
-7352.94
-7352.63
-7352.36
-7352.15
-7352
-7351.92
-7351.9
-7351.96
-7352.09
-7352.28
-7352.52
-7352.79
-7353.1
-7353.42
-7353.73
-7354.02
-7354.27
-7354.48
-7354.62
-7354.7
-7354.71
-7354.66
-7354.54
-7354.36
-7354.15
-7353.91
-7353.66
-7353.42
-7353.21
-7353.04
-7352.92
-7352.87
-7352.87
-7352.94
-7353.06
-7353.21
-7353.4
-7353.59
-7353.76
-7353.91
-7354.03
-7354.09
-7354.11
-7354.07
-7354
-7353.9
-7353.78
-7353.65
-7353.53
-7353.44
-7353.37
-7353.33
-7353.34
-7353.37
-7353.43
-7353.52
-7353.61
-7353.7
-7353.79
-7353.86
-7353.91
-7353.93
-7353.93
-7353.91
-7353.87
-7353.81
-7353.73
-7353.66
-7353.58
-7353.52
-7353.46
-7353.42
-7353.39
-7353.38
-7353.39
-7353.42
-7353.46
-7353.51
-7353.56
-7353.62
-7353.68
-7353.73
-7353.78
-7353.82
-7353.85
-7353.86
-7748.58
-7748.41
-7748.05
-7747.48
-7746.68
-7745.6
-7744.21
-7742.39
-7739.45
-7737.16
-7735.14
-7733.4
-7731.91
-7730.65
-7729.6
-7728.74
-7728.08
-7727.6
-7727.3
-7727.18
-7727.25
-7727.52
-7728
-7728.69
-7729.64
-7730.87
-7732.38
-7734.58
-7735.97
-7737.14
-7738.13
-7738.97
-7739.71
-7740.36
-7740.94
-7741.48
-7741.98
-7742.45
-7742.9
-7743.33
-7743.74
-7744.13
-7744.51
-7744.86
-7745.18
-7745.49
-7745.77
-7746.02
-7746.25
-7746.44
-7746.6
-7746.73
-7746.82
-7746.87
-7746.89
-7746.87
-7746.81
-7746.71
-7746.57
-7746.39
-7746.18
-7745.93
-7745.64
-7745.33
-7744.99
-7744.62
-7744.23
-7743.83
-7743.41
-7742.99
-7742.57
-7742.15
-7741.75
-7741.36
-7740.99
-7740.65
-7740.35
-7740.09
-7739.87
-7739.7
-7739.58
-7739.52
-7739.51
-7739.56
-7739.67
-7739.84
-7740.07
-7740.34
-7740.66
-7741.03
-7741.42
-7741.85
-7742.29
-7742.73
-7743.18
-7743.61
-7744.02
-7744.4
-7744.73
-7745.01
-7745.23
-7745.38
-7745.46
-7745.47
-7745.4
-7745.26
-7745.05
-7744.78
-7744.45
-7744.08
-7743.67
-7743.24
-7742.8
-7742.38
-7741.98
-7741.62
-7741.31
-7741.07
-7740.9
-7740.81
-7740.8
-7740.88
-7741.03
-7741.26
-7741.54
-7741.88
-7742.24
-7742.61
-7742.97
-7743.31
-7743.61
-7743.84
-7744.01
-7744.09
-7744.1
-7744.03
-7743.88
-7743.67
-7743.41
-7743.13
-7742.83
-7742.55
-7742.31
-7742.11
-7741.98
-7741.92
-7741.93
-7742.01
-7742.16
-7742.34
-7742.56
-7742.78
-7742.99
-7743.16
-7743.29
-7743.36
-7743.38
-7743.34
-7743.25
-7743.12
-7742.98
-7742.83
-7742.69
-7742.58
-7742.51
-7742.47
-7742.47
-7742.52
-7742.59
-7742.68
-7742.79
-7742.9
-7743
-7743.07
-7743.13
-7743.16
-7743.16
-7743.13
-7743.08
-7743.01
-7742.93
-7742.85
-7742.76
-7742.69
-7742.63
-7742.58
-7742.56
-7742.55
-7742.56
-7742.59
-7742.63
-7742.68
-7742.74
-7742.81
-7742.87
-7742.93
-7742.98
-7743.02
-7743.05
-7743.07
-8098.7
-8098.65
-8098.54
-8098.42
-8098.26
-8098.14
-8098.24
-8098.02
-8083.67
-8084.13
-8084.28
-8084.62
-8085.05
-8085.49
-8085.96
-8086.44
-8086.91
-8087.38
-8087.83
-8088.28
-8088.71
-8089.13
-8089.54
-8089.93
-8090.29
-8090.64
-8090.96
-8091.26
-8091.53
-8091.76
-8091.97
-8092.13
-8092.26
-8092.35
-8092.4
-8092.41
-8092.37
-8092.28
-8092.16
-8091.99
-8091.77
-8091.52
-8091.22
-8090.88
-8090.51
-8090.11
-8089.68
-8089.23
-8088.76
-8088.28
-8087.79
-8087.3
-8086.82
-8086.35
-8085.9
-8085.48
-8085.09
-8084.75
-8084.44
-8084.19
-8084
-8083.87
-8083.8
-8083.8
-8083.86
-8083.99
-8084.19
-8084.45
-8084.77
-8085.14
-8085.56
-8086.02
-8086.51
-8087.02
-8087.53
-8088.04
-8088.54
-8089.01
-8089.44
-8089.81
-8090.13
-8090.38
-8090.55
-8090.64
-8090.64
-8090.56
-8090.39
-8090.14
-8089.82
-8089.44
-8089.01
-8088.53
-8088.04
-8087.54
-8087.05
-8086.6
-8086.18
-8085.84
-8085.56
-8085.37
-8085.28
-8085.28
-8085.37
-8085.55
-8085.82
-8086.15
-8086.54
-8086.96
-8087.39
-8087.8
-8088.19
-8088.53
-8088.79
-8088.98
-8089.07
-8089.07
-8088.98
-8088.8
-8088.56
-8088.26
-8087.92
-8087.59
-8087.26
-8086.98
-8086.76
-8086.61
-8086.54
-8086.56
-8086.66
-8086.83
-8087.05
-8087.3
-8087.56
-8087.8
-8088
-8088.14
-8088.22
-8088.23
-8088.18
-8088.07
-8087.93
-8087.76
-8087.58
-8087.43
-8087.31
-8087.22
-8087.18
-8087.19
-8087.24
-8087.33
-8087.43
-8087.55
-8087.67
-8087.78
-8087.87
-8087.93
-8087.96
-8087.96
-8087.93
-8087.87
-8087.79
-8087.71
-8087.61
-8087.52
-8087.44
-8087.38
-8087.33
-8087.3
-8087.29
-8087.31
-8087.34
-8087.38
-8087.44
-8087.51
-8087.57
-8087.64
-8087.7
-8087.76
-8087.8
-8087.83
-8087.85
-8409.05
-8409.02
-8408.96
-8408.89
-8408.77
-8408.67
-8408.61
-8408.35
-8389.99
-8390.37
-8390.58
-8390.9
-8391.28
-8391.67
-8392.09
-8392.51
-8392.96
-8393.4
-8393.85
-8394.29
-8394.73
-8395.16
-8395.58
-8395.99
-8396.37
-8396.74
-8397.08
-8397.39
-8397.68
-8397.93
-8398.14
-8398.31
-8398.45
-8398.53
-8398.58
-8398.57
-8398.52
-8398.41
-8398.26
-8398.06
-8397.8
-8397.5
-8397.16
-8396.77
-8396.35
-8395.89
-8395.4
-8394.88
-8394.34
-8393.79
-8393.24
-8392.68
-8392.14
-8391.6
-8391.1
-8390.62
-8390.18
-8389.79
-8389.45
-8389.17
-8388.95
-8388.8
-8388.73
-8388.73
-8388.81
-8388.96
-8389.19
-8389.49
-8389.85
-8390.28
-8390.76
-8391.28
-8391.83
-8392.41
-8392.99
-8393.57
-8394.13
-8394.66
-8395.14
-8395.56
-8395.92
-8396.19
-8396.38
-8396.48
-8396.47
-8396.37
-8396.18
-8395.89
-8395.52
-8395.09
-8394.59
-8394.05
-8393.49
-8392.93
-8392.38
-8391.86
-8391.4
-8391.01
-8390.71
-8390.5
-8390.39
-8390.4
-8390.51
-8390.73
-8391.04
-8391.42
-8391.86
-8392.33
-8392.82
-8393.3
-8393.73
-8394.11
-8394.41
-8394.61
-8394.71
-8394.7
-8394.59
-8394.39
-8394.1
-8393.75
-8393.38
-8392.99
-8392.63
-8392.31
-8392.06
-8391.89
-8391.82
-8391.85
-8391.97
-8392.17
-8392.42
-8392.71
-8393.01
-8393.27
-8393.49
-8393.65
-8393.74
-8393.74
-8393.68
-8393.55
-8393.39
-8393.2
-8393
-8392.83
-8392.69
-8392.59
-8392.55
-8392.56
-8392.62
-8392.72
-8392.84
-8392.98
-8393.11
-8393.23
-8393.32
-8393.39
-8393.42
-8393.42
-8393.38
-8393.32
-8393.23
-8393.14
-8393.04
-8392.94
-8392.85
-8392.78
-8392.73
-8392.7
-8392.7
-8392.71
-8392.75
-8392.79
-8392.86
-8392.93
-8393
-8393.07
-8393.14
-8393.19
-8393.24
-8393.27
-8393.29
-8684.1
-8684.1
-8684.04
-8684.03
-8683.94
-8683.92
-8683.88
-8683.8
-8661.58
-8661.84
-8661.97
-8662.2
-8662.53
-8662.86
-8663.25
-8663.64
-8664.06
-8664.5
-8664.95
-8665.4
-8665.85
-8666.29
-8666.73
-8667.16
-8667.56
-8667.95
-8668.31
-8668.65
-8668.95
-8669.21
-8669.44
-8669.62
-8669.75
-8669.84
-8669.88
-8669.86
-8669.79
-8669.67
-8669.48
-8669.25
-8668.96
-8668.62
-8668.23
-8667.79
-8667.31
-8666.79
-8666.24
-8665.66
-8665.06
-8664.44
-8663.82
-8663.19
-8662.58
-8661.99
-8661.42
-8660.89
-8660.4
-8659.96
-8659.59
-8659.28
-8659.04
-8658.88
-8658.8
-8658.8
-8658.9
-8659.07
-8659.33
-8659.67
-8660.08
-8660.56
-8661.1
-8661.68
-8662.3
-8662.94
-8663.6
-8664.24
-8664.86
-8665.45
-8665.98
-8666.45
-8666.85
-8667.15
-8667.35
-8667.45
-8667.44
-8667.33
-8667.1
-8666.78
-8666.36
-8665.87
-8665.31
-8664.71
-8664.08
-8663.45
-8662.84
-8662.27
-8661.75
-8661.32
-8660.99
-8660.76
-8660.65
-8660.67
-8660.8
-8661.05
-8661.4
-8661.83
-8662.32
-8662.86
-8663.4
-8663.93
-8664.42
-8664.84
-8665.16
-8665.39
-8665.49
-8665.48
-8665.34
-8665.11
-8664.78
-8664.39
-8663.97
-8663.53
-8663.13
-8662.77
-8662.49
-8662.31
-8662.24
-8662.28
-8662.42
-8662.65
-8662.93
-8663.25
-8663.59
-8663.89
-8664.13
-8664.3
-8664.39
-8664.4
-8664.32
-8664.18
-8663.99
-8663.77
-8663.55
-8663.36
-8663.21
-8663.11
-8663.06
-8663.08
-8663.15
-8663.25
-8663.39
-8663.54
-8663.68
-8663.81
-8663.92
-8663.99
-8664.02
-8664.01
-8663.97
-8663.9
-8663.81
-8663.71
-8663.6
-8663.5
-8663.4
-8663.33
-8663.28
-8663.25
-8663.24
-8663.26
-8663.29
-8663.35
-8663.41
-8663.49
-8663.56
-8663.64
-8663.71
-8663.77
-8663.82
-8663.85
-8663.87
-8927.82
-8927.81
-8927.79
-8927.78
-8927.73
-8927.73
-8927.69
-8927.67
-8901.92
-8902.13
-8902.27
-8902.39
-8902.77
-8903.04
-8903.41
-8903.8
-8904.21
-8904.65
-8905.11
-8905.57
-8906.04
-8906.5
-8906.96
-8907.41
-8907.84
-8908.25
-8908.63
-8908.99
-8909.31
-8909.59
-8909.82
-8910.01
-8910.15
-8910.24
-8910.27
-8910.25
-8910.16
-8910.01
-8909.81
-8909.54
-8909.22
-8908.84
-8908.4
-8907.91
-8907.38
-8906.8
-8906.18
-8905.54
-8904.87
-8904.19
-8903.5
-8902.82
-8902.14
-8901.49
-8900.86
-8900.28
-8899.74
-8899.26
-8898.85
-8898.51
-8898.25
-8898.08
-8897.99
-8898
-8898.11
-8898.31
-8898.6
-8898.97
-8899.43
-8899.96
-8900.56
-8901.21
-8901.89
-8902.6
-8903.32
-8904.03
-8904.71
-8905.36
-8905.95
-8906.46
-8906.89
-8907.22
-8907.43
-8907.54
-8907.52
-8907.39
-8907.14
-8906.77
-8906.31
-8905.76
-8905.15
-8904.48
-8903.79
-8903.09
-8902.42
-8901.79
-8901.23
-8900.76
-8900.39
-8900.15
-8900.04
-8900.06
-8900.21
-8900.49
-8900.88
-8901.36
-8901.91
-8902.5
-8903.11
-8903.69
-8904.22
-8904.68
-8905.04
-8905.28
-8905.39
-8905.36
-8905.21
-8904.94
-8904.58
-8904.14
-8903.67
-8903.19
-8902.74
-8902.35
-8902.05
-8901.86
-8901.78
-8901.83
-8901.99
-8902.24
-8902.56
-8902.92
-8903.29
-8903.62
-8903.88
-8904.07
-8904.17
-8904.16
-8904.07
-8903.91
-8903.7
-8903.46
-8903.22
-8903.01
-8902.85
-8902.74
-8902.69
-8902.71
-8902.79
-8902.91
-8903.06
-8903.22
-8903.38
-8903.52
-8903.63
-8903.7
-8903.74
-8903.73
-8903.68
-8903.61
-8903.51
-8903.4
-8903.28
-8903.17
-8903.07
-8903
-8902.94
-8902.91
-8902.9
-8902.92
-8902.96
-8903.02
-8903.09
-8903.17
-8903.25
-8903.32
-8903.4
-8903.46
-8903.51
-8903.55
-8903.57
-9143.75
-9143.74
-9143.73
-9143.72
-9143.7
-9143.69
-9143.67
-9143.66
-9114.71
-9114.87
-9115.02
-9115.16
-9115.47
-9115.76
-9116.12
-9116.51
-9116.93
-9117.38
-9117.85
-9118.33
-9118.82
-9119.31
-9119.79
-9120.27
-9120.72
-9121.16
-9121.56
-9121.94
-9122.28
-9122.57
-9122.82
-9123.02
-9123.17
-9123.25
-9123.28
-9123.25
-9123.15
-9122.98
-9122.75
-9122.46
-9122.1
-9121.67
-9121.19
-9120.66
-9120.07
-9119.43
-9118.76
-9118.06
-9117.33
-9116.58
-9115.83
-9115.08
-9114.34
-9113.63
-9112.95
-9112.31
-9111.73
-9111.21
-9110.76
-9110.39
-9110.12
-9109.93
-9109.84
-9109.86
-9109.98
-9110.2
-9110.52
-9110.94
-9111.44
-9112.02
-9112.67
-9113.38
-9114.13
-9114.9
-9115.69
-9116.46
-9117.21
-9117.91
-9118.54
-9119.1
-9119.56
-9119.92
-9120.15
-9120.26
-9120.24
-9120.08
-9119.8
-9119.4
-9118.89
-9118.29
-9117.62
-9116.89
-9116.13
-9115.37
-9114.64
-9113.96
-9113.35
-9112.84
-9112.45
-9112.19
-9112.07
-9112.1
-9112.28
-9112.59
-9113.02
-9113.55
-9114.15
-9114.8
-9115.45
-9116.09
-9116.67
-9117.17
-9117.55
-9117.81
-9117.92
-9117.89
-9117.71
-9117.42
-9117.01
-9116.54
-9116.02
-9115.5
-9115.01
-9114.58
-9114.25
-9114.05
-9113.97
-9114.03
-9114.21
-9114.49
-9114.84
-9115.23
-9115.64
-9115.99
-9116.28
-9116.48
-9116.58
-9116.58
-9116.47
-9116.29
-9116.06
-9115.8
-9115.54
-9115.31
-9115.13
-9115.02
-9114.97
-9114.99
-9115.08
-9115.21
-9115.37
-9115.54
-9115.71
-9115.86
-9115.98
-9116.06
-9116.09
-9116.09
-9116.04
-9115.96
-9115.85
-9115.73
-9115.61
-9115.49
-9115.39
-9115.31
-9115.25
-9115.22
-9115.21
-9115.23
-9115.28
-9115.34
-9115.41
-9115.49
-9115.57
-9115.66
-9115.73
-9115.8
-9115.85
-9115.89
-9115.91
-9335.04
-9335.03
-9335.02
-9335.02
-9335
-9335
-9334.99
-9334.98
-9303.13
-9303.25
-9303.4
-9303.56
-9303.85
-9304.15
-9304.51
-9304.91
-9305.35
-9305.82
-9306.3
-9306.81
-9307.32
-9307.83
-9308.35
-9308.85
-9309.33
-9309.79
-9310.22
-9310.62
-9310.98
-9311.29
-9311.55
-9311.76
-9311.91
-9312
-9312.02
-9311.98
-9311.87
-9311.68
-9311.43
-9311.1
-9310.71
-9310.25
-9309.73
-9309.14
-9308.5
-9307.82
-9307.09
-9306.32
-9305.53
-9304.73
-9303.91
-9303.1
-9302.31
-9301.54
-9300.81
-9300.12
-9299.49
-9298.93
-9298.45
-9298.06
-9297.76
-9297.57
-9297.48
-9297.5
-9297.63
-9297.87
-9298.22
-9298.68
-9299.22
-9299.86
-9300.56
-9301.33
-9302.14
-9302.97
-9303.82
-9304.66
-9305.46
-9306.22
-9306.9
-9307.5
-9307.99
-9308.37
-9308.62
-9308.73
-9308.7
-9308.53
-9308.22
-9307.78
-9307.23
-9306.58
-9305.85
-9305.06
-9304.24
-9303.42
-9302.63
-9301.89
-9301.24
-9300.69
-9300.28
-9300
-9299.88
-9299.92
-9300.12
-9300.46
-9300.93
-9301.5
-9302.16
-9302.86
-9303.57
-9304.25
-9304.88
-9305.41
-9305.82
-9306.09
-9306.21
-9306.17
-9305.98
-9305.65
-9305.21
-9304.69
-9304.13
-9303.56
-9303.03
-9302.58
-9302.23
-9302.01
-9301.93
-9301.99
-9302.19
-9302.5
-9302.89
-9303.31
-9303.75
-9304.13
-9304.44
-9304.66
-9304.76
-9304.75
-9304.63
-9304.43
-9304.18
-9303.9
-9303.62
-9303.37
-9303.18
-9303.06
-9303.01
-9303.04
-9303.13
-9303.27
-9303.45
-9303.63
-9303.81
-9303.97
-9304.1
-9304.18
-9304.22
-9304.21
-9304.15
-9304.07
-9303.95
-9303.83
-9303.7
-9303.58
-9303.47
-9303.38
-9303.32
-9303.29
-9303.29
-9303.31
-9303.35
-9303.42
-9303.49
-9303.58
-9303.67
-9303.75
-9303.83
-9303.9
-9303.95
-9303.99
-9304.01
-9504.5
-9504.5
-9504.49
-9504.49
-9504.47
-9504.47
-9504.46
-9504.46
-9469.97
-9470.08
-9470.23
-9470.4
-9470.68
-9471
-9471.37
-9471.79