/*--------------------------------*- C++ -*----------------------------------*\
  =========                 |
  \\      /  F ield         | OpenFOAM: The Open Source CFD Toolbox
   \\    /   O peration     | Website:  https://openfoam.org
    \\  /    A nd           | Version:  12
     \\/     M anipulation  |
\*---------------------------------------------------------------------------*/
FoamFile
{
    format      ascii;
    class       volScalarField;
    location    "1.2";
    object      p;
}
// * * * * * * * * * * * * * * * * * * * * * * * * * * * * * * * * * * * * * //

dimensions      [1 -1 -2 0 0 0 0];

internalField   nonuniform List<scalar> 
3829
(
-615.657
-615.656
-615.655
-615.653
-615.651
-615.648
-615.645
-615.641
-615.636
-615.63
-615.624
-615.617
-615.61
-615.601
-615.592
-615.583
-615.572
-615.561
-615.548
-615.535
-615.522
-615.507
-615.492
-615.476
-615.459
-615.441
-615.422
-615.403
-615.383
-615.362
-615.341
-615.319
-615.296
-615.273
-615.249
-615.225
-615.2
-615.175
-615.149
-615.123
-615.097
-615.07
-615.043
-615.016
-614.989
-614.962
-614.935
-614.908
-614.881
-614.854
-614.828
-614.802
-614.776
-614.75
-614.725
-614.7
-614.676
-614.652
-614.629
-614.607
-614.585
-614.564
-614.544
-614.524
-614.505
-614.487
-614.47
-614.454
-614.439
-614.424
-614.41
-614.397
-614.385
-614.374
-614.364
-614.355
-614.346
-614.338
-614.331
-614.325
-614.32
-614.315
-614.311
-614.307
-614.304
-614.302
-614.3
-614.299
-614.298
-614.298
-614.298
-614.298
-614.299
-614.301
-614.302
-614.304
-614.306
-614.308
-614.311
-614.313
-614.316
-614.319
-614.321
-614.324
-614.327
-614.33
-614.333
-614.336
-614.339
-614.341
-614.344
-614.347
-614.349
-614.351
-614.354
-614.356
-614.358
-614.36
-614.362
-614.363
-614.365
-614.366
-614.367
-614.368
-614.369
-614.37
-614.371
-614.371
-614.371
-614.372
-614.372
-614.372
-614.372
-614.371
-614.371
-614.371
-614.37
-614.37
-614.369
-614.368
-614.368
-614.367
-614.366
-614.365
-614.364
-614.363
-614.362
-614.361
-614.36
-614.359
-614.358
-614.357
-614.356
-614.355
-614.354
-614.353
-614.352
-614.351
-614.35
-614.349
-614.348
-614.347
-614.346
-614.345
-614.345
-614.344
-614.343
-614.342
-614.342
-614.341
-614.34
-614.34
-614.339
-614.339
-614.338
-614.338
-614.337
-614.337
-614.337
-614.336
-614.336
-614.336
-614.336
-614.336
-614.335
-614.335
-614.335
-614.335
-614.335
-614.335
-614.335
-614.335
-614.335
-614.335
-614.335
-614.335
-614.335
-614.335
-614.334
-614.334
-1774.07
-1774.07
-1774.07
-1774.07
-1774.07
-1774.07
-1774.06
-1774.06
-1774.05
-1774.05
-1774.04
-1774.03
-1774.02
-1774.01
-1774
-1773.99
-1773.98
-1773.97
-1773.96
-1773.94
-1773.93
-1773.91
-1773.89
-1773.88
-1773.86
-1773.84
-1773.82
-1773.8
-1773.78
-1773.75
-1773.73
-1773.71
-1773.68
-1773.66
-1773.63
-1773.6
-1773.58
-1773.55
-1773.52
-1773.49
-1773.47
-1773.44
-1773.41
-1773.38
-1773.35
-1773.32
-1773.29
-1773.27
-1773.24
-1773.21
-1773.18
-1773.15
-1773.13
-1773.1
-1773.08
-1773.05
-1773.03
-1773
-1772.98
-1772.96
-1772.93
-1772.91
-1772.89
-1772.87
-1772.85
-1772.84
-1772.82
-1772.8
-1772.79
-1772.77
-1772.76
-1772.75
-1772.74
-1772.73
-1772.72
-1772.71
-1772.7
-1772.69
-1772.69
-1772.68
-1772.68
-1772.67
-1772.67
-1772.67
-1772.67
-1772.66
-1772.66
-1772.66
-1772.66
-1772.66
-1772.66
-1772.66
-1772.67
-1772.67
-1772.67
-1772.67
-1772.67
-1772.68
-1772.68
-1772.68
-1772.68
-1772.69
-1772.69
-1772.69
-1772.7
-1772.7
-1772.7
-1772.71
-1772.71
-1772.71
-1772.71
-1772.72
-1772.72
-1772.72
-1772.72
-1772.73
-1772.73
-1772.73
-1772.73
-1772.73
-1772.74
-1772.74
-1772.74
-1772.74
-1772.74
-1772.74
-1772.74
-1772.74
-1772.74
-1772.74
-1772.74
-1772.74
-1772.74
-1772.74
-1772.74
-1772.74
-1772.74
-1772.74
-1772.74
-1772.74
-1772.74
-1772.74
-1772.74
-1772.73
-1772.73
-1772.73
-1772.73
-1772.73
-1772.73
-1772.73
-1772.73
-1772.73
-1772.73
-1772.72
-1772.72
-1772.72
-1772.72
-1772.72
-1772.72
-1772.72
-1772.72
-1772.72
-1772.72
-1772.72
-1772.71
-1772.71
-1772.71
-1772.71
-1772.71
-1772.71
-1772.71
-1772.71
-1772.71
-1772.71
-1772.71
-1772.71
-1772.71
-1772.71
-1772.71
-1772.71
-1772.71
-1772.71
-1772.71
-1772.71
-1772.71
-1772.7
-1772.7
-1772.7
-1772.7
-1772.7
-1772.7
-1772.7
-1772.7
-1772.7
-1772.7
-1772.7
-1772.7
-1772.7
-1772.7
-1772.7
-2800.32
-2800.32
-2800.32
-2800.31
-2800.31
-2800.31
-2800.3
-2800.3
-2800.29
-2800.29
-2800.28
-2800.27
-2800.26
-2800.25
-2800.24
-2800.23
-2800.21
-2800.2
-2800.18
-2800.17
-2800.15
-2800.13
-2800.11
-2800.09
-2800.07
-2800.05
-2800.02
-2800
-2799.97
-2799.95
-2799.92
-2799.89
-2799.87
-2799.84
-2799.81
-2799.78
-2799.75
-2799.72
-2799.68
-2799.65
-2799.62
-2799.59
-2799.56
-2799.53
-2799.5
-2799.46
-2799.43
-2799.4
-2799.37
-2799.34
-2799.31
-2799.28
-2799.26
-2799.23
-2799.2
-2799.17
-2799.15
-2799.12
-2799.1
-2799.08
-2799.06
-2799.04
-2799.02
-2799
-2798.98
-2798.96
-2798.94
-2798.93
-2798.92
-2798.9
-2798.89
-2798.88
-2798.87
-2798.86
-2798.85
-2798.84
-2798.84
-2798.83
-2798.83
-2798.82
-2798.82
-2798.82
-2798.81
-2798.81
-2798.81
-2798.81
-2798.81
-2798.81
-2798.81
-2798.81
-2798.82
-2798.82
-2798.82
-2798.82
-2798.83
-2798.83
-2798.83
-2798.83
-2798.84
-2798.84
-2798.84
-2798.85
-2798.85
-2798.85
-2798.86
-2798.86
-2798.86
-2798.87
-2798.87
-2798.87
-2798.88
-2798.88
-2798.88
-2798.88
-2798.89
-2798.89
-2798.89
-2798.89
-2798.89
-2798.9
-2798.9
-2798.9
-2798.9
-2798.9
-2798.9
-2798.9
-2798.9
-2798.9
-2798.9
-2798.9
-2798.9
-2798.9
-2798.9
-2798.9
-2798.9
-2798.9
-2798.9
-2798.9
-2798.9
-2798.9
-2798.9
-2798.9
-2798.9
-2798.9
-2798.89
-2798.89
-2798.89
-2798.89
-2798.89
-2798.89
-2798.89
-2798.89
-2798.89
-2798.88
-2798.88
-2798.88
-2798.88
-2798.88
-2798.88
-2798.88
-2798.88
-2798.88
-2798.88
-2798.88
-2798.87
-2798.87
-2798.87
-2798.87
-2798.87
-2798.87
-2798.87
-2798.87
-2798.87
-2798.87
-2798.87
-2798.87
-2798.87
-2798.87
-2798.87
-2798.87
-2798.87
-2798.87
-2798.87
-2798.87
-2798.87
-2798.87
-2798.87
-2798.87
-2798.87
-2798.86
-2798.86
-2798.86
-2798.86
-2798.86
-2798.86
-2798.86
-2798.86
-2798.86
-2798.86
-2798.86
-3709.47
-3709.47
-3709.46
-3709.46
-3709.46
-3709.46
-3709.45
-3709.45
-3709.44
-3709.43
-3709.42
-3709.41
-3709.4
-3709.39
-3709.38
-3709.36
-3709.35
-3709.33
-3709.31
-3709.29
-3709.27
-3709.25
-3709.23
-3709.2
-3709.18
-3709.15
-3709.12
-3709.09
-3709.06
-3709.03
-3709
-3708.97
-3708.93
-3708.9
-3708.86
-3708.83
-3708.79
-3708.76
-3708.72
-3708.69
-3708.65
-3708.62
-3708.58
-3708.55
-3708.51
-3708.48
-3708.44
-3708.41
-3708.37
-3708.34
-3708.31
-3708.28
-3708.25
-3708.22
-3708.19
-3708.17
-3708.14
-3708.11
-3708.09
-3708.07
-3708.05
-3708.02
-3708
-3707.99
-3707.97
-3707.95
-3707.94
-3707.92
-3707.91
-3707.9
-3707.89
-3707.88
-3707.87
-3707.86
-3707.86
-3707.85
-3707.85
-3707.84
-3707.84
-3707.84
-3707.84
-3707.83
-3707.83
-3707.83
-3707.83
-3707.84
-3707.84
-3707.84
-3707.84
-3707.84
-3707.85
-3707.85
-3707.85
-3707.86
-3707.86
-3707.86
-3707.87
-3707.87
-3707.87
-3707.88
-3707.88
-3707.89
-3707.89
-3707.89
-3707.9
-3707.9
-3707.9
-3707.91
-3707.91
-3707.91
-3707.92
-3707.92
-3707.92
-3707.92
-3707.93
-3707.93
-3707.93
-3707.93
-3707.93
-3707.94
-3707.94
-3707.94
-3707.94
-3707.94
-3707.94
-3707.94
-3707.94
-3707.94
-3707.94
-3707.94
-3707.94
-3707.94
-3707.94
-3707.94
-3707.94
-3707.94
-3707.94
-3707.94
-3707.94
-3707.94
-3707.94
-3707.94
-3707.94
-3707.93
-3707.93
-3707.93
-3707.93
-3707.93
-3707.93
-3707.93
-3707.93
-3707.93
-3707.92
-3707.92
-3707.92
-3707.92
-3707.92
-3707.92
-3707.92
-3707.92
-3707.92
-3707.92
-3707.91
-3707.91
-3707.91
-3707.91
-3707.91
-3707.91
-3707.91
-3707.91
-3707.91
-3707.91
-3707.91
-3707.91
-3707.91
-3707.91
-3707.91
-3707.91
-3707.91
-3707.9
-3707.9
-3707.9
-3707.9
-3707.9
-3707.9
-3707.9
-3707.9
-3707.9
-3707.9
-3707.9
-3707.9
-3707.9
-3707.9
-3707.9
-3707.9
-3707.9
-3707.9
-3707.9
-3707.9
-3707.9
-4514.88
-4514.88
-4514.88
-4514.88
-4514.88
-4514.87
-4514.87
-4514.86
-4514.85
-4514.85
-4514.84
-4514.83
-4514.82
-4514.8
-4514.79
-4514.77
-4514.75
-4514.74
-4514.71
-4514.69
-4514.67
-4514.64
-4514.61
-4514.58
-4514.55
-4514.52
-4514.48
-4514.45
-4514.41
-4514.37
-4514.33
-4514.29
-4514.25
-4514.21
-4514.17
-4514.13
-4514.09
-4514.05
-4514
-4513.96
-4513.92
-4513.88
-4513.84
-4513.8
-4513.76
-4513.73
-4513.69
-4513.65
-4513.62
-4513.58
-4513.55
-4513.51
-4513.48
-4513.45
-4513.42
-4513.39
-4513.37
-4513.34
-4513.32
-4513.3
-4513.27
-4513.25
-4513.24
-4513.22
-4513.2
-4513.19
-4513.17
-4513.16
-4513.15
-4513.14
-4513.13
-4513.13
-4513.12
-4513.11
-4513.11
-4513.11
-4513.1
-4513.1
-4513.1
-4513.1
-4513.1
-4513.1
-4513.1
-4513.1
-4513.11
-4513.11
-4513.11
-4513.12
-4513.12
-4513.12
-4513.13
-4513.13
-4513.13
-4513.14
-4513.14
-4513.15
-4513.15
-4513.16
-4513.16
-4513.17
-4513.17
-4513.17
-4513.18
-4513.18
-4513.19
-4513.19
-4513.19
-4513.2
-4513.2
-4513.2
-4513.21
-4513.21
-4513.21
-4513.22
-4513.22
-4513.22
-4513.22
-4513.22
-4513.23
-4513.23
-4513.23
-4513.23
-4513.23
-4513.23
-4513.23
-4513.23
-4513.23
-4513.23
-4513.23
-4513.23
-4513.23
-4513.23
-4513.23
-4513.23
-4513.23
-4513.23
-4513.23
-4513.23
-4513.23
-4513.23
-4513.23
-4513.22
-4513.22
-4513.22
-4513.22
-4513.22
-4513.22
-4513.22
-4513.22
-4513.22
-4513.21
-4513.21
-4513.21
-4513.21
-4513.21
-4513.21
-4513.21
-4513.21
-4513.21
-4513.21
-4513.2
-4513.2
-4513.2
-4513.2
-4513.2
-4513.2
-4513.2
-4513.2
-4513.2
-4513.2
-4513.2
-4513.2
-4513.2
-4513.2
-4513.19
-4513.19
-4513.19
-4513.19
-4513.19
-4513.19
-4513.19
-4513.19
-4513.19
-4513.19
-4513.19
-4513.19
-4513.19
-4513.19
-4513.19
-4513.19
-4513.19
-4513.19
-4513.19
-4513.19
-4513.19
-4513.19
-4513.19
-4513.19
-4513.19
-4513.19
-5228.4
-5228.4
-5228.4
-5228.39
-5228.39
-5228.39
-5228.39
-5228.38
-5228.38
-5228.37
-5228.36
-5228.35
-5228.34
-5228.32
-5228.31
-5228.29
-5228.27
-5228.25
-5228.22
-5228.2
-5228.17
-5228.13
-5228.1
-5228.06
-5228.02
-5227.98
-5227.94
-5227.9
-5227.85
-5227.8
-5227.75
-5227.71
-5227.66
-5227.61
-5227.56
-5227.51
-5227.46
-5227.42
-5227.37
-5227.32
-5227.28
-5227.23
-5227.19
-5227.14
-5227.1
-5227.06
-5227.02
-5226.98
-5226.94
-5226.9
-5226.86
-5226.83
-5226.8
-5226.76
-5226.73
-5226.71
-5226.68
-5226.65
-5226.63
-5226.61
-5226.59
-5226.57
-5226.55
-5226.53
-5226.52
-5226.51
-5226.49
-5226.48
-5226.48
-5226.47
-5226.46
-5226.46
-5226.45
-5226.45
-5226.45
-5226.45
-5226.45
-5226.45
-5226.45
-5226.45
-5226.45
-5226.46
-5226.46
-5226.46
-5226.47
-5226.47
-5226.48
-5226.48
-5226.49
-5226.49
-5226.5
-5226.5
-5226.51
-5226.51
-5226.52
-5226.52
-5226.53
-5226.53
-5226.54
-5226.54
-5226.55
-5226.55
-5226.56
-5226.56
-5226.57
-5226.57
-5226.57
-5226.58
-5226.58
-5226.59
-5226.59
-5226.59
-5226.59
-5226.6
-5226.6
-5226.6
-5226.6
-5226.6
-5226.61
-5226.61
-5226.61
-5226.61
-5226.61
-5226.61
-5226.61
-5226.61
-5226.61
-5226.61
-5226.61
-5226.61
-5226.61
-5226.61
-5226.61
-5226.61
-5226.61
-5226.61
-5226.61
-5226.61
-5226.61
-5226.61
-5226.6
-5226.6
-5226.6
-5226.6
-5226.6
-5226.6
-5226.6
-5226.6
-5226.6
-5226.59
-5226.59
-5226.59
-5226.59
-5226.59
-5226.59
-5226.59
-5226.59
-5226.59
-5226.58
-5226.58
-5226.58
-5226.58
-5226.58
-5226.58
-5226.58
-5226.58
-5226.58
-5226.58
-5226.58
-5226.58
-5226.57
-5226.57
-5226.57
-5226.57
-5226.57
-5226.57
-5226.57
-5226.57
-5226.57
-5226.57
-5226.57
-5226.57
-5226.57
-5226.57
-5226.57
-5226.57
-5226.57
-5226.57
-5226.57
-5226.57
-5226.57
-5226.57
-5226.57
-5226.57
-5226.57
-5226.57
-5226.57
-5226.57
-5226.57
-5226.57
-5860.5
-5860.5
-5860.5
-5860.5
-5860.5
-5860.5
-5860.5
-5860.49
-5860.49
-5860.49
-5860.48
-5860.47
-5860.46
-5860.45
-5860.43
-5860.41
-5860.39
-5860.37
-5860.34
-5860.31
-5860.27
-5860.23
-5860.19
-5860.14
-5860.09
-5860.04
-5859.99
-5859.93
-5859.87
-5859.81
-5859.76
-5859.7
-5859.64
-5859.58
-5859.52
-5859.47
-5859.41
-5859.36
-5859.3
-5859.25
-5859.2
-5859.15
-5859.1
-5859.05
-5859
-5858.96
-5858.92
-5858.87
-5858.83
-5858.79
-5858.75
-5858.72
-5858.68
-5858.65
-5858.62
-5858.59
-5858.56
-5858.54
-5858.52
-5858.49
-5858.47
-5858.46
-5858.44
-5858.43
-5858.41
-5858.4
-5858.39
-5858.39
-5858.38
-5858.38
-5858.37
-5858.37
-5858.37
-5858.37
-5858.37
-5858.37
-5858.37
-5858.38
-5858.38
-5858.38
-5858.39
-5858.39
-5858.4
-5858.41
-5858.41
-5858.42
-5858.42
-5858.43
-5858.44
-5858.44
-5858.45
-5858.46
-5858.46
-5858.47
-5858.48
-5858.48
-5858.49
-5858.49
-5858.5
-5858.5
-5858.51
-5858.52
-5858.52
-5858.52
-5858.53
-5858.53
-5858.54
-5858.54
-5858.55
-5858.55
-5858.55
-5858.55
-5858.56
-5858.56
-5858.56
-5858.56
-5858.57
-5858.57
-5858.57
-5858.57
-5858.57
-5858.57
-5858.57
-5858.57
-5858.57
-5858.57
-5858.57
-5858.57
-5858.57
-5858.57
-5858.57
-5858.57
-5858.57
-5858.57
-5858.57
-5858.57
-5858.57
-5858.57
-5858.57
-5858.57
-5858.56
-5858.56
-5858.56
-5858.56
-5858.56
-5858.56
-5858.56
-5858.56
-5858.56
-5858.55
-5858.55
-5858.55
-5858.55
-5858.55
-5858.55
-5858.55
-5858.55
-5858.55
-5858.54
-5858.54
-5858.54
-5858.54
-5858.54
-5858.54
-5858.54
-5858.54
-5858.54
-5858.54
-5858.54
-5858.54
-5858.53
-5858.53
-5858.53
-5858.53
-5858.53
-5858.53
-5858.53
-5858.53
-5858.53
-5858.53
-5858.53
-5858.53
-5858.53
-5858.53
-5858.53
-5858.53
-5858.53
-5858.53
-5858.53
-5858.53
-5858.53
-5858.53
-5858.53
-5858.53
-5858.53
-5858.53
-5858.53
-5858.53
-5858.53
-5858.53
-6420.47
-6420.47
-6420.47
-6420.47
-6420.48
-6420.48
-6420.48
-6420.49
-6420.49
-6420.49
-6420.49
-6420.49
-6420.48
-6420.47
-6420.45
-6420.43
-6420.41
-6420.38
-6420.35
-6420.31
-6420.27
-6420.22
-6420.17
-6420.11
-6420.05
-6419.98
-6419.91
-6419.84
-6419.76
-6419.69
-6419.62
-6419.55
-6419.48
-6419.41
-6419.35
-6419.28
-6419.22
-6419.16
-6419.1
-6419.04
-6418.99
-6418.93
-6418.88
-6418.83
-6418.77
-6418.73
-6418.68
-6418.63
-6418.59
-6418.55
-6418.51
-6418.47
-6418.44
-6418.4
-6418.37
-6418.34
-6418.32
-6418.29
-6418.27
-6418.25
-6418.23
-6418.22
-6418.2
-6418.19
-6418.18
-6418.17
-6418.17
-6418.16
-6418.16
-6418.16
-6418.16
-6418.16
-6418.16
-6418.16
-6418.16
-6418.17
-6418.17
-6418.18
-6418.19
-6418.19
-6418.2
-6418.21
-6418.21
-6418.22
-6418.23
-6418.24
-6418.24
-6418.25
-6418.26
-6418.27
-6418.28
-6418.28
-6418.29
-6418.3
-6418.31
-6418.31
-6418.32
-6418.33
-6418.33
-6418.34
-6418.34
-6418.35
-6418.35
-6418.36
-6418.36
-6418.37
-6418.37
-6418.38
-6418.38
-6418.38
-6418.39
-6418.39
-6418.39
-6418.39
-6418.4
-6418.4
-6418.4
-6418.4
-6418.4
-6418.4
-6418.41
-6418.41
-6418.41
-6418.41
-6418.41
-6418.41
-6418.41
-6418.41
-6418.41
-6418.41
-6418.41
-6418.41
-6418.41
-6418.4
-6418.4
-6418.4
-6418.4
-6418.4
-6418.4
-6418.4
-6418.4
-6418.4
-6418.4
-6418.39
-6418.39
-6418.39
-6418.39
-6418.39
-6418.39
-6418.39
-6418.39
-6418.38
-6418.38
-6418.38
-6418.38
-6418.38
-6418.38
-6418.38
-6418.38
-6418.38
-6418.37
-6418.37
-6418.37
-6418.37
-6418.37
-6418.37
-6418.37
-6418.37
-6418.37
-6418.37
-6418.37
-6418.37
-6418.37
-6418.37
-6418.36
-6418.36
-6418.36
-6418.36
-6418.36
-6418.36
-6418.36
-6418.36
-6418.36
-6418.36
-6418.36
-6418.36
-6418.36
-6418.36
-6418.36
-6418.36
-6418.36
-6418.36
-6418.36
-6418.36
-6418.36
-6418.36
-6418.36
-6418.36
-6418.36
-6418.36
-6916.51
-6916.51
-6916.51
-6916.52
-6916.52
-6916.53
-6916.54
-6916.55
-6916.57
-6916.58
-6916.58
-6916.59
-6916.59
-6916.58
-6916.57
-6916.56
-6916.54
-6916.51
-6916.47
-6916.43
-6916.38
-6916.32
-6916.26
-6916.19
-6916.11
-6916.02
-6915.93
-6915.84
-6915.74
-6915.65
-6915.57
-6915.48
-6915.4
-6915.33
-6915.25
-6915.18
-6915.12
-6915.05
-6914.99
-6914.92
-6914.86
-6914.81
-6914.75
-6914.69
-6914.64
-6914.59
-6914.54
-6914.49
-6914.45
-6914.4
-6914.36
-6914.33
-6914.29
-6914.26
-6914.22
-6914.2
-6914.17
-6914.15
-6914.13
-6914.11
-6914.09
-6914.08
-6914.07
-6914.06
-6914.05
-6914.05
-6914.04
-6914.04
-6914.04
-6914.04
-6914.04
-6914.05
-6914.05
-6914.06
-6914.06
-6914.07
-6914.08
-6914.09
-6914.1
-6914.1
-6914.11
-6914.12
-6914.13
-6914.14
-6914.15
-6914.16
-6914.17
-6914.18
-6914.19
-6914.2
-6914.21
-6914.21
-6914.22
-6914.23
-6914.24
-6914.25
-6914.25
-6914.26
-6914.27
-6914.27
-6914.28
-6914.29
-6914.29
-6914.3
-6914.3
-6914.31
-6914.31
-6914.31
-6914.32
-6914.32
-6914.32
-6914.33
-6914.33
-6914.33
-6914.33
-6914.34
-6914.34
-6914.34
-6914.34
-6914.34
-6914.34
-6914.34
-6914.34
-6914.34
-6914.34
-6914.34
-6914.34
-6914.34
-6914.34
-6914.34
-6914.34
-6914.34
-6914.34
-6914.34
-6914.34
-6914.34
-6914.34
-6914.34
-6914.33
-6914.33
-6914.33
-6914.33
-6914.33
-6914.33
-6914.33
-6914.33
-6914.32
-6914.32
-6914.32
-6914.32
-6914.32
-6914.32
-6914.32
-6914.32
-6914.32
-6914.31
-6914.31
-6914.31
-6914.31
-6914.31
-6914.31
-6914.31
-6914.31
-6914.31
-6914.31
-6914.3
-6914.3
-6914.3
-6914.3
-6914.3
-6914.3
-6914.3
-6914.3
-6914.3
-6914.3
-6914.3
-6914.3
-6914.3
-6914.3
-6914.3
-6914.3
-6914.3
-6914.3
-6914.3
-6914.3
-6914.3
-6914.3
-6914.3
-6914.3
-6914.3
-6914.3
-6914.3
-6914.3
-6914.3
-6914.3
-6914.3
-6914.3
-6914.3
-6914.3
-6914.3
-7355.92
-7355.92
-7355.93
-7355.94
-7355.95
-7355.97
-7356
-7356.04
-7356.12
-7356.15
-7356.19
-7356.21
-7356.22
-7356.22
-7356.21
-7356.19
-7356.17
-7356.14
-7356.1
-7356.05
-7356
-7355.93
-7355.86
-7355.77
-7355.67
-7355.55
-7355.42
-7355.22
-7355.09
-7354.98
-7354.87
-7354.78
-7354.7
-7354.62
-7354.54
-7354.47
-7354.4
-7354.33
-7354.27
-7354.2
-7354.14
-7354.08
-7354.02
-7353.96
-7353.91
-7353.85
-7353.8
-7353.75
-7353.7
-7353.66
-7353.62
-7353.58
-7353.54
-7353.51
-7353.48
-7353.45
-7353.42
-7353.4
-7353.38
-7353.37
-7353.35
-7353.34
-7353.33
-7353.33
-7353.32
-7353.32
-7353.32
-7353.32
-7353.32
-7353.33
-7353.33
-7353.34
-7353.35
-7353.36
-7353.37
-7353.38
-7353.39
-7353.4
-7353.41
-7353.42
-7353.43
-7353.44
-7353.45
-7353.46
-7353.48
-7353.49
-7353.5
-7353.51
-7353.52
-7353.53
-7353.54
-7353.55
-7353.56
-7353.57
-7353.57
-7353.58
-7353.59
-7353.6
-7353.6
-7353.61
-7353.62
-7353.62
-7353.63
-7353.63
-7353.64
-7353.64
-7353.65
-7353.65
-7353.66
-7353.66
-7353.66
-7353.67
-7353.67
-7353.67
-7353.67
-7353.68
-7353.68
-7353.68
-7353.68
-7353.68
-7353.68
-7353.68
-7353.68
-7353.68
-7353.68
-7353.68
-7353.68
-7353.68
-7353.68
-7353.68
-7353.68
-7353.68
-7353.68
-7353.68
-7353.68
-7353.67
-7353.67
-7353.67
-7353.67
-7353.67
-7353.67
-7353.67
-7353.67
-7353.66
-7353.66
-7353.66
-7353.66
-7353.66
-7353.66
-7353.66
-7353.66
-7353.65
-7353.65
-7353.65
-7353.65
-7353.65
-7353.65
-7353.65
-7353.65
-7353.65
-7353.64
-7353.64
-7353.64
-7353.64
-7353.64
-7353.64
-7353.64
-7353.64
-7353.64
-7353.64
-7353.64
-7353.64
-7353.64
-7353.64
-7353.64
-7353.64
-7353.63
-7353.63
-7353.63
-7353.63
-7353.63
-7353.63
-7353.63
-7353.63
-7353.63
-7353.63
-7353.63
-7353.63
-7353.63
-7353.63
-7353.63
-7353.63
-7353.63
-7353.63
-7353.63
-7353.63
-7353.63
-7353.63
-7353.63
-7353.63
-7745.14
-7745.15
-7745.16
-7745.18
-7745.21
-7745.24
-7745.29
-7745.33
-7745.42
-7745.44
-7745.48
-7745.5
-7745.52
-7745.53
-7745.53
-7745.52
-7745.51
-7745.48
-7745.44
-7745.39
-7745.32
-7745.25
-7745.16
-7745.05
-7744.93
-7744.79
-7744.65
-7744.42
-7744.27
-7744.14
-7744.02
-7743.92
-7743.83
-7743.75
-7743.67
-7743.6
-7743.53
-7743.46
-7743.39
-7743.33
-7743.26
-7743.2
-7743.14
-7743.08
-7743.02
-7742.96
-7742.91
-7742.86
-7742.81
-7742.76
-7742.72
-7742.68
-7742.64
-7742.61
-7742.58
-7742.55
-7742.53
-7742.51
-7742.49
-7742.48
-7742.47
-7742.46
-7742.45
-7742.45
-7742.45
-7742.45
-7742.45
-7742.46
-7742.46
-7742.47
-7742.48
-7742.49
-7742.5
-7742.51
-7742.52
-7742.54
-7742.55
-7742.56
-7742.58
-7742.59
-7742.6
-7742.62
-7742.63
-7742.64
-7742.65
-7742.67
-7742.68
-7742.69
-7742.7
-7742.71
-7742.72
-7742.73
-7742.74
-7742.75
-7742.76
-7742.77
-7742.78
-7742.79
-7742.79
-7742.8
-7742.81
-7742.81
-7742.82
-7742.82
-7742.83
-7742.83
-7742.84
-7742.84
-7742.85
-7742.85
-7742.85
-7742.86
-7742.86
-7742.86
-7742.86
-7742.86
-7742.87
-7742.87
-7742.87
-7742.87
-7742.87
-7742.87
-7742.87
-7742.87
-7742.87
-7742.87
-7742.87
-7742.87
-7742.87
-7742.87
-7742.87
-7742.87
-7742.87
-7742.86
-7742.86
-7742.86
-7742.86
-7742.86
-7742.86
-7742.86
-7742.86
-7742.85
-7742.85
-7742.85
-7742.85
-7742.85
-7742.85
-7742.85
-7742.85
-7742.84
-7742.84
-7742.84
-7742.84
-7742.84
-7742.84
-7742.84
-7742.84
-7742.83
-7742.83
-7742.83
-7742.83
-7742.83
-7742.83
-7742.83
-7742.83
-7742.83
-7742.83
-7742.83
-7742.83
-7742.82
-7742.82
-7742.82
-7742.82
-7742.82
-7742.82
-7742.82
-7742.82
-7742.82
-7742.82
-7742.82
-7742.82
-7742.82
-7742.82
-7742.82
-7742.82
-7742.82
-7742.82
-7742.82
-7742.82
-7742.82
-7742.82
-7742.82
-7742.82
-7742.82
-7742.82
-7742.82
-7742.82
-7742.82
-7742.82
-7742.82
-8089.86
-8089.86
-8089.86
-8089.86
-8089.86
-8089.86
-8089.85
-8089.86
-8088.71
-8088.66
-8088.64
-8088.59
-8088.54
-8088.48
-8088.42
-8088.36
-8088.3
-8088.23
-8088.16
-8088.1
-8088.03
-8087.97
-8087.9
-8087.84
-8087.77
-8087.71
-8087.66
-8087.6
-8087.55
-8087.5
-8087.45
-8087.41
-8087.36
-8087.33
-8087.29
-8087.26
-8087.24
-8087.22
-8087.2
-8087.18
-8087.17
-8087.16
-8087.16
-8087.16
-8087.16
-8087.16
-8087.16
-8087.17
-8087.18
-8087.19
-8087.2
-8087.21
-8087.22
-8087.24
-8087.25
-8087.26
-8087.28
-8087.29
-8087.31
-8087.33
-8087.34
-8087.36
-8087.37
-8087.39
-8087.4
-8087.41
-8087.43
-8087.44
-8087.45
-8087.47
-8087.48
-8087.49
-8087.5
-8087.51
-8087.52
-8087.53
-8087.54
-8087.55
-8087.55
-8087.56
-8087.57
-8087.58
-8087.58
-8087.59
-8087.59
-8087.6
-8087.6
-8087.61
-8087.61
-8087.62
-8087.62
-8087.62
-8087.63
-8087.63
-8087.63
-8087.63
-8087.63
-8087.64
-8087.64
-8087.64
-8087.64
-8087.64
-8087.64
-8087.64
-8087.64
-8087.64
-8087.64
-8087.64
-8087.64
-8087.64
-8087.64
-8087.64
-8087.64
-8087.63
-8087.63
-8087.63
-8087.63
-8087.63
-8087.63
-8087.63
-8087.63
-8087.62
-8087.62
-8087.62
-8087.62
-8087.62
-8087.62
-8087.62
-8087.61
-8087.61
-8087.61
-8087.61
-8087.61
-8087.61
-8087.61
-8087.61
-8087.6
-8087.6
-8087.6
-8087.6
-8087.6
-8087.6
-8087.6
-8087.6
-8087.6
-8087.6
-8087.6
-8087.59
-8087.59
-8087.59
-8087.59
-8087.59
-8087.59
-8087.59
-8087.59
-8087.59
-8087.59
-8087.59
-8087.59
-8087.59
-8087.59
-8087.59
-8087.59
-8087.59
-8087.59
-8087.59
-8087.59
-8087.59
-8087.59
-8087.59
-8087.59
-8087.59
-8087.59
-8087.59
-8087.59
-8087.59
-8087.59
-8087.59
-8087.59
-8087.59
-8087.59
-8395.26
-8395.26
-8395.27
-8395.27
-8395.28
-8395.28
-8395.28
-8395.3
-8394.06
-8394.01
-8393.99
-8393.94
-8393.89
-8393.84
-8393.78
-8393.72
-8393.66
-8393.6
-8393.53
-8393.46
-8393.4
-8393.33
-8393.26
-8393.2
-8393.13
-8393.07
-8393.01
-8392.95
-8392.89
-8392.84
-8392.79
-8392.75
-8392.71
-8392.67
-8392.64
-8392.61
-8392.58
-8392.56
-8392.55
-8392.53
-8392.53
-8392.52
-8392.52
-8392.52
-8392.52
-8392.53
-8392.54
-8392.55
-8392.56
-8392.57
-8392.58
-8392.6
-8392.61
-8392.63
-8392.65
-8392.67
-8392.68
-8392.7
-8392.72
-8392.73
-8392.75
-8392.77
-8392.78
-8392.8
-8392.82
-8392.83
-8392.85
-8392.86
-8392.87
-8392.89
-8392.9
-8392.91
-8392.92
-8392.93
-8392.94
-8392.95
-8392.96
-8392.97
-8392.98
-8392.99
-8393
-8393
-8393.01
-8393.02
-8393.02
-8393.03
-8393.03
-8393.04
-8393.04
-8393.04
-8393.05
-8393.05
-8393.05
-8393.06
-8393.06
-8393.06
-8393.06
-8393.06
-8393.06
-8393.06
-8393.07
-8393.07
-8393.07
-8393.07
-8393.07
-8393.07
-8393.07
-8393.07
-8393.06
-8393.06
-8393.06
-8393.06
-8393.06
-8393.06
-8393.06
-8393.06
-8393.06
-8393.05
-8393.05
-8393.05
-8393.05
-8393.05
-8393.05
-8393.05
-8393.04
-8393.04
-8393.04
-8393.04
-8393.04
-8393.04
-8393.04
-8393.03
-8393.03
-8393.03
-8393.03
-8393.03
-8393.03
-8393.03
-8393.03
-8393.03
-8393.02
-8393.02
-8393.02
-8393.02
-8393.02
-8393.02
-8393.02
-8393.02
-8393.02
-8393.02
-8393.02
-8393.02
-8393.02
-8393.02
-8393.01
-8393.01
-8393.01
-8393.01
-8393.01
-8393.01
-8393.01
-8393.01
-8393.01
-8393.01
-8393.01
-8393.01
-8393.01
-8393.01
-8393.01
-8393.01
-8393.01
-8393.01
-8393.01
-8393.01
-8393.01
-8393.01
-8393.01
-8393.01
-8393.01
-8393.01
-8393.01
-8665.8
-8665.8
-8665.81
-8665.81
-8665.81
-8665.81
-8665.81
-8665.82
-8664.51
-8664.49
-8664.47
-8664.44
-8664.39
-8664.35
-8664.29
-8664.24
-8664.18
-8664.11
-8664.05
-8663.98
-8663.91
-8663.84
-8663.77
-8663.7
-8663.63
-8663.57
-8663.5
-8663.44
-8663.38
-8663.33
-8663.28
-8663.23
-8663.19
-8663.16
-8663.12
-8663.1
-8663.07
-8663.05
-8663.04
-8663.03
-8663.02
-8663.02
-8663.02
-8663.03
-8663.03
-8663.04
-8663.05
-8663.07
-8663.08
-8663.1
-8663.11
-8663.13
-8663.15
-8663.17
-8663.19
-8663.21
-8663.23
-8663.25
-8663.27
-8663.29
-8663.3
-8663.32
-8663.34
-8663.36
-8663.37
-8663.39
-8663.41
-8663.42
-8663.44
-8663.45
-8663.46
-8663.48
-8663.49
-8663.5
-8663.51
-8663.52
-8663.53
-8663.54
-8663.55
-8663.56
-8663.56
-8663.57
-8663.58
-8663.58
-8663.59
-8663.59
-8663.6
-8663.6
-8663.61
-8663.61
-8663.62
-8663.62
-8663.62
-8663.62
-8663.63
-8663.63
-8663.63
-8663.63
-8663.63
-8663.63
-8663.63
-8663.63
-8663.63
-8663.63
-8663.63
-8663.63
-8663.63
-8663.63
-8663.63
-8663.63
-8663.63
-8663.63
-8663.63
-8663.62
-8663.62
-8663.62
-8663.62
-8663.62
-8663.62
-8663.62
-8663.61
-8663.61
-8663.61
-8663.61
-8663.61
-8663.61
-8663.61
-8663.6
-8663.6
-8663.6
-8663.6
-8663.6
-8663.6
-8663.6
-8663.6
-8663.59
-8663.59
-8663.59
-8663.59
-8663.59
-8663.59
-8663.59
-8663.59
-8663.59
-8663.59
-8663.58
-8663.58
-8663.58
-8663.58
-8663.58
-8663.58
-8663.58
-8663.58
-8663.58
-8663.58
-8663.58
-8663.58
-8663.58
-8663.58
-8663.58
-8663.58
-8663.58
-8663.58
-8663.58
-8663.58
-8663.58
-8663.58
-8663.58
-8663.58
-8663.58
-8663.58
-8663.58
-8663.58
-8663.58
-8663.58
-8663.58
-8663.58
-8663.58
-8663.58
-8663.58
-8663.58
-8905.46
-8905.46
-8905.46
-8905.47
-8905.47
-8905.47
-8905.47
-8905.47
-8904.14
-8904.12
-8904.1
-8904.07
-8904.03
-8903.99
-8903.94
-8903.88
-8903.82
-8903.75
-8903.69
-8903.62
-8903.54
-8903.47
-8903.4
-8903.33
-8903.25
-8903.18
-8903.12
-8903.05
-8902.99
-8902.94
-8902.89
-8902.84
-8902.8
-8902.76
-8902.73
-8902.7
-8902.68
-8902.67
-8902.65
-8902.65
-8902.64
-8902.64
-8902.65
-8902.66
-8902.67
-8902.68
-8902.69
-8902.71
-8902.73
-8902.75
-8902.77
-8902.79
-8902.81
-8902.83
-8902.85
-8902.87
-8902.89
-8902.92
-8902.94
-8902.96
-8902.98
-8903
-8903.02
-8903.03
-8903.05
-8903.07
-8903.09
-8903.1
-8903.12
-8903.13
-8903.14
-8903.16
-8903.17
-8903.18
-8903.19
-8903.2
-8903.21
-8903.22
-8903.23
-8903.24
-8903.25
-8903.26
-8903.26
-8903.27
-8903.27
-8903.28
-8903.28
-8903.29
-8903.29
-8903.3
-8903.3
-8903.3
-8903.31
-8903.31
-8903.31
-8903.31
-8903.31
-8903.31
-8903.32
-8903.32
-8903.32
-8903.32
-8903.32
-8903.32
-8903.32
-8903.32
-8903.32
-8903.31
-8903.31
-8903.31
-8903.31
-8903.31
-8903.31
-8903.31
-8903.31
-8903.31
-8903.3
-8903.3
-8903.3
-8903.3
-8903.3
-8903.3
-8903.29
-8903.29
-8903.29
-8903.29
-8903.29
-8903.29
-8903.29
-8903.28
-8903.28
-8903.28
-8903.28
-8903.28
-8903.28
-8903.28
-8903.28
-8903.27
-8903.27
-8903.27
-8903.27
-8903.27
-8903.27
-8903.27
-8903.27
-8903.27
-8903.27
-8903.27
-8903.27
-8903.26
-8903.26
-8903.26
-8903.26
-8903.26
-8903.26
-8903.26
-8903.26
-8903.26
-8903.26
-8903.26
-8903.26
-8903.26
-8903.26
-8903.26
-8903.26
-8903.26
-8903.26
-8903.26
-8903.26
-8903.26
-8903.26
-8903.26
-8903.26
-8903.26
-8903.26
-8903.26
-8903.26
-8903.26
-8903.26
-8903.26
-8903.26
-9117.77
-9117.77
-9117.77
-9117.77
-9117.77
-9117.77
-9117.77
-9117.77
-9116.43
-9116.42
-9116.4
-9116.37
-9116.33
-9116.29
-9116.24
-9116.18
-9116.12
-9116.05
-9115.98
-9115.9
-9115.83
-9115.75
-9115.68
-9115.6
-9115.52
-9115.45
-9115.38
-9115.32
-9115.25
-9115.2
-9115.14
-9115.1
-9115.05
-9115.02
-9114.99
-9114.96
-9114.94
-9114.93
-9114.92
-9114.91
-9114.91
-9114.92
-9114.92
-9114.93
-9114.95
-9114.96
-9114.98
-9115
-9115.02
-9115.04
-9115.07
-9115.09
-9115.11
-9115.14
-9115.16
-9115.18
-9115.21
-9115.23
-9115.25
-9115.28
-9115.3
-9115.32
-9115.34
-9115.36
-9115.38
-9115.39
-9115.41
-9115.43
-9115.44
-9115.46
-9115.47
-9115.49
-9115.5
-9115.51
-9115.52
-9115.53
-9115.54
-9115.55
-9115.56
-9115.57
-9115.58
-9115.59
-9115.59
-9115.6
-9115.6
-9115.61
-9115.61
-9115.62
-9115.62
-9115.63
-9115.63
-9115.63
-9115.64
-9115.64
-9115.64
-9115.64
-9115.64
-9115.64
-9115.64
-9115.65
-9115.65
-9115.65
-9115.65
-9115.65
-9115.64
-9115.64
-9115.64
-9115.64
-9115.64
-9115.64
-9115.64
-9115.64
-9115.64
-9115.64
-9115.64
-9115.63
-9115.63
-9115.63
-9115.63
-9115.63
-9115.63
-9115.62
-9115.62
-9115.62
-9115.62
-9115.62
-9115.62
-9115.62
-9115.61
-9115.61
-9115.61
-9115.61
-9115.61
-9115.61
-9115.61
-9115.6
-9115.6
-9115.6
-9115.6
-9115.6
-9115.6
-9115.6
-9115.6
-9115.6
-9115.6
-9115.59
-9115.59
-9115.59
-9115.59
-9115.59
-9115.59
-9115.59
-9115.59
-9115.59
-9115.59
-9115.59
-9115.59
-9115.59
-9115.59
-9115.59
-9115.59
-9115.59
-9115.59
-9115.59
-9115.59
-9115.59
-9115.59
-9115.59
-9115.59
-9115.59
-9115.59
-9115.59
-9115.59
-9115.59
-9115.59
-9115.59
-9115.59
-9115.59
-9115.59
-9115.59
-9115.59
-9305.84
-9305.84
-9305.84
-9305.84
-9305.84
-9305.84
-9305.84
-9305.84
-9304.51
-9304.49
-9304.47
-9304.44
-9304.41
-9304.36
-9304.31
-9304.25
-9304.18
-9304.11
-9304.04
-9303.96
-9303.88
-9303.8
-9303.72
-9303.64
-9303.56
-9303.49
-9303.41
-9303.35
-9303.28
-9303.22
-9303.17
-9303.12
-9303.08
-9303.04
-9303.01
-9302.99
-9302.97
-9302.96
-9302.95
-9302.95
-9302.95
-9302.96
-9302.97
-9302.98
-9303
-9303.02
-9303.04
-9303.06
-9303.08
-9303.11
-9303.13
-9303.16
-9303.18
-9303.21
-9303.24
-9303.26
-9303.29
-9303.31
-9303.34
-9303.36
-9303.38
-9303.4
-9303.42
-9303.45
-9303.46
-9303.48
-9303.5
-9303.52
-9303.53
-9303.55
-9303.56
-9303.58
-9303.59
-9303.6
-9303.62
-9303.63
-9303.64
-9303.65
-9303.66
-9303.66
-9303.67
-9303.68
-9303.69
-9303.69
-9303.7
-9303.7
-9303.71
-9303.71
-9303.72
-9303.72
-9303.72
-9303.73
-9303.73
-9303.73
-9303.73
-9303.73
-9303.74
-9303.74
-9303.74
-9303.74
-9303.74
-9303.74
-9303.74
-9303.74
-9303.74
-9303.74
-9303.74
-9303.74
-9303.74
-9303.73
-9303.73
-9303.73
-9303.73
-9303.73
-9303.73
-9303.73
-9303.72
-9303.72
-9303.72
-9303.72
-9303.72
-9303.72
-9303.71
-9303.71
-9303.71
-9303.71
-9303.71
-9303.71
-9303.71
-9303.7
-9303.7
-9303.7
-9303.7
-9303.7
-9303.7
-9303.7
-9303.7
-9303.69
-9303.69
-9303.69
-9303.69
-9303.69
-9303.69
-9303.69
-9303.69
-9303.69
-9303.69
-9303.69
-9303.68
-9303.68
-9303.68
-9303.68
-9303.68
-9303.68
-9303.68
-9303.68
-9303.68
-9303.68
-9303.68
-9303.68
-9303.68
-9303.68
-9303.68
-9303.68
-9303.68
-9303.68
-9303.68
-9303.68
-9303.68
-9303.68
-9303.68
-9303.68
-9303.68
-9303.68
-9303.68
-9303.68
-9303.68
-9303.68
-9303.68
-9303.68
-9303.68
-9472.45
-9472.45
-9472.45
-9472.45
-9472.45
-9472.45
-9472.45
-9472.45
-9471.13
-9471.11
-9471.09
-9471.06
-9471.02
-9470.98
-9470.92
-9470.86
-9470.79