/*--------------------------------*- C++ -*----------------------------------*\
  =========                 |
  \\      /  F ield         | OpenFOAM: The Open Source CFD Toolbox
   \\    /   O peration     | Website:  https://openfoam.org
    \\  /    A nd           | Version:  12
     \\/     M anipulation  |
\*---------------------------------------------------------------------------*/
FoamFile
{
    format      ascii;
    class       surfaceScalarField;
    location    "13.2";
    object      phi;
}
// * * * * * * * * * * * * * * * * * * * * * * * * * * * * * * * * * * * * * //

dimensions      [1 0 -1 0 0 0 0];

internalField   nonuniform List<scalar> 
7429
(
-0.000135165
0.000135165
-0.000271072
0.000135906
-0.0004104
0.000139327
-0.000554217
0.000143817
-0.000703528
0.00014931
-0.00085932
0.000155792
-0.00102252
0.000163196
-0.00119394
0.000171418
-0.00137429
0.000180352
-0.00156415
0.000189864
-0.00176384
0.000199686
-0.00197349
0.000209653
-0.002193
0.000219505
-0.00242199
0.000228994
-0.00265984
0.000237843
-0.00290564
0.000245799
-0.00315815
0.000252514
-0.00341594
0.00025779
-0.00367725
0.000261313
-0.00394012
0.00026287
-0.00420234
0.000262212
-0.0044615
0.000259163
-0.00471508
0.000253575
-0.00496038
0.000245309
-0.00519474
0.000234351
-0.00541537
0.000220631
-0.00561958
0.000204213
-0.00580474
0.000185158
-0.00596842
0.00016368
-0.00610828
0.000139858
-0.0062223
0.000114027
-0.00630873
8.64281e-05
-0.00636617
5.74399e-05
-0.00639385
2.7677e-05
-0.0063889
-4.95543e-06
-0.00634705
-4.18432e-05
-0.0062702
-7.68494e-05
-0.00615962
-0.000110582
-0.00601682
-0.000142806
-0.00584367
-0.000173144
-0.00564224
-0.000201428
-0.00541472
-0.000227519
-0.0051626
-0.000252128
-0.00488758
-0.000275014
-0.00459191
-0.000295671
-0.00427818
-0.000313729
-0.00394945
-0.000328728
-0.00360877
-0.000340682
-0.0032596
-0.000349177
-0.0029056
-0.000353997
-0.00255042
-0.000355179
-0.0021979
-0.000352519
-0.00185161
-0.000346293
-0.00151556
-0.000336052
-0.00119336
-0.000322191
-0.000889385
-0.000303979
-0.000606204
-0.00028318
-0.00034771
-0.000258494
-0.000116727
-0.000230983
8.32435e-05
-0.000199971
0.000250513
-0.00016727
0.000382217
-0.000131704
0.000476815
-9.45979e-05
0.00053226
-5.54445e-05
0.000548676
-1.64161e-05
0.000521257
2.74186e-05
0.000453967
6.72902e-05
0.000348101
0.000105866
0.00020554
0.000142561
2.82053e-05
0.000177335
-0.000181268
0.000209473
-0.0004201
0.000238832
-0.000684276
0.000264176
-0.000969176
0.0002849
-0.00126989
0.000300715
-0.00158032
0.000310431
-0.00189516
0.000314836
-0.00220754
0.000312377
-0.00251128
0.000303742
-0.00279921
0.000287936
-0.00306522
0.000266003
-0.00330222
0.000237008
-0.00350421
0.000201981
-0.00366507
0.000160865
-0.00378004
0.000114968
-0.00384449
6.44527e-05
-0.00385564
1.11442e-05
-0.00379998
-5.56559e-05
-0.00368181
-0.000118174
-0.00350236
-0.000179446
-0.00326406
-0.0002383
-0.00297016
-0.000293903
-0.00262477
-0.000345384
-0.00223306
-0.00039171
-0.0018019
-0.000431161
-0.00133956
-0.000462341
-0.000855614
-0.000483947
-0.000360987
-0.000494627
0.000132875
-0.000493862
0.000613581
-0.000480707
0.0010684
-0.000454815
0.0014851
-0.000416708
0.00185139
-0.000366285
0.00215652
-0.00030513
0.00239054
-0.000234023
0.00254544
-0.000154901
0.00261541
-6.99701e-05
0.00259121
2.42065e-05
0.00247253
0.000118674
0.00226527
0.000207266
0.00197613
0.000289138
0.00161326
0.000362865
0.00118774
0.00042552
0.000713785
0.000473959
0.000207498
0.000506287
-0.00031192
0.000519417
-0.000824863
0.000512944
-0.00131068
0.000485821
-0.00174907
0.000438385
-0.00212133
0.000372261
-0.00241041
0.000289079
-0.00260237
0.00019196
-0.00268807
8.5696e-05
-0.00265315
-3.49124e-05
-0.00249953
-0.000153627
-0.00223611
-0.000263421
-0.00187507
-0.000361036
-0.0014305
-0.000444569
-0.000922801
-0.000507701
-0.000376592
-0.000546209
0.000181646
-0.000558238
0.000722115
-0.000540469
0.00121567
-0.000493553
0.00163517
-0.000419502
0.00195691
-0.000321743
0.00216208
-0.000205168
0.0022389
-7.68209e-05
0.00217269
6.62169e-05
0.00197296
0.000199727
0.00165487
0.000318084
0.00123812
0.000416756
0.000748927
0.000489191
0.000219989
0.000528938
-0.000312579
0.000532568
-0.000810659
0.000498081
-0.00123917
0.00042851
-0.00156708
0.000327913
-0.00177125
0.000204172
-0.00183813
6.68756e-05
-0.001755
-8.31306e-05
-0.00153778
-0.000217224
-0.00120771
-0.000330061
-0.000794104
-0.00041361
-0.000334072
-0.000460032
0.000129918
-0.00046399
0.000553618
-0.000423701
0.000897423
-0.000343804
0.00112931
-0.000231889
0.00122811
-9.88009e-05
0.00117945
4.86596e-05
0.000993517
0.000185936
0.000693883
0.000299635
0.000312814
0.000381069
-0.000108575
0.000421388
-0.00052206
0.000413486
-0.000882749
0.000360689
-0.00115186
0.00026911
-0.00130216
0.000150306
-0.00132229
2.0128e-05
-0.00120824
-0.000114051
-0.000988012
-0.000220229
-0.000694304
-0.000293708
-0.000368839
-0.000325465
-5.5876e-05
-0.000312963
0.000201819
-0.000257695
0.000375051
-0.000173233
0.000448298
-7.32464e-05
0.000418669
2.96285e-05
0.00030757
0.000111099
0.000145262
0.000162308
-3.02933e-05
0.000175556
-0.000179706
0.000149413
-0.000272387
9.26806e-05
-0.000290835
1.84481e-05
-0.000227652
-6.31822e-05
-0.000101634
-0.000126019
6.06214e-05
-0.000162255
0.000223658
-0.000163036
0.00035246
-0.000128802
0.000420038
-6.75787e-05
0.000411655
8.38351e-06
0.000329461
8.21941e-05
0.000191763
0.000137698
2.89803e-05
0.000162783
-0.000123166
0.000152147
-0.000231885
0.000108718
-0.000273264
4.13788e-05
-0.000238982
-3.42811e-05
-0.000139127
-9.98551e-05
-0.000139127
-1.31536e-05
0.000148318
-2.21753e-05
0.000144927
-3.52766e-05
0.000152428
-5.47188e-05
0.000163258
-8.27635e-05
0.000177354
-0.000121602
0.00019463
-0.0001735
0.000215093
-0.000240561
0.000238479
-0.000324872
0.000264662
-0.00042807
0.000293061
-0.000551445
0.00032306
-0.000695849
0.000354056
-0.000861688
0.000385343
-0.00104882
0.000416127
-0.0012566
0.000445621
-0.00148384
0.000473035
-0.00172884
0.000497514
-0.00198941
0.000518365
-0.00226297
0.000534866
-0.00254649
0.000546394
-0.00283656
0.000552279
-0.00312945
0.000552049
-0.00342147
0.000545596
-0.00370851
0.000532354
-0.00398663
0.00051247
-0.00425156
0.000485555
-0.00449961
0.000452264
-0.00472681
0.000412356
-0.00492968
0.000366554
-0.00510475
0.00031493
-0.005249
0.000258276
-0.00535945
0.000196875
-0.0054338
0.000131786
-0.00546921
6.30899e-05
-0.00546919
-4.97806e-06
-0.0054421
-6.89374e-05
-0.00538305
-0.000135895
-0.00529016
-0.000203477
-0.00516274
-0.000270224
-0.00500087
-0.000335012
-0.00480543
-0.000396866
-0.00457795
-0.000455
-0.00432133
-0.000508746
-0.00403885
-0.000557498
-0.00373385
-0.00060067
-0.00340985
-0.000637732
-0.00307029
-0.000668288
-0.00271911
-0.00069186
-0.00236001
-0.000708273
-0.00199708
-0.000716925
-0.00163436
-0.000717904
-0.00127593
-0.000710946
-0.000926033
-0.000696193
-0.000588649
-0.000673436
-0.000267856
-0.000642984
3.33177e-05
-0.000605153
0.000309705
-0.000559568
0.000558779
-0.000507568
0.000776387
-0.000448591
0.000960264
-0.000383849
0.00110767
-0.000314674
0.00121652
-0.000240552
0.00128427
-0.000162347
0.00131137
-8.25443e-05
0.0012901
4.84633e-06
0.00122554
9.19841e-05
0.00111865
0.000174174
0.000970834
0.000253686
0.000783656
0.000329738
0.000559178
0.000401813
0.00030016
0.000468492
1.07647e-05
0.000528227
-0.00030491
0.000579851
-0.000642319
0.000622309
-0.000995577
0.000653972
-0.00135863
0.000673482
-0.00172476
0.000680967
-0.00208726
0.000674877
-0.00243875
0.000655236
-0.0027718
0.000620987
-0.00307933
0.000573526
-0.00335398
0.000511661
-0.00358893
0.000436929
-0.0037775
0.000349441
-0.00391421
0.000251677
-0.00399449
0.000144732
-0.0040136
3.02496e-05
-0.00396226
-0.000106995
-0.00384319
-0.00023724
-0.00365733
-0.00036531
-0.00340662
-0.000489014
-0.00309396
-0.000606556
-0.00272389
-0.000715452
-0.00230232
-0.000813284
-0.0018371
-0.000896381
-0.00133748
-0.000961966
-0.000814077
-0.00100734
-0.000279036
-0.00102967
0.000254938
-0.00102784
0.000774196
-0.000999965
0.00126482
-0.000945444
0.00171347
-0.00086535
0.00210673
-0.00075955
0.00243211
-0.000630511
0.00267971
-0.000481622
0.00284073
-0.000315914
0.00290937
-0.000138611
0.00287382
5.97573e-05
0.00273809
0.000254403
0.00250689
0.000438465
0.00218613
0.00060989
0.00178502
0.000763975
0.00131583
0.000894716
0.000794439
0.000995349
0.000239442
0.00106128
-0.000329502
0.00108836
-0.000889956
0.0010734
-0.00141954
0.0010154
-0.00189628
0.000915124
-0.00229947
0.000775453
-0.00261036
0.00059997
-0.00281448
0.000396084
-0.00290082
0.00017203
-0.00285664
-7.90848e-05
-0.00268619
-0.00032408
-0.00239709
-0.000552518
-0.00200072
-0.000757408
-0.00151401
-0.000931281
-0.000960408
-0.0010613
-0.000364227
-0.00114239
0.000240189
-0.00116265
0.000824155
-0.00112443
0.00135493
-0.00102433
0.00180387
-0.000868442
0.00214427
-0.00066214
0.00235593
-0.000416835
0.00242755
-0.00014844
0.00234534
0.000148434
0.00212102
0.000424042
0.00176824
0.000670863
0.00130923
0.000875768
0.000773874
0.00102455
0.000198057
0.00110475
-0.000378115
0.00110874
-0.000913974
0.00103394
-0.00137107
0.000885602
-0.00171645
0.000673296
-0.00192496
0.00041268
-0.00198301
0.000124929
-0.00187971
-0.000186436
-0.00163272
-0.000464209
-0.00126389
-0.000698891
-0.000806366
-0.000871134
-0.000301809
-0.000964589
0.000203135
-0.000968933
0.000660815
-0.000881381
0.00102861
-0.000711602
0.00127188
-0.000475151
0.00136908
-0.000196007
0.00130603
0.000111708
0.00109709
0.000394881
0.000765568
0.000631154
0.000347943
0.000798694
-0.000108769
0.000878101
-0.000553178
0.000857895
-0.000936074
0.000743584
-0.00121619
0.000549224
-0.0013648
0.000298916
-0.00137031
2.56442e-05
-0.00123552
-0.000248849
-0.000987527
-0.00046822
-0.00066345
-0.000617784
-0.000310166
-0.00067875
2.29323e-05
-0.000646061
0.000292266
-0.000527029
0.00046512
-0.000346087
0.000525974
-0.0001341
0.000475696
7.9906e-05
0.000338152
0.000248643
0.000147657
0.000352803
-5.33368e-05
0.00037655
-0.000221506
0.000317582
-0.00032335
0.000194525
-0.000340688
3.57861e-05
-0.000269097
-0.000134774
-0.000128452
-0.000266663
5.11424e-05
-0.000341849
0.000230129
-0.000342023
0.000370222
-0.000268895
0.000442507
-0.000139863
0.000431632
1.92577e-05
0.000341728
0.000172098
0.000192309
0.000287117
1.73339e-05
0.000337758
-0.00014553
0.00031501
-0.00026017
0.000223359
-0.000301773
8.29811e-05
-0.000262083
-7.39708e-05
-0.000152082
-0.000209857
-0.000291209
5.85019e-05
8.98148e-05
0.000112515
9.09135e-05
0.00015646
0.000108481
0.000184696
0.000135022
0.000191307
0.000170742
0.000170796
0.00021514
0.000117561
0.000268327
2.72629e-05
0.000328776
-0.000103996
0.00039592
-0.000278293
0.000467357
-0.000497368
0.000542135
-0.000761575
0.000618263
-0.00107053
0.000694296
-0.00142245
0.000768042
-0.00181472
0.000837891
-0.00224359
0.000901903
-0.00270436
0.000958289
-0.00319153
0.00100554
-0.00369854
0.00104187
-0.00421821
0.00106607
-0.00474293
0.00107699
-0.00526458
0.0010737
-0.00577491
0.00105593
-0.0062655
0.00102294
-0.00672866
0.000975621
-0.00715662
0.000913518
-0.00754292
0.000838564
-0.00788156
0.000750996
-0.00816822
0.000653212
-0.00839914
0.000545851
-0.00857231
0.00043144
-0.00868684
0.000311412
-0.00874309
0.000188028
-0.00874458
6.4586e-05
-0.00867255
-7.70058e-05
-0.00852648
-0.000215011
-0.00831734
-0.000345034
-0.00805348
-0.000467336
-0.0077422
-0.000581509
-0.0073883
-0.000688907
-0.00699611
-0.000789056
-0.00656921
-0.000881908
-0.00611114
-0.000966812
-0.00562602
-0.00104262
-0.00511802
-0.00110867
-0.00459323
-0.00116252
-0.00405553
-0.00120599
-0.00351159
-0.00123579
-0.0029661
-0.00125377
-0.00242373
-0.00125929
-0.00188966
-0.00125198
-0.00137074
-0.00122986
-0.000870859
-0.00119608
-0.000393647
-0.00115065
5.37089e-05
-0.00109034
0.000469249
-0.00102069
0.000845789
-0.000936107
0.0011811
-0.00084288
0.00147291
-0.000740403
0.00171745
-0.00062838
0.00191075
-0.000507981
0.00204947
-0.000379265
0.00213329
-0.000246167
0.0021629
-0.00011216
0.00213513
3.26223e-05
0.00205508
0.000172025
0.00192049
0.000308773
0.00173237
0.000441798
0.00149314
0.000568971
0.00120637
0.000688583
0.000876321
0.000798542
0.000508108
0.00089644
0.000108026
0.000979934
-0.000318275
0.00104861
-0.000763989
0.00109969
-0.00122113
0.00113063
-0.00168147
0.0011413
-0.00213674
0.00113015
-0.00257773
0.00109623
-0.0029958
0.00103906
-0.00338182
0.000959548
-0.00372739
0.000857227
-0.0040235
0.000733045
-0.00426301
0.000588946
-0.0044382
0.000426872
-0.00454306
0.000249586
-0.00457276
5.99551e-05
-0.00452074
-0.000159017
-0.00438745
-0.000370529
-0.00417391
-0.000578846
-0.00388191
-0.000781019
-0.0035147
-0.000973766
-0.0030776
-0.00115255
-0.00257795
-0.00131293
-0.00202573
-0.0014486
-0.00143209
-0.00155561
-0.000810188
-0.00162925
-0.000174682
-0.00166517
0.000459122
-0.00166164
0.00107453
-0.00161537
0.00165529
-0.00152621
0.00218452
-0.00139457
0.00264613
-0.00122116
0.00302678
-0.00101116
0.00331175
-0.000766594
0.0034912
-0.000495368
0.0035577
-0.000205105
0.00350316
0.000114294
0.00333132
0.000426246
0.00304517
0.000724616
0.00265147
0.00100358
0.00216214
0.00125331
0.00159245
0.00146441
0.000961
0.0016268
0.000291048
0.00173124
-0.000393519
0.00177293
-0.00106578
0.00174566
-0.00169841
0.00164803
-0.00226526
0.00148197
-0.00274145
0.00125164
-0.00310569
0.000964206
-0.00333997
0.000630369
-0.00343049
0.000262548
-0.00336869
-0.000140883
-0.00315767
-0.000535105
-0.00280645
-0.000903732
-0.00232637
-0.0012375
-0.00174135
-0.0015163
-0.00107625
-0.0017264
-0.000367048
-0.00185159
0.000353283
-0.00188298
0.00104449
-0.00181565
0.00166954
-0.00164938
0.00219231
-0.00139121
0.00258375
-0.00105357
0.00282142
-0.000654505
0.00288612
-0.000213144
0.00277287
0.000261687
0.00249202
0.00070489
0.00205927
0.00110362
0.00150242
0.00143262
0.000858356
0.00166861
0.000170064
0.00179305
-0.000513361
0.00179217
-0.00114359
0.00166416
-0.00167538
0.0014174
-0.00206948
0.00106739
-0.00229697
0.000640175
-0.00234305
0.000171007
-0.00219995
-0.000329537
-0.00188764
-0.00077652
-0.00143216
-0.00115437
-0.00087551
-0.00142778
-0.000268016
-0.00157208
0.000335044
-0.00157199
0.000875371
-0.00142171
0.00130307
-0.0011393
0.00157854
-0.000750624
0.00167712
-0.000294583
0.0015868
0.000202023
0.00132533
0.000656357
0.000920152
0.00103633
0.000417924
0.00130092
-0.000125113
0.00142114
-0.000646323
0.00137911
-0.0010889
0.00118616
-0.0014045
0.000864828
-0.00156125
0.000455657
-0.00154104
5.43707e-06
-0.00136285
-0.000427037
-0.00105317
-0.000777897
-0.000659151
-0.00101181
-0.000238528
-0.00109937
0.000149347
-0.00103394
0.000452767
-0.000830449
0.000634732
-0.000528051
0.000680036
-0.000179404
0.000593143
0.000166799
0.000404096
0.00043769
0.000156628
0.000600271
-9.69974e-05
0.000630175
-0.000304447
0.000525031
-0.000426363
0.000316441
-0.00044198
5.14032e-05
-0.000350555
-0.0002262
-0.000176011
-0.000441207
4.32933e-05
-0.000561154
0.000258974
-0.000557704
0.000425576
-0.000435496
0.000509266
-0.000223554
0.000493186
3.53382e-05
0.000384158
0.000281126
0.000206072
0.000465203
-1.26975e-06
0.000545099
-0.000190064
0.000503804
-0.000321165
0.00035446
-0.000365832
0.000127648
-0.000315008
-0.000124795
-0.000181959
-0.000342906
-0.000473168
0.000405065
-0.000315251
0.000814771
-0.000318793
0.00121512
-0.000291864
0.00159871
-0.000248568
0.0019575
-0.000188052
0.00228543
-0.00011279
0.00257688
-2.31213e-05
0.00280455
0.000101101
0.00295063
0.000249842
0.00300996
0.000408024
0.00297449
0.000577603
0.00284213
0.000750624
0.0026115
0.000924925
0.00228523
0.00109431
0.00186728
0.00125584
0.00136491
0.00140426
0.000787007
0.0015362
0.000144443
0.0016481
-0.000550195
0.00173651
-0.00128238
0.00179825
-0.00203775
0.00183236
-0.00280078
0.00183672
-0.00355684
0.00181199
-0.0042897
0.00175581
-0.00498661
0.00167253
-0.00563203
0.00155894
-0.00621767
0.0014242
-0.00672902
0.00126235
-0.00716364
0.00108783
-0.00751127
0.000893477
-0.00777171
0.000691885
-0.0079403
0.000479997
-0.00801625
0.000263982
-0.00799422
4.25558e-05
-0.00792273
-0.000148502
-0.00779168
-0.00034606
-0.00759591
-0.000540801
-0.00733479
-0.00072846
-0.00700996
-0.000906339
-0.00662629
-0.00107257
-0.00619003
-0.00122532
-0.0057081
-0.00136384
-0.00518824
-0.00148667
-0.00463739
-0.00159348
-0.00406292
-0.00168314
-0.00347024
-0.0017552
-0.00286699
-0.00180924
-0.00225807
-0.00184472
-0.00165054
-0.00186129
-0.0010509
-0.00185893
-0.000464606
-0.00183828
0.000103629
-0.0017981
0.000646617
-0.00173907
0.00115898
-0.00166301
0.00163606
-0.00156742
0.00207219
-0.00145682
0.00246465
-0.00132857
0.00280659
-0.00118482
0.00309268
-0.00102649
0.00332169
-0.000857385
0.00349157
-0.000677862
0.00359957
-0.000487268
0.00364519
-0.000291785
0.00362016
-8.71302e-05
0.00352714
0.000125641
0.00336986
0.000329302
0.00314923
0.000529405
0.00286666
0.000724366
0.00252505
0.000910588
0.00212853
0.0010851
0.00168138
0.0012457
0.00119024
0.00138757
0.000661535
0.00150864
0.000103463
0.00160668
-0.000475029
0.00167818
-0.00106502
0.00172061
-0.00165687
0.00173315
-0.00224019
0.00171347
-0.00280392
0.00165995
-0.0033375
0.00157264
-0.00382952
0.00145157
-0.00426922
0.00129692
-0.00464675
0.00111058
-0.00495257
0.000894768
-0.00517832
0.00065262
-0.00531871
0.000389978
-0.00536679
0.000108033
-0.00531102
-0.000214784
-0.00515659
-0.000524965
-0.00490293
-0.000832506
-0.00455251
-0.00113143
-0.00410868
-0.0014176
-0.00357909
-0.00168213
-0.00297294
-0.00191909
-0.0023023
-0.00211924
-0.00158118
-0.00227672
-0.000825799
-0.00238463
-5.44798e-05
-0.00243649
0.000714079
-0.0024302
0.00145945
-0.00236074
0.00216069
-0.00222745
0.00279734
-0.00203122
0.00335141
-0.00177523
0.00380291
-0.00146266
0.00413954
-0.00110322
0.00434719
-0.000703023
0.00441745
-0.000275359
0.00433697
0.000194768
0.00411419
0.000649031
0.00375208
0.00108672
0.00326001
0.00149566
0.00265193
0.00186139
0.00194707
0.00216926
0.00116967
0.00240419
0.000347297
0.00255361
-0.000490944
0.00261117
-0.0013113
0.00256602
-0.00208107
0.0024178
-0.00276775
0.00216866
-0.00334124
0.00182513
-0.00377588
0.00139884
-0.00405014
0.000904637
-0.00415208
0.00036449
-0.00406362
-0.000229344
-0.00379634
-0.000802393
-0.0033567
-0.00134337
-0.00276426
-0.00182994
-0.00204314
-0.00223742
-0.00123111
-0.00253843
-0.000366258
-0.00271644
0.000507328
-0.00275657
0.00134187
-0.00265019
0.00209081
-0.00239831
0.00271387
-0.00201427
0.00317304
-0.00151275
0.00343874
-0.000920211
0.00350012
-0.000274527
0.00334369
0.000418124
0.00298558
0.001063
0.00244467
0.00164452
0.00175636
0.00212093
0.000966452
0.00245852
0.000128222
0.00263128
-0.000697822
0.00261821
-0.0014539
0.00242024
-0.00208445
0.00204795
-0.00254402
0.00152696
-0.00279728
0.000893428
-0.00282584
0.000199568
-0.0026305
-0.000524871
-0.00222955
-0.00117747
-0.00165843
-0.0017255
-0.000968385
-0.00211782
-0.00022216
-0.00231831
0.00050863
-0.00230278
0.00115775
-0.00207082
0.00166555
-0.0016471
0.00198274
-0.00106782
0.00208092
-0.000392761
0.0019538
0.00032914
0.00161915
0.000991003
0.0011149
0.00154059
0.000498721
0.0019171
-0.00015974
0.0020796
-0.000784837
0.0020042
-0.00130565
0.00170697
-0.00166639
0.00122557
-0.00183092
0.00062019
-0.00178275
-4.27336e-05
-0.00154424
-0.000665547
-0.00115162
-0.00117051
-0.000663794
-0.00149964
-0.000152223
-0.00161094
0.000308521
-0.00149468
0.000657746
-0.00117967
0.000852927
-0.000723232
0.000876857
-0.000203334
0.000742116
0.00030154
0.000485425
0.000694382
0.000163284
0.000922412
-0.000158605
0.000952063
-0.000416102
0.000782528
-0.000562778
0.000463117
-0.000573692
6.23179e-05
-0.000454506
-0.000345386
-0.000234118
-0.000661595
3.84968e-05
-0.000833768
0.000302859
-0.000822066
0.000504087
-0.000636725
0.000602048
-0.000321515
0.000578645
5.87413e-05
0.000443218
0.000416553
0.000226838
0.000681583
-2.13592e-05
0.000793297
-0.000247148
0.000729593
-0.000400628
0.00050794
-0.000449609
0.000176629
-0.000384338
-0.000190066
-0.000221231
-0.000506012
-0.000694399
0.00104277
-0.00135802
0.00208013
-0.00135615
0.00307569
-0.00128743
0.00399983
-0.0011727
0.00481802
-0.00100624
0.00549791
-0.000792677
0.00599093
-0.000516144
0.00629006
-0.000198029
0.00636732
0.000172581
0.00624616
0.000529183
0.00592079
0.000902974
0.00540141
0.00127
0.00469647
0.00162987
0.00382135
0.00196943
0.00279357
0.00228362
0.00163424
0.0025636
0.00036675
0.00280369
-0.000982712
0.00299756
-0.00238799
0.00314179
-0.00382185
0.00323211
-0.00525603
0.00326654
-0.00665759
0.00323828
-0.00799806
0.00315246
-0.00924554
0.00300329
-0.0103763
0.00280331
-0.0113612
0.00254385
-0.0121898
0.00225281
-0.0128421
0.00191465
-0.0133296
0.00157532
-0.0136519
0.00121572
-0.0138193
0.000859287
-0.0138426
0.000503312
-0.0137389
0.000160237
-0.0134912
-0.000205115
-0.0130976
-0.000542105
-0.0125996
-0.000844077
-0.0120197
-0.00112067
-0.0113685
-0.00137968
-0.0106547
-0.00162016
-0.00988732
-0.00183992
-0.00907478
-0.00203786
-0.00822668
-0.00221194
-0.00735255
-0.0023608
-0.00646085
-0.00248518
-0.00555939
-0.0025846
-0.00465461
-0.00265998
-0.00375652
-0.00270733
-0.00287151
-0.00272972
-0.00200616
-0.00272664
-0.00116485
-0.00270023
-0.000357301
-0.00264583
0.000414762
-0.00257016
0.00114133
-0.00246564
0.00182048
-0.00234216
0.0024437
-0.00219064
0.00300607
-0.00201919
0.00350378
-0.00182628
0.00393391
-0.00161495
0.00429189
-0.00138447
0.00457506
-0.00114056
0.00477704
-0.000879843
0.0048992
-0.000609422
0.00493636
-0.000328949
0.00489179
-4.25579e-05
0.00477089
0.000246539
0.00456744
0.00053275
0.00428306
0.000813784
0.00392145
0.00108598
0.00348695
0.00134508
0.00298551
0.00158654
0.00242341
0.0018078
0.00180835
0.00200263
0.00114883
0.00216816
0.000454317
0.00230119
-0.000264928
0.00239742
-0.000996657
0.00245234
-0.00172945
0.00246594
-0.00245023
0.00243426
-0.00314608
0.0023558
-0.00380332
0.00222987
-0.00440956
0.00205782
-0.00495076
0.00183812
-0.00541523
0.00157504
-0.00579119
0.00127072
-0.00607048
0.000931916
-0.00624282
0.000562318
-0.00630117
0.00016638
-0.00623839
-0.000277561
-0.00605537
-0.000707983
-0.00575329
-0.00113459
-0.00533211
-0.00155261
-0.00479912
-0.00195059
-0.00416246
-0.00231879
-0.00343305
-0.0026485
-0.00262576
-0.00292653
-0.00175837
-0.00314411
-0.000850239
-0.00329276
7.61306e-05
-0.00336286
0.000998342
-0.00335241
0.00189111
-0.00325351
0.00272878
-0.00306511
0.00348869
-0.00279113
0.00414712
-0.00243367
0.00468212
-0.00199766
0.00507297
-0.00149407
0.00530736
-0.000937408
0.00537381
-0.000341807
0.00526546
0.00030311
0.0049856
0.000928895
0.00453748
0.00153484
0.00393305
0.0021001
0.00318995
0.00260448
0.00233085
0.00302836
0.0013871
0.00334794
0.000390398
0.00355032
-0.000618851
0.00362042
-0.00160534
0.00355251
-0.00252788
0.00334033
-0.00334762
0.0029884
-0.00402985
0.00250736
-0.00454197
0.00191097
-0.00485908
0.00122174
-0.00496225
0.000467664
-0.00484459
-0.00034701
-0.00451195
-0.00113502
-0.00397173
-0.00188359
-0.00324832
-0.00255335
-0.00237724
-0.00310851
-0.00139504
-0.00352062
-0.000352929
-0.00375856
0.000691861
-0.00380136
0.00168507
-0.00364341
0.00257488
-0.00328811
0.00330588
-0.00274527
0.00383788
-0.00204474
0.0041416
-0.00122394
0.00418777
-0.000320698
0.00398278
0.000623119
0.00353361
0.00151216
0.00286909
0.00230905
0.00203142
0.0029586
0.00107628
0.00341366
6.68176e-05
0.00364074
-0.000917393
0.00360242
-0.00181282
0.00331567
-0.00255303
0.00278815
-0.00308262
0.00205656
-0.00336226
0.00117307
-0.00337009
0.000207394
-0.00311193
-0.000783028
-0.00260883
-0.00168057
-0.00190599
-0.00242834
-0.00106611
-0.0029577
-0.000167405
-0.00321702
0.000709394
-0.00317958
0.00147996
-0.00284139
0.00207395
-0.0022411
0.00243484
-0.0014287
0.00253176
-0.000489684
0.00235941
0.000501487
0.00194005
0.00141037
0.00132205
0.00215859
0.000577095
0.00266205
-0.000211712
0.00286841
-0.00095077
0.00274326
-0.00155991
0.00231611
-0.00196954
0.0016352
-0.00213968
0.000790335
-0.00205772
-0.000124701
-0.00174867
-0.000974593
-0.00125999
-0.0016592
-0.00066546
-0.00209416
-4.91167e-05
-0.00222729
0.000489208
-0.002033
0.000888433
-0.0015789
0.00109637
-0.000931165
0.00109453
-0.000201494
0.000903838
0.000492227
0.000569685
0.00102853
0.000163137
0.00132896
-0.000234352
0.00134955
-0.000546788
0.00109496
-0.000717987
0.000634316
-0.000723046
6.73776e-05
-0.000569251
-0.000499181
-0.000295122
-0.000935724
3.81969e-05
-0.00116709
0.00035691
-0.00114078
0.000596079
-0.000875894
0.00070868
-0.000434116
0.00067553
9.18908e-05
0.000509311
0.000582773
0.000249582
0.000941311
-4.55924e-05
0.00108847
-0.000311006
0.000995007
-0.000488937
0.000685871
-0.000542288
0.000229979
-0.000460783
-0.00027157
-0.000264417
-0.000702378
-0.000958816
0.00160898
-0.002967
0.00321728
-0.00296446
0.00480499
-0.00287513
0.00635296
-0.00272067
0.0078353
-0.00248859
0.00924218
-0.00219956
0.0105062
-0.00178015
0.0116488
-0.00134063
0.012475
-0.000653608
0.0129863
1.78657e-05
0.0130763
0.000812931
0.0127857
0.00156061
0.0121313
0.00228424
0.0111414
0.00295936
0.00984823
0.0035768
0.00829079
0.00412103
0.00651377
0.00458071
0.00456518
0.00494615
0.00249384
0.00521313
0.000355308
0.00537064
-0.00179622
0.00541807
-0.00390394
0.005346
-0.0059225
0.00517101
-0.00778906
0.00486986
-0.00947569
0.00448994
-0.0109074
0.00397552
-0.0121
0.00344542
-0.0129493
0.00276397
-0.0135878
0.00221386
-0.0139461
0.001574
-0.0140913
0.00100444
-0.0140118
0.000423885
-0.0137609
-9.0725e-05
-0.0134109
-0.000555059
-0.0129537
-0.000999369
-0.0123836
-0.00141415
-0.0117093
-0.001795
-0.0109482
-0.00214075
-0.0101189
-0.00244944
-0.00923607
-0.00272275
-0.00831366
-0.00296026
-0.00736201
-0.00316359
-0.00639008
-0.00333273
-0.00540737
-0.00346789
-0.00442182
-0.00357015
-0.00344186
-0.00363995
-0.00247222
-0.00367696
-0.00152026
-0.00368168
-0.000593071
-0.00365383
0.000302954
-0.00359626
0.00116314
-0.00350601
0.00197708
-0.0033841
0.00274301
-0.00323157
0.00345254
-0.00305168
0.00410334
-0.00284144
0.00468578
-0.00260163
0.00519598
-0.00233648
0.00563124
-0.00205021
0.00598371
-0.00173694
0.00624747
-0.00140432
0.00642649
-0.00105886
0.00651314
-0.00069608
0.00650585
-0.000321661
0.00640187
6.14308e-05
0.00620592
0.000442481
0.00591775
0.000820923
0.00553888
0.00119265
0.00507263
0.00155223
0.00452425
0.00189347
0.00389982
0.00221097
0.00320612
0.00250149
0.00245213
0.00275663
0.0016487
0.00297159
0.000805922
0.00314397
-6.26377e-05
0.00326598
-0.00094395
0.00333366
-0.0018245
0.0033465
-0.00268823
0.00329798
-0.00351985
0.00318742
-0.0043038
0.00301382
-0.00502725
0.00278127
-0.0056742
0.00248507
-0.00622817
0.00212902
-0.006676
0.00171856
-0.00700839
0.0012643
-0.00721426
0.000768195
-0.00727915
0.000231264
-0.00720892
-0.000347785
-0.00699677
-0.000920136
-0.00664166
-0.0014897
-0.00614648
-0.00204779
-0.00551894
-0.00257813
-0.0047689
-0.00306884
-0.00391007
-0.00350732
-0.0029608
-0.0038758
-0.00194175
-0.00416316
-0.000874774
-0.00435974
0.000212344
-0.00444998
0.00129262
-0.00443268
0.00233639
-0.00429729
0.00331491
-0.00404363
0.00420193
-0.00367815
0.00496342
-0.00319516
0.00558244
-0.00261668
0.00603314
-0.00194477
0.00629522
-0.00119949
0.00635617
-0.000402755
0.00621863
0.000440646
0.00587697
0.00127056
0.00533853
0.00207327
0.00461566
0.00282296
0.00373186
0.00348828
0.00271398
0.00404625
0.00159981
0.00446212
0.000424052
0.00472607
-0.000765457
0.00480993
-0.00192241
0.00470946
-0.00300116
0.00441908
-0.00395693
0.00394418
-0.00474792
0.00329835
-0.00533616
0.0024992
-0.00569333
0.00157892
-0.00579747
0.000571798
-0.00564874
-0.000495735
-0.0052426
-0.00154117
-0.00459892
-0.00252726
-0.00373909
-0.00341317
-0.00270462
-0.00414298
-0.00155001
-0.00467523
-0.000331626
-0.00497694
0.000891072
-0.00502406
0.00205052
-0.00480286
0.00307881
-0.0043164
0.00392291
-0.00358937
0.00452941
-0.00265124
0.0048574
-0.00155193
0.00489388
-0.000357181
0.0046328
0.000884195
0.00408746
0.00205751
0.00329315
0.00310335
0.00230035
0.00395141
0.00117465
0.00453936
-3.1242e-06
0.00481851
-0.00115473
0.00475403
-0.00219192
0.00435286
-0.00304243
0.00363866
-0.00364055
0.00265468
-0.00394322
0.00147574
-0.00392836
0.000192528
-0.00360136
-0.00111003
-0.00299022
-0.00229171
-0.00214865
-0.0032699
-0.00115381
-0.00395255
-8.96902e-05
-0.00428114
0.000928068
-0.00419734
0.00181869
-0.00373201
0.00249696
-0.00291937
0.00290062
-0.00183236
0.00299255
-0.00058161
0.00276823
0.000725798
0.00225804
0.00192056
0.00152175
0.00289488
0.000641428
0.00354237
-0.000279367
0.0037892
-0.00113586
0.00359975
-0.00182943
0.00300968
-0.00228763
0.00209339
-0.00245872
0.000961426
-0.00233834
-0.000245084
-0.00195257
-0.00136036
-0.00136354
-0.00224822
-0.000661018
-0.00279669
5.34119e-05
-0.00294172
0.000679633
-0.00265923
0.00112851
-0.00202778
0.00134634
-0.00114899
0.00131657
-0.000171727
0.00106447
0.000744327
0.000648376
0.00144463
0.00015394
0.0018234
-0.00032049
0.00182398
-0.000686892
0.00146137
-0.000882211
0.000829635
-0.000876117
6.1284e-05
-0.000684916
-0.000690382
-0.000354157
-0.00126648
4.21379e-05
-0.00156338
0.000416539
-0.00151518
0.00069341
-0.00115276
0.000819277
-0.000559983
0.000774733
0.000136435
0.000575746
0.000781759
0.000270979
0.00124608
-7.18232e-05
0.00143127
-0.000376772
0.00129996
-0.000578863
0.000887963
-0.000635846
0.000286962
-0.000537516
-0.000369901
-0.000307594
-0.0009323
-0.00126641
0.00355183
-0.00651884
0.00711146
-0.00652409
0.0106469
-0.00641062
0.0141322
-0.00620597
0.0175369
-0.00589326
0.020806
-0.00546866
0.0236779
-0.00465202
0.0258523
-0.00351502
0.0265109
-0.00131222
0.0261226
0.00040616
0.0248769
0.0020586
0.0229835
0.00345407
0.020554
0.0047137
0.0176895
0.00582383
0.0144801
0.00678626
0.0110119
0.00758918
0.00736351
0.00822913
0.0036046
0.00870505
-0.000195962
0.0090137
-0.00397487
0.00914955
-0.00767252
0.00911572
-0.0111918
0.0088653
-0.0144587
0.00843794
-0.0173585
0.00776964
-0.0198129
0.00694433
-0.0216832
0.00584578
-0.0229359
0.0046981
-0.0234139
0.00324206
-0.02349
0.00228991
-0.0232103
0.0012943
-0.0226603
0.000454477
-0.0218528
-0.000383615
-0.0208529
-0.0010906
-0.0197146
-0.00169336
-0.0184805
-0.00223347
-0.0171835
-0.00271119
-0.0158445
-0.00313399
-0.0144795
-0.00350572
-0.013101
-0.00382798
-0.0117183
-0.00410545
-0.010341
-0.00433761
-0.00897447
-0.0045301
-0.00762677
-0.00468042
-0.00630482
-0.00478984