# vtk DataFile Version 2.0
tracks
ASCII
DATASET POLYDATA
POINTS 18 float
-0.2 -0.2 0 -0.06 -0.2 4.33681e-19 0.08 -0.2 0 0.22 -0.2
0 0.36 -0.2 1.73472e-18 0.5 -0.2 1.73472e-18 0 0 0
0.1 0 0 0.2 0 0 0.3 0 0 0.4
0 0 0.5 0 0 0.2 0.2 0 0.26 0.2
0 0.32 0.2 0 0.38 0.2 0 0.44 0.2 0
0.5 0.2 0 
LINES 3 21
6 0 1 2 3 4 5 6 6 7 8
9 10 11 6 12 13 14 15 16 17

POINT_DATA 18
FIELD attributes 2
age 1 18 float
0 0.021875 0.04375 0.065625 0.0880609 0.115405 0 0.0125 0.0263889 0.0420139 0.059871
0.0807044 0 0.009375 0.0195101 0.0305395 0.0426363 0.0560292 
U 3 18 float
6.4 0 0 6.4 0 0 6.4 0 0 6.24 0
0 5.12 0 0 4 0 0 8 0 0
7.2 0 0 6.4 0 0 5.6 0 0 4.8
0 0 4 0 0 6.4 0 0 5.92 0
0 5.44 0 0 4.96 0 0 4.48 0 0
4 0 0 
