#           v             n
     0.523599             0
     0.648652             0
     0.790112             0
     0.953116             0
      1.13449             0
      1.34047             0
      1.56672             0
      1.82069             0
      2.09677   2.07784e-09
      2.40376   5.84514e-08
      2.73462   8.68251e-07
      3.09966    6.7835e-06
      3.49026   3.86496e-05
      3.91837   0.000149495
      4.37366   0.000464601
      4.86986    0.00109017
       5.3948    0.00215328
      5.96412    0.00338603
      6.56366    0.00458411
      7.21112    0.00508585
      7.89023    0.00492162
      8.62085    0.00398042
      9.38447    0.00283837
      10.2033    0.00171897
      11.0564     0.0009274
      11.9684   0.000430896
      12.9159   0.000180098
      13.9262   6.56139e-05
      14.9731   6.54454e-05
