/*--------------------------------*- C++ -*----------------------------------*\
  =========                 |
  \\      /  F ield         | OpenFOAM: The Open Source CFD Toolbox
   \\    /   O peration     | Website:  https://openfoam.org
    \\  /    A nd           | Version:  12
     \\/     M anipulation  |
\*---------------------------------------------------------------------------*/
FoamFile
{
    format      ascii;
    class       volScalarField;
    location    "2.5";
    object      p;
}
// * * * * * * * * * * * * * * * * * * * * * * * * * * * * * * * * * * * * * //

dimensions      [0 2 -2 0 0 0 0];

internalField   nonuniform List<scalar> 
400
(
5.72911e-08
-1.92015e-05
-5.14674e-05
-0.000105242
-0.000157563
-0.000193924
-2.77969e-05
0.000249861
-0.000513955
-0.00205149
-0.00338353
-0.00391762
-0.003747
-0.00305499
-0.00179659
2.49592e-05
0.0024854
0.00553917
0.0083739
0.00942644
1.99191e-05
-4.20149e-07
-4.15635e-05
-0.000110312
-0.000178701
-0.00023087
-0.000350635
-0.000690748
-0.0017263
-0.00321381
-0.00437069
-0.00483788
-0.00459186
-0.00382659
-0.00264776
-0.00109843
0.000930942
0.00356452
0.00647644
0.00797961
4.49778e-05
2.54911e-05
-1.432e-05
-9.60734e-05
-0.000235711
-0.000480952
-0.000978978
-0.00200477
-0.00343102
-0.00492012
-0.00602456
-0.00633843
-0.00580034
-0.00481034
-0.00359988
-0.00226718
-0.000817605
0.00110344
0.0035924
0.00531491
3.81432e-05
1.99939e-05
-2.04752e-05
-0.000110826
-0.000314351
-0.000850546
-0.00183624
-0.00339945
-0.00516756
-0.00662039
-0.00758767
-0.00778937
-0.00715732
-0.00598927
-0.00464735
-0.00336389
-0.00223371
-0.000899003
0.000784115
0.00246689
-3.81957e-05
-5.90325e-05
-0.000107384
-0.000217574
-0.000501044
-0.00127422
-0.00267449
-0.00463221
-0.00666813
-0.00816024
-0.00917084
-0.00945462
-0.00875194
-0.00739694
-0.00585043
-0.00444907
-0.0033847
-0.00237438
-0.00128295
0.000101897
-0.000194172
-0.000222176
-0.00028621
-0.000424231
-0.000762844
-0.00171951
-0.00334961
-0.00547794
-0.00769953
-0.00929756
-0.0103181
-0.01064
-0.00997949
-0.00852636
-0.00679658
-0.00525364
-0.00420823
-0.00337242
-0.00268838
-0.00157836
-0.000415985
-0.000453912
-0.000539033
-0.000712805
-0.00105742
-0.00202614
-0.00373865
-0.00583973
-0.00810006
-0.00977227
-0.0107782
-0.011064
-0.0103995
-0.00891425
-0.00716415
-0.00561446
-0.0046497
-0.00391478
-0.00351161
-0.00264605
-0.00066717
-0.000714593
-0.000818219
-0.00101463
-0.00138195
-0.00217616
-0.00376671
-0.00566851
-0.00776534
-0.00940565
-0.0103415
-0.0105484
-0.00988901
-0.00849953
-0.00689085
-0.0054901
-0.00470927
-0.00402378
-0.00392131
-0.00318155
-0.000916002
-0.000964715
-0.00107887
-0.00127576
-0.00162833
-0.00226798
-0.00347609
-0.00501764
-0.00669046
-0.00808075
-0.00888963
-0.00904055
-0.0085155
-0.00741955
-0.0061621
-0.00505996
-0.00445602
-0.00385686
-0.00401649
-0.00332312
-0.00113421
-0.00118155
-0.0012909
-0.00147063
-0.00176983
-0.00225713
-0.0030727
-0.00414497
-0.00532317
-0.00633638
-0.00696335
-0.00709294
-0.00679737
-0.00611132
-0.00525419
-0.00445435
-0.00403067
-0.00351245
-0.0038784
-0.00320859
-0.00131091
-0.0013528
-0.00144708
-0.00159923
-0.00183346
-0.00218352
-0.00270402
-0.00338471
-0.00415302
-0.00483429
-0.00530129
-0.00546203
-0.00531776
-0.00489841
-0.00437617
-0.0038614
-0.00363356
-0.00311918
-0.00365074
-0.00299334
-0.00145074
-0.00148199
-0.00155482
-0.00167309
-0.00184864
-0.00209507
-0.00243303
-0.0028563
-0.00334128
-0.00379593
-0.00411861
-0.00424889
-0.00419983
-0.00397577
-0.00369406
-0.00339021
-0.00333084
-0.00273131
-0.00349754
-0.00271965
-0.00156291
-0.00157981
-0.00162688
-0.00170972
-0.00183611
-0.00201173
-0.00224454
-0.00252419
-0.00284678
-0.0031502
-0.00336633
-0.00348749
-0.00347822
-0.00337229
-0.00322108
-0.00303631
-0.00311296
-0.00240368
-0.00342309
-0.00235221
-0.0016521
-0.00165291
-0.00167193
-0.00172203
-0.00180963
-0.00193694
-0.00210732
-0.0023082
-0.00253866
-0.00275616
-0.00291894
-0.00302671
-0.00305649
-0.00299082
-0.00290404
-0.00279068
-0.00297528
-0.00214003
-0.00342444
-0.00190222
-0.00172669
-0.0017088
-0.00169724
-0.00171714
-0.00177379
-0.00186795
-0.00199971
-0.00215605
-0.0023344
-0.00250513
-0.00264029
-0.00273831
-0.00277866
-0.00275428
-0.0027107
-0.00261345
-0.00287795
-0.00195576
-0.00344747
-0.00136087
-0.00179224
-0.00174694
-0.00170349
-0.00169746
-0.00173167
-0.00180418
-0.0019127
-0.00204473
-0.00219533
-0.00234219
-0.00246503
-0.00255899
-0.00260809
-0.00260895
-0.00259482
-0.00248536
-0.00277749
-0.00188502
-0.00342672
-0.000694191
-0.00186644
-0.00177889
-0.00169881
-0.00166633
-0.00168285
-0.0017428
-0.00183875
-0.00195934
-0.00209657
-0.00223298
-0.00235271
-0.00244976
-0.00251262
-0.00254167
-0.00255798
-0.00250091
-0.00274858
-0.00199345
-0.00323026
0.000223447
-0.00200328
-0.00179672
-0.00167635
-0.00162638
-0.00163436
-0.00169054
-0.00178257
-0.00190144
-0.0020341
-0.00216742
-0.00228769
-0.00238762
-0.00245381
-0.00248669
-0.00249519
-0.0024259
-0.00252414
-0.00194964
-0.0026425
0.00259158
-0.00234754
-0.00192656
-0.0017362
-0.00163138
-0.00162008
-0.00167535
-0.00176442
-0.00188695
-0.00201791
-0.00215487
-0.00227288
-0.00237762
-0.00244506
-0.0024979
-0.00253068
-0.00259362
-0.00281133
-0.0022003
0.00039292
0.0122631
-0.00333201
-0.00132006
-0.00115099
-0.00125134
-0.00133101
-0.00140832
-0.00152405
-0.00166441
-0.00182967
-0.00198744
-0.00214199
-0.00226977
-0.0023802
-0.00244782
-0.00246713
-0.00225585
-0.0014295
0.00197081
0.0129706
0.0346912
)
;

boundaryField
{
    movingWall
    {
        type            zeroGradient;
    }
    fixedWalls
    {
        type            zeroGradient;
    }
    frontAndBack
    {
        type            empty;
    }
}


// ************************************************************************* //
