/*--------------------------------*- C++ -*----------------------------------*\
  =========                 |
  \\      /  F ield         | OpenFOAM: The Open Source CFD Toolbox
   \\    /   O peration     | Website:  https://openfoam.org
    \\  /    A nd           | Version:  12
     \\/     M anipulation  |
\*---------------------------------------------------------------------------*/
FoamFile
{
    format      ascii;
    class       surfaceScalarField;
    location    "2.5";
    object      phi;
}
// * * * * * * * * * * * * * * * * * * * * * * * * * * * * * * * * * * * * * //

dimensions      [0 3 -1 0 0 0 0];

internalField   nonuniform List<scalar> 
760
(
1.67311e-09
-1.67872e-09
-6.13787e-09
7.81078e-09
-5.60802e-09
-5.30108e-10
-1.59399e-08
1.03316e-08
-1.15386e-07
9.94458e-08
-4.76777e-07
3.61391e-07
-1.40254e-06
9.25759e-07
-3.04802e-06
1.64548e-06
-4.783e-06
1.73499e-06
-5.9371e-06
1.15409e-06
-6.6979e-06
7.60799e-07
-7.12305e-06
4.25156e-07
-7.16167e-06
3.86183e-08
-7.00447e-06
-1.57206e-07
-6.63894e-06
-3.65522e-07
-6.05368e-06
-5.85265e-07
-5.18704e-06
-8.66639e-07
-3.77517e-06
-1.41186e-06
-1.70079e-06
-2.07439e-06
-1.70079e-06
-1.04554e-07
1.02876e-07
-2.47731e-07
1.50987e-07
-4.00275e-07
1.52014e-07
-6.31401e-07
2.41457e-07
-1.13708e-06
6.05121e-07
-2.17639e-06
1.4007e-06
-3.69706e-06
2.44643e-06
-5.03485e-06
2.98327e-06
-5.8398e-06
2.53994e-06
-6.48038e-06
1.79467e-06
-6.97316e-06
1.25359e-06
-7.10356e-06
5.55554e-07
-6.97705e-06
-8.78936e-08
-6.67896e-06
-4.55293e-07
-6.187e-06
-8.57483e-07
-5.63596e-06
-1.13631e-06
-4.90911e-06
-1.59349e-06
-3.82171e-06
-2.49927e-06
-2.11281e-06
-3.78328e-06
-3.8136e-06
-2.06243e-07
3.09119e-07
-4.80455e-07
4.25199e-07
-8.05923e-07
4.77482e-07
-1.28243e-06
7.17962e-07
-2.06725e-06
1.38994e-06
-3.22736e-06
2.56082e-06
-4.35466e-06
3.57373e-06
-5.13135e-06
3.75996e-06
-5.61511e-06
3.02369e-06
-5.91758e-06
2.09714e-06
-5.99752e-06
1.33353e-06
-5.81535e-06
3.73388e-07
-5.491e-06
-4.12252e-07
-4.98448e-06
-9.6181e-07
-4.43379e-06
-1.40817e-06
-3.8996e-06
-1.6705e-06
-3.39693e-06
-2.09615e-06
-2.84121e-06
-3.05499e-06
-1.78005e-06
-4.84444e-06
-5.59365e-06
-2.74905e-07
5.84024e-07
-6.36637e-07
7.8693e-07
-1.07062e-06
9.11463e-07
-1.65127e-06
1.29862e-06
-2.44402e-06
2.18269e-06
-3.40115e-06
3.51795e-06
-4.08448e-06
4.25706e-06
-4.52697e-06
4.20246e-06
-4.82484e-06
3.32156e-06
-5.02292e-06
2.29522e-06
-5.08891e-06
1.39951e-06
-4.98987e-06
2.74351e-07
-4.63912e-06
-7.63005e-07
-4.03886e-06
-1.56207e-06
-3.37057e-06
-2.07646e-06
-2.72999e-06
-2.31109e-06
-2.27386e-06
-2.55228e-06
-2.00697e-06
-3.32189e-06
-1.32332e-06
-5.52809e-06
-6.91697e-06
-2.94167e-07
8.78191e-07
-6.82098e-07
1.17486e-06
-1.13205e-06
1.36142e-06
-1.67112e-06
1.83769e-06
-2.30183e-06
2.81339e-06
-2.90235e-06
4.11847e-06
-3.26164e-06
4.61634e-06
-3.5376e-06
4.47842e-06
-3.75918e-06
3.54314e-06
-3.93932e-06
2.47537e-06
-4.00629e-06
1.46648e-06
-3.94495e-06
2.13011e-07
-3.68133e-06
-1.02662e-06
-3.17707e-06
-2.06633e-06
-2.55209e-06
-2.70143e-06
-1.93358e-06
-2.9296e-06
-1.45556e-06
-3.03031e-06
-1.21051e-06
-3.56694e-06
-1.00438e-06
-5.73422e-06
-7.92135e-06
-2.62614e-07
1.14081e-06
-6.15895e-07
1.52814e-06
-1.00361e-06
1.74913e-06
-1.40279e-06
2.23686e-06
-1.76887e-06
3.17948e-06
-2.00515e-06
4.35474e-06
-2.12405e-06
4.73524e-06
-2.26062e-06
4.615e-06
-2.4358e-06
3.71832e-06
-2.53392e-06
2.57348e-06
-2.53107e-06
1.46363e-06
-2.44633e-06
1.28262e-07
-2.25823e-06
-1.21472e-06
-1.94827e-06
-2.37629e-06
-1.57016e-06
-3.07953e-06
-1.15176e-06
-3.348e-06
-8.675e-07
-3.31456e-06
-7.62206e-07
-3.67223e-06
-6.76927e-07
-5.81949e-06
-8.59828e-06
-1.93548e-07
1.33435e-06
-4.66708e-07
1.8013e-06
-7.47348e-07
2.02977e-06
-9.69616e-07
2.45913e-06
-1.04529e-06
3.25516e-06
-9.76151e-07
4.2856e-06
-9.42833e-07
4.70192e-06
-8.88707e-07
4.56087e-06
-9.538e-07
3.78341e-06
-9.81914e-07
2.60159e-06
-9.09373e-07
1.39109e-06
-8.26185e-07
4.50736e-08
-6.77383e-07
-1.36352e-06
-5.44569e-07
-2.50911e-06
-4.39849e-07
-3.18425e-06
-3.75009e-07
-3.41284e-06
-3.55548e-07
-3.33402e-06
-4.1341e-07
-3.61437e-06
-5.00389e-07
-5.73252e-06
-9.09867e-06
-1.07818e-07
1.44217e-06
-2.80752e-07
1.97424e-06
-4.45498e-07
2.19452e-06
-5.19399e-07
2.53303e-06
-3.80022e-07
3.11579e-06
-3.56871e-08
3.94126e-06
2.49653e-07
4.41658e-06
5.17707e-07
4.29282e-06
6.48558e-07
3.65256e-06
7.06351e-07
2.5438e-06
7.8712e-07
1.31033e-06
7.96927e-07
3.52663e-08
7.72536e-07
-1.33913e-06
6.92112e-07
-2.42868e-06
5.11002e-07
-3.00314e-06
2.80021e-07
-3.18186e-06
7.32248e-08
-3.12723e-06
-1.73458e-07
-3.36769e-06
-3.2243e-07
-5.58354e-06
-9.4211e-06
-1.87819e-08
1.46095e-06
-9.99902e-08
2.05545e-06
-1.60832e-07
2.25536e-06
-1.2842e-07
2.50062e-06
1.10902e-07
2.87647e-06
6.19663e-07
3.4325e-06
1.17482e-06
3.86143e-06
1.64551e-06
3.82212e-06
1.97387e-06
3.32421e-06
2.13007e-06
2.3876e-06
2.19292e-06
1.24748e-06
2.16304e-06
6.51428e-08
1.93842e-06
-1.11451e-06
1.57524e-06
-2.06551e-06
1.14301e-06
-2.57091e-06
7.23035e-07
-2.76189e-06
3.23353e-07
-2.72755e-06
-2.63921e-08
-3.01794e-06
-2.52219e-07
-5.35772e-06
-9.67332e-06
4.12309e-08
1.41972e-06
4.33345e-08
2.05334e-06
6.17405e-08
2.23696e-06
1.57968e-07
2.40439e-06
4.04227e-07
2.63021e-06
9.00836e-07
2.93589e-06
1.55043e-06
3.21184e-06
2.15939e-06
3.21316e-06
2.62474e-06
2.85885e-06
2.87817e-06
2.13417e-06
2.95493e-06
1.17071e-06
2.87732e-06
1.4276e-07
2.54935e-06
-7.86533e-07
2.07625e-06
-1.59241e-06
1.53969e-06
-2.03435e-06
1.00288e-06
-2.22507e-06
4.73274e-07
-2.19794e-06
7.6148e-08
-2.62082e-06
-1.49038e-07
-5.13253e-06
-9.82236e-06
8.3995e-08
1.33573e-06
1.3957e-07
1.99777e-06
2.0791e-07
2.16862e-06
3.40627e-07
2.27167e-06
5.80641e-07
2.39019e-06
9.8748e-07
2.52905e-06
1.55145e-06
2.64787e-06
2.14953e-06
2.61508e-06
2.65062e-06
2.35777e-06
2.95061e-06
1.83418e-06
3.03577e-06
1.08555e-06
2.95011e-06
2.28421e-07
2.64386e-06
-4.80287e-07
2.1593e-06
-1.10785e-06
1.59723e-06
-1.47228e-06
1.05386e-06
-1.6817e-06
5.19352e-07
-1.66344e-06
1.19377e-07
-2.22084e-06
-1.48957e-07
-4.8642e-06
-9.97131e-06
1.03923e-07
1.23181e-06
1.91434e-07
1.91026e-06
2.89552e-07
2.0705e-06
4.37274e-07
2.12395e-06
6.60068e-07
2.1674e-06
9.84031e-07
2.20509e-06
1.41528e-06
2.21662e-06
1.8939e-06
2.13645e-06
2.33443e-06
1.91725e-06
2.64543e-06
1.52317e-06
2.74613e-06
9.84855e-07
2.65724e-06
3.17308e-07
2.37973e-06
-2.02779e-07
1.95489e-06
-6.83006e-07
1.45095e-06
-9.68336e-07
9.65098e-07
-1.19585e-06
4.96538e-07
-1.19488e-06
8.80569e-08
-1.81236e-06
-1.47936e-07
-4.6282e-06
-1.01192e-05
1.01906e-07
1.1299e-06
2.03229e-07
1.80893e-06
3.17707e-07
1.95602e-06
4.68731e-07
1.97293e-06
6.71405e-07
1.96473e-06
9.35051e-07
1.94145e-06
1.26013e-06
1.89154e-06
1.61447e-06
1.78211e-06
1.95038e-06
1.58134e-06
2.19388e-06
1.27968e-06
2.28049e-06
8.98245e-07
2.20235e-06
3.95447e-07
1.98726e-06
1.23121e-08
1.661e-06
-3.56748e-07
1.26431e-06
-5.71645e-07
8.6396e-07
-7.95501e-07
4.72539e-07
-8.03456e-07
4.57304e-08
-1.38555e-06
-1.99595e-07
-4.38288e-06
-1.03188e-05
8.02877e-08
1.04961e-06
1.75683e-07
1.71354e-06
2.92858e-07
1.83884e-06
4.43032e-07
1.82275e-06
6.31257e-07
1.7765e-06
8.56803e-07
1.7159e-06
1.11386e-06
1.63449e-06
1.38033e-06
1.51565e-06
1.62583e-06
1.33584e-06
1.80687e-06
1.09863e-06
1.88167e-06
8.23452e-07
1.81815e-06
4.58968e-07
1.64857e-06
1.81886e-07
1.39709e-06
-1.05267e-07
1.10185e-06
-2.76406e-07
7.74823e-07
-4.68472e-07
4.67999e-07
-4.96633e-07
7.65719e-08
-9.94126e-07
-1.20485e-07
-4.18582e-06
-1.04393e-05
3.78499e-08
1.01176e-06
1.21494e-07
1.62989e-06
2.43345e-07
1.71699e-06
3.91572e-07
1.67453e-06
5.65789e-07
1.60228e-06
7.6279e-07
1.5189e-06
9.74527e-07
1.42275e-06
1.18411e-06
1.30606e-06
1.36924e-06
1.15071e-06
1.50288e-06
9.64993e-07
1.56553e-06
7.60802e-07
1.52221e-06
5.02293e-07
1.39806e-06
3.06039e-07
1.19712e-06
9.56644e-08
9.65837e-07
-4.51194e-08
6.57495e-07
-1.60129e-07
4.19394e-07
-2.58532e-07
5.76474e-08
-6.32379e-07
-5.90747e-08
-4.0691e-06
-1.04984e-05
-3.25381e-08
1.0443e-06
3.03281e-08
1.56703e-06
1.38524e-07
1.6088e-06
2.89797e-07
1.52325e-06
4.66877e-07
1.4252e-06
6.54952e-07
1.33082e-06
8.45337e-07
1.23236e-06
1.02577e-06
1.12563e-06
1.17954e-06
9.96927e-07
1.28784e-06
8.56694e-07
1.34261e-06
7.0604e-07
1.31569e-06
5.29213e-07
1.21711e-06
4.04619e-07
1.05567e-06
2.57098e-07
8.52035e-07
1.58518e-07
5.79605e-07
1.12301e-07
4.1535e-07
-9.42773e-08
1.31255e-07
-3.48284e-07
1.18237e-07
-4.05608e-06
-1.03802e-05
-1.26408e-07
1.17071e-06
-8.41591e-08
1.52478e-06
5.43009e-08
1.47034e-06
2.1403e-07
1.36352e-06
3.85112e-07
1.25412e-06
5.59913e-07
1.15602e-06
7.32513e-07
1.05976e-06
8.89389e-07
9.68754e-07
1.02043e-06
8.65883e-07
1.11053e-06
7.66599e-07
1.15787e-06
6.58698e-07
1.14225e-06
5.44833e-07
1.08436e-06
4.62511e-07
9.83758e-07
3.577e-07
8.52305e-07
2.8997e-07
6.74852e-07
2.89754e-07
4.65601e-07
1.14975e-07
3.39678e-07
-2.22361e-07
4.22782e-07
-4.13919e-06
-9.95738e-06
-4.07145e-07
1.57785e-06
-3.60035e-07
1.47767e-06
-1.77367e-07
1.28767e-06
2.43703e-08
1.16179e-06
2.31952e-07
1.04654e-06
4.30504e-07
9.5747e-07
6.23393e-07
8.66873e-07
7.93573e-07
7.98574e-07
9.38549e-07
7.20907e-07
1.0427e-06
6.62446e-07
1.1094e-06
5.91997e-07
1.12549e-06
5.28748e-07
1.10241e-06
4.85586e-07
1.01722e-06
4.42892e-07
8.802e-07
4.26991e-07
7.12942e-07
4.57013e-07
5.79893e-07
2.48023e-07
8.04613e-07
-4.47081e-07
9.5247e-07
-4.28704e-06
-9.00491e-06
-6.46754e-07
2.22461e-06
-4.25442e-07
1.25636e-06
-9.81488e-08
9.60377e-07
1.94089e-07
8.69549e-07
4.71956e-07
7.68674e-07
7.15537e-07
7.13889e-07
9.616e-07
6.2081e-07
1.16479e-06
5.95386e-07
1.36654e-06
5.19159e-07
1.51352e-06
5.15462e-07
1.65848e-06
4.47041e-07
1.73243e-06
4.54796e-07
1.81748e-06
4.00536e-07
1.82751e-06
4.32857e-07
1.88683e-06
3.6767e-07
1.99758e-06
3.46269e-07
2.19332e-06
5.22815e-08
2.62654e-06
-8.80304e-07
2.13055e-06
-3.79105e-06
-6.87436e-06
2.22461e-06
3.48096e-06
4.44134e-06
5.31089e-06
6.07956e-06
6.79345e-06
7.41426e-06
8.00965e-06
8.52881e-06
9.04427e-06
9.49131e-06
9.94611e-06
1.03466e-05
1.07795e-05
1.11472e-05
1.14934e-05
1.15457e-05
1.06654e-05
6.87436e-06
)
;

boundaryField
{
    movingWall
    {
        type            calculated;
        value           uniform 0;
    }
    fixedWalls
    {
        type            calculated;
        value           uniform 0;
    }
    frontAndBack
    {
        type            empty;
    }
}


// ************************************************************************* //
