/*--------------------------------*- C++ -*----------------------------------*\
  =========                 |
  \\      /  F ield         | OpenFOAM: The Open Source CFD Toolbox
   \\    /   O peration     | Website:  https://openfoam.org
    \\  /    A nd           | Version:  12
     \\/     M anipulation  |
\*---------------------------------------------------------------------------*/
FoamFile
{
    format      ascii;
    class       volVectorField;
    location    "2.5";
    object      U;
}
// * * * * * * * * * * * * * * * * * * * * * * * * * * * * * * * * * * * * * //

dimensions      [0 1 -1 0 0 0 0];

internalField   nonuniform List<vector> 
400
(
(8.88204e-05 -0.000488948 0)
(-2.92999e-05 -0.000469173 0)
(-0.000177375 -0.000581358 0)
(-0.000102464 -0.000618902 0)
(-0.000615257 -0.000395114 0)
(-0.00459869 0.000282098 0)
(-0.0148605 0.0027491 0)
(-0.0361087 0.0135301 0)
(-0.0839785 0.0223412 0)
(-0.114733 0.0131042 0)
(-0.130191 0.00937575 0)
(-0.139993 0.00731896 0)
(-0.143128 0.00269659 0)
(-0.142635 -0.000102941 0)
(-0.137437 -0.00224116 0)
(-0.127686 -0.00569015 0)
(-0.111873 -0.00879985 0)
(-0.0876926 -0.0154113 0)
(-0.0532315 -0.0216329 0)
(-0.0193198 -0.0111178 0)
(-0.000893355 0.000436926 0)
(-0.00334491 0.000836301 0)
(-0.0063517 0.000555617 0)
(-0.0097281 0.00097109 0)
(-0.0157281 0.00439642 0)
(-0.0292996 0.0150442 0)
(-0.0564371 0.0348974 0)
(-0.0866558 0.0487583 0)
(-0.11286 0.0424237 0)
(-0.127267 0.0295085 0)
(-0.138087 0.0190534 0)
(-0.143847 0.00822914 0)
(-0.139574 -0.0017698 0)
(-0.136686 -0.00747781 0)
(-0.128114 -0.0146306 0)
(-0.119416 -0.02119 0)
(-0.106761 -0.0305809 0)
(-0.0847679 -0.0472001 0)
(-0.0574095 -0.0670465 0)
(-0.0252805 -0.0594548 0)
(-0.00180266 0.00391406 0)
(-0.00649958 0.00551271 0)
(-0.0123583 0.00588912 0)
(-0.0195187 0.00913857 0)
(-0.0310396 0.0201638 0)
(-0.0499726 0.0407755 0)
(-0.0760746 0.0620418 0)
(-0.0965055 0.0679938 0)
(-0.111228 0.0549497 0)
(-0.118888 0.0382605 0)
(-0.123165 0.027157 0)
(-0.120062 0.0113265 0)
(-0.110488 -0.00232623 0)
(-0.103932 -0.0114202 0)
(-0.0919523 -0.0203947 0)
(-0.0841292 -0.0258348 0)
(-0.0754555 -0.036946 0)
(-0.061885 -0.059163 0)
(-0.0440519 -0.0920904 0)
(-0.02219 -0.100694 0)
(-0.00240151 0.00883799 0)
(-0.00860309 0.0119788 0)
(-0.016429 0.0137618 0)
(-0.0256989 0.020306 0)
(-0.0382586 0.0364901 0)
(-0.0575094 0.0620224 0)
(-0.075882 0.0792945 0)
(-0.0890081 0.0790861 0)
(-0.0975083 0.0620627 0)
(-0.100359 0.042692 0)
(-0.10437 0.0255378 0)
(-0.102797 0.00489499 0)
(-0.0953764 -0.0134472 0)
(-0.085019 -0.0269125 0)
(-0.0721859 -0.0362225 0)
(-0.0599862 -0.0410823 0)
(-0.0524189 -0.0471184 0)
(-0.0406494 -0.065272 0)
(-0.0366216 -0.107834 0)
(-0.0101876 -0.129295 0)
(-0.00251598 0.0145606 0)
(-0.00921952 0.0195188 0)
(-0.0175871 0.0227201 0)
(-0.0267433 0.0316787 0)
(-0.0372694 0.0506971 0)
(-0.0528387 0.0776543 0)
(-0.0621493 0.0890336 0)
(-0.0711971 0.0862091 0)
(-0.0763439 0.0675522 0)
(-0.0773493 0.0462792 0)
(-0.0824481 0.0271539 0)
(-0.0819502 0.00397857 0)
(-0.0753588 -0.0198957 0)
(-0.0667585 -0.0393707 0)
(-0.0558309 -0.0508967 0)
(-0.0430081 -0.0550084 0)
(-0.0367016 -0.0575378 0)
(-0.0229998 -0.0691409 0)
(-0.0275526 -0.113303 0)
(-0.00718846 -0.151039 0)
(-0.00214019 0.0201939 0)
(-0.00830566 0.0269956 0)
(-0.0158328 0.0311683 0)
(-0.0233419 0.041084 0)
(-0.029843 0.0608982 0)
(-0.0390729 0.0858123 0)
(-0.0420214 0.0938546 0)
(-0.0453217 0.0911189 0)
(-0.0502058 0.0721074 0)
(-0.0500006 0.0498016 0)
(-0.0524658 0.0288121 0)
(-0.0518607 0.00327274 0)
(-0.0465259 -0.0237723 0)
(-0.0396078 -0.0471983 0)
(-0.0344257 -0.0607541 0)
(-0.0253988 -0.0646449 0)
(-0.0228068 -0.0651065 0)
(-0.0117943 -0.0734556 0)
(-0.0215278 -0.115305 0)
(-0.00120133 -0.165404 0)
(-0.00141146 0.0248314 0)
(-0.00624023 0.0333866 0)
(-0.0119623 0.0379103 0)
(-0.0171201 0.0472217 0)
(-0.0193279 0.0648834 0)
(-0.0203841 0.0877348 0)
(-0.0205053 0.0951773 0)
(-0.018832 0.0930612 0)
(-0.0200358 0.0757954 0)
(-0.0199381 0.0511501 0)
(-0.0198652 0.027452 0)
(-0.0180339 0.000978431 0)
(-0.015293 -0.0262302 0)
(-0.00931906 -0.0491335 0)
(-0.0103775 -0.0635164 0)
(-0.00548864 -0.0689233 0)
(-0.0109817 -0.0668432 0)
(-0.00243347 -0.0721516 0)
(-0.0165721 -0.114678 0)
(5.18181e-05 -0.176317 0)
(-0.000606354 0.0279921 0)
(-0.00362106 0.0379403 0)
(-0.00726063 0.0424408 0)
(-0.00988064 0.0501605 0)
(-0.00965879 0.0639958 0)
(-0.00376294 0.0830792 0)
(0.00173608 0.0933828 0)
(0.00744841 0.090792 0)
(0.010832 0.0774269 0)
(0.0129673 0.0540098 0)
(0.0142171 0.0284788 0)
(0.0161468 0.000975975 0)
(0.015594 -0.0269749 0)
(0.0180341 -0.0486851 0)
(0.0121498 -0.0605765 0)
(0.0104023 -0.0645568 0)
(-0.000903567 -0.0639617 0)
(0.00469909 -0.0690716 0)
(-0.0136457 -0.111603 0)
(0.00363327 -0.183834 0)
(0.000396516 0.0292907 0)
(-0.00107712 0.0405429 0)
(-0.00277075 0.0447672 0)
(-0.00323825 0.0505936 0)
(-0.00139643 0.0601639 0)
(0.00654959 0.0741287 0)
(0.0176078 0.084785 0)
(0.0275738 0.0843309 0)
(0.0352243 0.0735135 0)
(0.0403748 0.0529992 0)
(0.0424257 0.0279406 0)
(0.0442198 0.00129213 0)
(0.0420636 -0.0231964 0)
(0.0387805 -0.0440801 0)
(0.0272518 -0.0555185 0)
(0.0212448 -0.0596829 0)
(0.0052312 -0.0584032 0)
(0.00985627 -0.0631013 0)
(-0.0118205 -0.108938 0)
(0.0044563 -0.189491 0)
(0.000775335 0.0289945 0)
(0.000964163 0.041392 0)
(0.000844278 0.0452478 0)
(0.00184124 0.0493578 0)
(0.00486424 0.0552629 0)
(0.0121882 0.0637601 0)
(0.0241629 0.0713289 0)
(0.0367175 0.0719787 0)
(0.0471094 0.0640719 0)
(0.0550956 0.0475442 0)
(0.0573771 0.0261365 0)
(0.0601271 0.00252017 0)
(0.0546277 -0.0183363 0)
(0.0494635 -0.035475 0)
(0.0362499 -0.0445196 0)
(0.0283489 -0.0480512 0)
(0.00905491 -0.048104 0)
(0.012798 -0.0556521 0)
(-0.0114505 -0.102768 0)
(0.00770565 -0.193708 0)
(0.00110912 0.0278194 0)
(0.00235289 0.040788 0)
(0.00332117 0.0443285 0)
(0.00522465 0.0470292 0)
(0.0087557 0.050363 0)
(0.0150063 0.0545335 0)
(0.0248457 0.0581664 0)
(0.0368374 0.0578789 0)
(0.0473343 0.0519419 0)
(0.0568985 0.0396837 0)
(0.0591513 0.0223907 0)
(0.0612203 0.00386285 0)
(0.05672 -0.01211 0)
(0.0506531 -0.026213 0)
(0.0373299 -0.0347301 0)
(0.0293669 -0.0391801 0)
(0.00963184 -0.0385503 0)
(0.0147227 -0.0482145 0)
(-0.0122423 -0.0997894 0)
(0.00858771 -0.197506 0)
(0.00122073 0.025767 0)
(0.00305106 0.0393191 0)
(0.00469343 0.0426546 0)
(0.00705451 0.0441652 0)
(0.0106615 0.0456772 0)
(0.0160206 0.0471775 0)
(0.0234285 0.048031 0)
(0.0331476 0.0464225 0)
(0.0413754 0.0413815 0)
(0.0509523 0.0322784 0)
(0.0534443 0.0199628 0)
(0.0554943 0.00500581 0)
(0.0510134 -0.00682958 0)
(0.0452524 -0.0181432 0)
(0.0333793 -0.0245321 0)
(0.0272113 -0.0286534 0)
(0.00777285 -0.0284454 0)
(0.0163063 -0.0396739 0)
(-0.0150417 -0.0940487 0)
(0.0116993 -0.201347 0)
(0.00109581 0.0236393 0)
(0.00311143 0.0372422 0)
(0.00513121 0.0403371 0)
(0.0077131 0.0410714 0)
(0.0111706 0.0413766 0)
(0.0158136 0.041343 0)
(0.0214832 0.0406365 0)
(0.0289743 0.0383226 0)
(0.0346557 0.033823 0)
(0.0427633 0.026875 0)
(0.0441833 0.0179351 0)
(0.0460178 0.00663358 0)
(0.0422266 -0.00181623 0)
(0.0380612 -0.0102732 0)
(0.0282963 -0.0151966 0)
(0.0247648 -0.0197617 0)
(0.00580451 -0.0197868 0)
(0.0178309 -0.0322913 0)
(-0.0178717 -0.0915094 0)
(0.0133631 -0.204871 0)
(0.00075133 0.0217589 0)
(0.00259795 0.0353306 0)
(0.00460088 0.0381094 0)
(0.00722408 0.0380305 0)
(0.0105714 0.0373865 0)
(0.0147324 0.0364447 0)
(0.0193566 0.0349558 0)
(0.0251974 0.0324587 0)
(0.0292844 0.0284693 0)
(0.035336 0.0230413 0)
(0.0364157 0.0166692 0)
(0.0380519 0.00824764 0)
(0.03469 0.00202592 0)
(0.0319449 -0.00457184 0)
(0.023709 -0.00816108 0)
(0.0228078 -0.0126936 0)
(0.00392986 -0.0129309 0)
(0.0200625 -0.0234851 0)
(-0.0196928 -0.0847561 0)
(0.0180214 -0.207857 0)
(0.000118086 0.0204293 0)
(0.00151357 0.0332749 0)
(0.00355837 0.0354935 0)
(0.00625964 0.0350201 0)
(0.00943529 0.0338535 0)
(0.0131775 0.0323284 0)
(0.0171246 0.0304284 0)
(0.0217779 0.0279222 0)
(0.0250306 0.0244478 0)
(0.0294044 0.0201484 0)
(0.0303203 0.015418 0)
(0.0317175 0.00938013 0)
(0.0291293 0.00477395 0)
(0.0272065 7.78187e-05 0)
(0.0199922 -0.0033242 0)
(0.0211552 -0.00638864 0)
(0.000902629 -0.00743358 0)
(0.0212163 -0.0158156 0)
(-0.0217896 -0.0831153 0)
(0.02215 -0.210917 0)
(-0.00100446 0.0204155 0)
(-0.000125703 0.032249 0)
(0.00146502 0.0334252 0)
(0.00409463 0.0320561 0)
(0.00746527 0.0302438 0)
(0.0111397 0.0284285 0)
(0.0148495 0.0264076 0)
(0.01883 0.0241274 0)
(0.0217637 0.0212124 0)
(0.0251265 0.0179305 0)
(0.0260457 0.0144109 0)
(0.0272116 0.0101692 0)
(0.0253654 0.00707598 0)
(0.023722 0.00360291 0)
(0.0174351 0.0015121 0)
(0.0192329 0.000446102 0)
(-9.02907e-05 -0.00241593 0)
(0.0220339 -0.00873199 0)
(-0.0209043 -0.081041 0)
(0.0296444 -0.212797 0)
(-0.00190873 0.0221005 0)
(-0.00269996 0.030336 0)
(-0.00041951 0.0308305 0)
(0.00260376 0.0290872 0)
(0.00586986 0.027094 0)
(0.00938574 0.0251111 0)
(0.0128245 0.0231373 0)
(0.016286 0.0210733 0)
(0.0189393 0.0187103 0)
(0.0216036 0.0162186 0)
(0.0225319 0.0135559 0)
(0.0234606 0.010617 0)
(0.0222782 0.00862553 0)
(0.0213954 0.00614225 0)
(0.017065 0.00429412 0)
(0.0192415 0.00335263 0)
(0.00383935 -0.00200836 0)
(0.0198873 -0.00659924 0)
(-0.0129401 -0.083969 0)
(0.0380529 -0.216117 0)
(-0.0059773 0.0261373 0)
(-0.00896479 0.0320224 0)
(-0.00565 0.0293084 0)
(-0.00160515 0.0263737 0)
(0.00254126 0.0237143 0)
(0.00660504 0.0217073 0)
(0.0105043 0.0197324 0)
(0.0142168 0.0180988 0)
(0.017302 0.016244 0)
(0.0200102 0.0147399 0)
(0.0214873 0.0129719 0)
(0.0226223 0.0113837 0)
(0.0224055 0.010143 0)
(0.0216868 0.00868588 0)
(0.0182681 0.00803717 0)
(0.0186222 0.00949464 0)
(0.00678682 0.00784281 0)
(0.0208825 -0.000977879 0)
(0.000834479 -0.0935029 0)
(0.0516061 -0.214295 0)
(-0.010166 0.0397503 0)
(-0.0132641 0.0229622 0)
(-0.00462481 0.0184521 0)
(0.00077793 0.0173702 0)
(0.00675745 0.0159773 0)
(0.0117614 0.0145727 0)
(0.0169275 0.0131132 0)
(0.0211615 0.0121133 0)
(0.0254725 0.011058 0)
(0.0287739 0.0103095 0)
(0.0318816 0.00947892 0)
(0.0340123 0.00865077 0)
(0.0357143 0.00838583 0)
(0.0367252 0.00810039 0)
(0.0371492 0.00795221 0)
(0.039532 0.00649197 0)
(0.0356527 -0.00104788 0)
(0.0464136 -0.023132 0)
(0.0403269 -0.101132 0)
(0.0742852 -0.175524 0)
(0.046574 0.0426411 0)
(0.0532724 0.0320799 0)
(0.0780656 0.0243073 0)
(0.0962114 0.0207088 0)
(0.116724 0.0174253 0)
(0.127447 0.0164442 0)
(0.143983 0.0138988 0)
(0.152704 0.0137602 0)
(0.166882 0.0114711 0)
(0.17457 0.011968 0)
(0.186453 0.00975769 0)
(0.193645 0.0107828 0)
(0.203351 0.0085244 0)
(0.210104 0.0100915 0)
(0.217088 0.00770993 0)
(0.22343 0.00951569 0)
(0.227053 0.00484498 0)
(0.220729 -0.00129399 0)
(0.191881 -0.0125359 0)
(0.145399 -0.0314104 0)
)
;

boundaryField
{
    movingWall
    {
        type            fixedValue;
        value           uniform (1 0 0);
    }
    fixedWalls
    {
        type            noSlip;
    }
    frontAndBack
    {
        type            empty;
    }
}


// ************************************************************************* //
