/*--------------------------------*- C++ -*----------------------------------*\
  =========                 |
  \\      /  F ield         | OpenFOAM: The Open Source CFD Toolbox
   \\    /   O peration     | Website:  https://openfoam.org
    \\  /    A nd           | Version:  12
     \\/     M anipulation  |
\*---------------------------------------------------------------------------*/
FoamFile
{
    format      ascii;
    class       volScalarField;
    location    "6";
    object      p;
}
// * * * * * * * * * * * * * * * * * * * * * * * * * * * * * * * * * * * * * //

dimensions      [0 2 -2 0 0 0 0];

internalField   nonuniform List<scalar> 
400
(
3.44713e-08
-0.000109701
-0.000302567
-0.000167889
-0.000735081
-0.0022428
-0.00413155
-0.00589375
-0.00732851
-0.0082918
-0.00874787
-0.00866372
-0.00803859
-0.00676613
-0.00474149
-0.00188838
0.00176011
0.00580751
0.00890954
0.0102521
4.17429e-05
-6.04363e-05
-0.0002308
-0.000730492
-0.00179491
-0.00339712
-0.00509763
-0.00675717
-0.00809178
-0.00900369
-0.009431
-0.00937508
-0.00881254
-0.00771236
-0.00600965
-0.00361392
-0.000462256
0.0033094
0.00675648
0.00877488
0.000323733
-5.04883e-05
-0.000744203
-0.00189449
-0.00347833
-0.00517716
-0.00684757
-0.00838982
-0.00954331
-0.0102981
-0.0105942
-0.0104201
-0.00979826
-0.00876901
-0.00735074
-0.00552477
-0.00314293
-0.000110064
0.00313408
0.00541362
0.000230838
-0.000440021
-0.00172062
-0.0035014
-0.00541753
-0.00717236
-0.00864199
-0.00978327
-0.0106524
-0.011214
-0.0113982
-0.0111981
-0.0106125
-0.00968158
-0.00845872
-0.00701738
-0.00534569
-0.00312833
-0.000509994
0.00159064
-0.00054046
-0.00143864
-0.00316155
-0.00527335
-0.00720629
-0.00875154
-0.00992771
-0.0108502
-0.0115801
-0.0120752
-0.0122535
-0.0120721
-0.0115331
-0.010678
-0.00958794
-0.00835477
-0.00710204
-0.00554369
-0.00373205
-0.0018816
-0.00196479
-0.00294163
-0.00480126
-0.00690264
-0.00865597
-0.00991686
-0.0108593
-0.011667
-0.0123429
-0.0128346
-0.0130522
-0.0129238
-0.0124583
-0.011686
-0.0107116
-0.00960108
-0.00859046
-0.00744944
-0.00622162
-0.00472764
-0.00361757
-0.00456595
-0.0063179
-0.00824689
-0.00975445
-0.0107505
-0.0115397
-0.0122664
-0.0129156
-0.0134222
-0.0136918
-0.0136326
-0.0132514
-0.0125602
-0.0116815
-0.0106576
-0.00979266
-0.00887959
-0.00806401
-0.00687856
-0.00511094
-0.00596652
-0.00751478
-0.00924163
-0.0105187
-0.0113095
-0.0119872
-0.012645
-0.0132681
-0.0137836
-0.0140974
-0.0140986
-0.0137924
-0.0131755
-0.0123833
-0.0114076
-0.0106638
-0.00983184
-0.0093144
-0.00836634
-0.00619603
-0.00696385
-0.00832362
-0.00986714
-0.0109664
-0.0116233
-0.0122082
-0.0127964
-0.0133728
-0.013867
-0.0141914
-0.0142237
-0.0139701
-0.013409
-0.0127072
-0.0117617
-0.0111653
-0.0103171
-0.0101062
-0.00924653
-0.00681065
-0.00749513
-0.00871595
-0.0101318
-0.011122
-0.0117112
-0.0122246
-0.0127369
-0.0132433
-0.0136876
-0.0139936
-0.014034
-0.0138135
-0.0133035
-0.012653
-0.0117474
-0.0113098
-0.010376
-0.0104859
-0.00962665
-0.00693588
-0.00756527
-0.00871242
-0.0100679
-0.0110285
-0.0116133
-0.0120735
-0.0125037
-0.0129213
-0.0132879
-0.0135427
-0.0135696
-0.0133639
-0.0128997
-0.0122697
-0.011463
-0.0110874
-0.0101059
-0.0105231
-0.00957251
-0.00661644
-0.0072306
-0.00834786
-0.00971366
-0.0107262
-0.011355
-0.0117874
-0.0121445
-0.0124703
-0.0127421
-0.0129238
-0.0129148
-0.0127021
-0.0122681
-0.0116766
-0.0109569
-0.0105847
-0.0096018
-0.0102732
-0.00915974
-0.00597036
-0.00661766
-0.00773021
-0.00908263
-0.0102267
-0.0109457
-0.0113997
-0.0117177
-0.0119737
-0.0121605
-0.0122642
-0.0122082
-0.0119698
-0.0115441
-0.0109794
-0.0103104
-0.00991883
-0.00892712
-0.00982892
-0.00841044
-0.00524415
-0.00588477
-0.00694374
-0.00820191
-0.00946948
-0.0103451
-0.0109016
-0.0112483
-0.011482
-0.0116137
-0.0116489
-0.0115451
-0.0112764
-0.0108399
-0.0102785
-0.00962685
-0.00918717
-0.00818071
-0.00918923
-0.00732274
-0.00465126
-0.00517862
-0.00606577
-0.00714359
-0.00840637
-0.00948253
-0.0102525
-0.0107214
-0.0109999
-0.0111242
-0.0111198
-0.0109762
-0.0106759
-0.0102145
-0.00963112
-0.00895297
-0.00841395
-0.00737863
-0.0083315
-0.00588898
-0.00443746
-0.00463133
-0.0051105
-0.00590135
-0.00705524
-0.00830003
-0.00933244
-0.0100473
-0.0104652
-0.0106477
-0.0106501
-0.0104829
-0.0101506
-0.00965255
-0.00901685
-0.00826554
-0.00756845
-0.00652001
-0.00718127
-0.00409273
-0.00450683
-0.00426504
-0.00410251
-0.00449959
-0.00550559
-0.00682804
-0.00810073
-0.00909218
-0.009753
-0.0101004
-0.0101771
-0.0100211
-0.00966356
-0.00911553
-0.00839885
-0.00752394
-0.00660526
-0.00551979
-0.0056845
-0.00173597
-0.00429054
-0.0036941
-0.00297245
-0.00300782
-0.00388216
-0.00524399
-0.00669264
-0.00791068
-0.00880247
-0.00933966
-0.00954001
-0.00945058
-0.00911847
-0.00854975
-0.00775087
-0.00673628
-0.00556187
-0.0042665
-0.00328606
0.00279394
-0.00376524
-0.00290566
-0.00191281
-0.00182006
-0.00262131
-0.00399011
-0.00554781
-0.00695488
-0.00803915
-0.00874539
-0.00907237
-0.00905984
-0.00875414
-0.00816482
-0.00731298
-0.0061817
-0.00473668
-0.00244038
0.00242021
0.0152885
-0.00507371
-0.00204952
-0.00090988
-0.000998032
-0.0017716
-0.00314319
-0.00475129
-0.00632197
-0.00756432
-0.00840418
-0.00881944
-0.00886805
-0.00858898
-0.00802064
-0.00710194
-0.00574386
-0.00315612
0.00292956
0.0166951
0.0398033
)
;

boundaryField
{
    movingWall
    {
        type            zeroGradient;
    }
    fixedWalls
    {
        type            zeroGradient;
    }
    frontAndBack
    {
        type            empty;
    }
}


// ************************************************************************* //
