/*--------------------------------*- C++ -*----------------------------------*\
  =========                 |
  \\      /  F ield         | OpenFOAM: The Open Source CFD Toolbox
   \\    /   O peration     | Website:  https://openfoam.org
    \\  /    A nd           | Version:  12
     \\/     M anipulation  |
\*---------------------------------------------------------------------------*/
FoamFile
{
    format      ascii;
    class       surfaceScalarField;
    location    "6";
    object      phi;
}
// * * * * * * * * * * * * * * * * * * * * * * * * * * * * * * * * * * * * * //

dimensions      [0 3 -1 0 0 0 0];

internalField   nonuniform List<scalar> 
760
(
2.97963e-07
-2.97966e-07
2.17351e-07
8.06117e-08
-4.42954e-07
6.60305e-07
-1.88616e-06
1.44321e-06
-3.5999e-06
1.71373e-06
-5.03172e-06
1.43182e-06
-6.24621e-06
1.21449e-06
-7.11752e-06
8.71318e-07
-7.80221e-06
6.84683e-07
-8.24026e-06
4.38056e-07
-8.5196e-06
2.79341e-07
-8.58309e-06
6.34878e-08
-8.49615e-06
-8.694e-08
-8.21649e-06
-2.79661e-07
-7.75774e-06
-4.58752e-07
-6.97666e-06
-7.81076e-07
-5.78752e-06
-1.18915e-06
-3.98427e-06
-1.80324e-06
-1.71192e-06
-2.27235e-06
-1.71192e-06
-2.86684e-07
-1.1282e-08
-1.22548e-06
1.0194e-06
-2.80639e-06
2.24122e-06
-4.36797e-06
3.00479e-06
-5.4516e-06
2.79737e-06
-6.44825e-06
2.42847e-06
-7.1671e-06
1.93334e-06
-7.79224e-06
1.49645e-06
-8.2024e-06
1.09485e-06
-8.46069e-06
6.96344e-07
-8.52704e-06
3.45687e-07
-8.43437e-06
-2.91804e-08
-8.22392e-06
-2.97388e-07
-7.89282e-06
-6.10764e-07
-7.40154e-06
-9.50026e-07
-6.767e-06
-1.41562e-06
-5.8226e-06
-2.13354e-06
-4.40437e-06
-3.22147e-06
-2.31162e-06
-4.3651e-06
-4.02354e-06
-9.70323e-07
9.59041e-07
-2.43099e-06
2.48007e-06
-3.83527e-06
3.64549e-06
-4.85627e-06
4.02579e-06
-5.62667e-06
3.56777e-06
-6.2048e-06
3.00661e-06
-6.52443e-06
2.25296e-06
-6.70807e-06
1.6801e-06
-6.68842e-06
1.0752e-06
-6.63995e-06
6.47874e-07
-6.52538e-06
2.31111e-07
-6.41276e-06
-1.41801e-07
-6.1509e-06
-5.59242e-07
-5.82265e-06
-9.39014e-07
-5.38921e-06
-1.38347e-06
-4.90447e-06
-1.90036e-06
-4.36692e-06
-2.67109e-06
-3.57579e-06
-4.01261e-06
-2.15261e-06
-5.78828e-06
-6.17616e-06
-1.28017e-06
2.23921e-06
-2.70908e-06
3.90898e-06
-3.82453e-06
4.76095e-06
-4.51906e-06
4.72032e-06
-4.91175e-06
3.96045e-06
-5.01347e-06
3.10833e-06
-4.99524e-06
2.23474e-06
-4.9944e-06
1.67925e-06
-5.04511e-06
1.12591e-06
-5.09052e-06
6.93284e-07
-5.05404e-06
1.94628e-07
-4.92213e-06
-2.73713e-07
-4.69371e-06
-7.87658e-07
-4.35626e-06
-1.27647e-06
-3.91848e-06
-1.82125e-06
-3.43247e-06
-2.38637e-06
-2.98828e-06
-3.11529e-06
-2.50318e-06
-4.4977e-06
-1.631e-06
-6.66046e-06
-7.80716e-06
-1.26405e-06
3.50326e-06
-2.44081e-06
5.08574e-06
-3.21855e-06
5.53868e-06
-3.64059e-06
5.14237e-06
-3.75634e-06
4.0762e-06
-3.74351e-06
3.0955e-06
-3.79245e-06
2.28367e-06
-3.90883e-06
1.79563e-06
-4.03928e-06
1.25637e-06
-4.14456e-06
7.98563e-07
-4.15538e-06
2.05454e-07
-4.05715e-06
-3.71945e-07
-3.83528e-06
-1.00953e-06
-3.48167e-06
-1.63009e-06
-3.05225e-06
-2.25067e-06
-2.56505e-06
-2.87357e-06
-2.12552e-06
-3.55482e-06
-1.83796e-06
-4.78526e-06
-1.25798e-06
-7.24044e-06
-9.06514e-06
-1.03795e-06
4.54121e-06
-1.88393e-06
5.93173e-06
-2.43399e-06
6.08873e-06
-2.68053e-06
5.38891e-06
-2.72363e-06
4.11929e-06
-2.71377e-06
3.08565e-06
-2.81482e-06
2.38473e-06
-2.96168e-06
1.94249e-06
-3.12304e-06
1.41773e-06
-3.23486e-06
9.10382e-07
-3.27504e-06
2.45634e-07
-3.21144e-06
-4.35544e-07
-3.03765e-06
-1.18332e-06
-2.73129e-06
-1.93644e-06
-2.33032e-06
-2.65164e-06
-1.8901e-06
-3.31379e-06
-1.45317e-06
-3.99175e-06
-1.14977e-06
-5.08866e-06
-9.28768e-07
-7.46144e-06
-9.99391e-06
-7.33362e-07
5.27457e-06
-1.30811e-06
6.50648e-06
-1.67683e-06
6.45746e-06
-1.81434e-06
5.52641e-06
-1.83226e-06
4.13721e-06
-1.83613e-06
3.08951e-06
-1.93561e-06
2.48421e-06
-2.05854e-06
2.06542e-06
-2.19843e-06
1.55762e-06
-2.29634e-06
1.00829e-06
-2.34965e-06
2.98947e-07
-2.31977e-06
-4.65424e-07
-2.2154e-06
-1.28768e-06
-2.01502e-06
-2.13683e-06
-1.71029e-06
-2.95638e-06
-1.3758e-06
-3.64827e-06
-1.04942e-06
-4.31813e-06
-8.49018e-07
-5.28906e-06
-6.94108e-07
-7.61635e-06
-1.0688e-05
-4.09714e-07
5.68429e-06
-7.68488e-07
6.86525e-06
-1.00496e-06
6.69393e-06
-1.0912e-06
5.61265e-06
-1.09019e-06
4.13621e-06
-1.07794e-06
3.07726e-06
-1.1205e-06
2.52677e-06
-1.17781e-06
2.12272e-06
-1.26001e-06
1.63982e-06
-1.32545e-06
1.07373e-06
-1.3733e-06
3.4679e-07
-1.36297e-06
-4.75748e-07
-1.3113e-06
-1.33935e-06
-1.21386e-06
-2.23427e-06
-1.06131e-06
-3.10893e-06
-8.48101e-07
-3.86148e-06
-6.30186e-07
-4.53605e-06
-4.97925e-07
-5.42132e-06
-5.11547e-07
-7.60273e-06
-1.11996e-05
-1.45867e-07
5.83015e-06
-3.15552e-07
7.03494e-06
-4.22853e-07
6.80123e-06
-4.74517e-07
5.66432e-06
-4.56605e-07
4.1183e-06
-4.21891e-07
3.04254e-06
-3.87725e-07
2.4926e-06
-3.67603e-07
2.1026e-06
-3.79732e-07
1.65195e-06
-4.02396e-07
1.0964e-06
-4.34444e-07
3.78838e-07
-4.50131e-07
-4.60062e-07
-4.36271e-07
-1.35321e-06
-4.31983e-07
-2.23856e-06
-4.15481e-07
-3.12543e-06
-3.7094e-07
-3.90602e-06
-3.22809e-07
-4.58418e-06
-3.10661e-07
-5.43347e-06
-3.62553e-07
-7.55084e-06
-1.15621e-05
1.26293e-07
5.70386e-06
1.18283e-07
7.04295e-06
8.50577e-08
6.83445e-06
5.50557e-08
5.69432e-06
7.7358e-08
4.09599e-06
1.2238e-07
2.99752e-06
2.21424e-07
2.39356e-06
3.25243e-07
1.99878e-06
3.99392e-07
1.5778e-06
4.36955e-07
1.05883e-06
4.28619e-07
3.87173e-07
3.81094e-07
-4.12536e-07
3.35191e-07
-1.30731e-06
2.64805e-07
-2.16817e-06
2.00168e-07
-3.06079e-06
4.77838e-08
-3.75363e-06
3.6802e-08
-4.5732e-06
-1.18975e-07
-5.27769e-06
-2.77992e-07
-7.39182e-06
-1.18401e-05
3.53105e-07
5.35076e-06
5.17631e-07
6.87842e-06
6.17807e-07
6.73428e-06
5.57355e-07
5.75477e-06
5.26192e-07
4.12716e-06
5.77261e-07
2.94645e-06
7.19713e-07
2.25111e-06
8.9512e-07
1.82338e-06
1.04717e-06
1.42575e-06
1.148e-06
9.58004e-07
1.17536e-06
3.59812e-07
1.1287e-06
-3.65882e-07
1.02019e-06
-1.19879e-06
8.90354e-07
-2.03834e-06
6.73506e-07
-2.84394e-06
4.6234e-07
-3.54247e-06
2.38635e-07
-4.34949e-06
-4.1897e-08
-4.99716e-06
-1.96266e-07
-7.23745e-06
-1.20364e-05
5.76613e-07
4.77414e-06
9.07881e-07
6.54715e-06
1.09946e-06
6.5427e-06
1.06448e-06
5.78975e-06
9.7094e-07
4.2207e-06
9.76923e-07
2.94047e-06
1.10532e-06
2.1227e-06
1.30649e-06
1.62221e-06
1.50585e-06
1.2264e-06
1.65394e-06
8.09917e-07
1.72376e-06
2.89991e-07
1.70284e-06
-3.44967e-07
1.57236e-06
-1.0683e-06
1.36894e-06
-1.83492e-06
1.08045e-06
-2.55546e-06
7.65179e-07
-3.2272e-06
4.3245e-07
-4.01676e-06
1.22365e-07
-4.68707e-06
-1.25563e-07
-6.98952e-06
-1.21619e-05
7.94401e-07
3.97974e-06
1.25273e-06
6.08883e-06
1.56076e-06
6.23466e-06
1.6258e-06
5.72472e-06
1.47233e-06
4.37417e-06
1.41143e-06
3.00136e-06
1.4741e-06
2.06004e-06
1.6386e-06
1.45771e-06
1.83615e-06
1.02885e-06
2.00233e-06
6.43734e-07
2.08807e-06
2.04258e-07
2.07918e-06
-3.36087e-07
1.94162e-06
-9.30742e-07
1.70086e-06
-1.59415e-06
1.3607e-06
-2.2153e-06
9.80181e-07
-2.84668e-06
5.62259e-07
-3.59884e-06
1.58392e-07
-4.28321e-06
-6.39355e-08
-6.7672e-06
-1.22259e-05
9.89328e-07
2.99041e-06
1.61405e-06
5.4641e-06
1.98774e-06
5.86097e-06
2.17437e-06
5.53809e-06
2.05229e-06
4.49625e-06
1.91828e-06
3.13537e-06
1.87769e-06
2.10063e-06
1.94862e-06
1.38678e-06
2.08598e-06
8.91494e-07
2.23478e-06
4.94935e-07
2.31715e-06
1.21881e-07
2.30646e-06
-3.25395e-07
2.16796e-06
-7.92239e-07
1.91447e-06
-1.34067e-06
1.5504e-06
-1.85122e-06
1.14359e-06
-2.43988e-06
7.00089e-07
-3.15533e-06
2.87167e-07
-3.87028e-06
3.32883e-08
-6.51332e-06
-1.21926e-05
1.12539e-06
1.86503e-06
1.83005e-06
4.75944e-06
2.33317e-06
5.35784e-06
2.7127e-06
5.15856e-06
2.77657e-06
4.43238e-06
2.64794e-06
3.264e-06
2.5204e-06
2.22816e-06
2.45771e-06
1.44947e-06
2.46024e-06
8.8896e-07
2.51108e-06
4.441e-07
2.53641e-06
9.65508e-08
2.49615e-06
-2.85143e-07
2.3474e-06
-6.43486e-07
2.09642e-06
-1.08969e-06
1.73701e-06
-1.49181e-06
1.3363e-06
-2.03916e-06
8.5366e-07
-2.67269e-06
3.70282e-07
-3.38691e-06
1.36012e-07
-6.27905e-06
-1.20566e-05
1.05367e-06
8.11355e-07
1.86725e-06
3.94587e-06
2.50588e-06
4.71921e-06
3.09776e-06
4.56668e-06
3.43979e-06
4.09036e-06
3.49884e-06
3.20495e-06
3.42352e-06
2.30348e-06
3.31485e-06
1.55814e-06
3.20199e-06
1.00183e-06
3.1112e-06
5.34885e-07
3.01899e-06
1.88763e-07
2.90203e-06
-1.68183e-07
2.70539e-06
-4.46846e-07
2.437e-06
-8.21297e-07
2.08033e-06
-1.13515e-06
1.69292e-06
-1.65175e-06
1.15221e-06
-2.13198e-06
6.52967e-07
-2.88766e-06
3.56567e-07
-5.98265e-06
-1.17e-05
5.49055e-07
2.623e-07
1.53988e-06
2.95504e-06
2.46398e-06
3.79511e-06
3.28343e-06
3.74724e-06
3.91947e-06
3.45432e-06
4.28253e-06
2.84189e-06
4.41713e-06
2.16887e-06
4.43869e-06
1.53659e-06
4.37889e-06
1.06163e-06
4.26997e-06
6.43803e-07
4.09477e-06
3.63959e-07
3.85798e-06
6.86133e-08
3.56709e-06
-1.55957e-07
3.22359e-06
-4.77801e-07
2.7907e-06
-7.02257e-07
2.28184e-06
-1.14289e-06
1.59852e-06
-1.44866e-06
9.97597e-07
-2.28674e-06
6.79419e-07
-5.66447e-06
-1.10206e-05
-2.8148e-07
5.4378e-07
8.5524e-07
1.81832e-06
1.96925e-06
2.68111e-06
3.06247e-06
2.65402e-06
3.98148e-06
2.5353e-06
4.67355e-06
2.14983e-06
5.10398e-06
1.73845e-06
5.3521e-06
1.28846e-06
5.43532e-06
9.78409e-07
5.40736e-06
6.71761e-07
5.27688e-06
4.94436e-07
5.06559e-06
2.799e-07
4.75705e-06
1.52585e-07
4.33333e-06
-5.40776e-08
3.81485e-06
-1.83774e-07
3.1198e-06
-4.47844e-07
2.33578e-06
-6.64638e-07
1.74693e-06
-1.6979e-06
1.27588e-06
-5.19341e-06
-9.7447e-06
-1.14554e-06
1.68932e-06
-2.8642e-07
9.59203e-07
1.11684e-06
1.27785e-06
2.46557e-06
1.30528e-06
3.65917e-06
1.3417e-06
4.62158e-06
1.18742e-06
5.2996e-06
1.06042e-06
5.75424e-06
8.33828e-07
6.00895e-06
7.23697e-07
6.11251e-06
5.68203e-07
6.09019e-06
5.16748e-07
5.96768e-06
4.02417e-07
5.74087e-06
3.79392e-07
5.40975e-06
2.77038e-07
4.99904e-06
2.26946e-07
4.48901e-06
6.21846e-08
4.01832e-06
-1.93956e-07
3.60078e-06
-1.28035e-06
2.53935e-06
-4.13198e-06
-7.20536e-06
1.68932e-06
2.64852e-06
3.92637e-06
5.23165e-06
6.57335e-06
7.76077e-06
8.82119e-06
9.65502e-06
1.03787e-05
1.09469e-05
1.14637e-05
1.18661e-05
1.22455e-05
1.25225e-05
1.27495e-05
1.28116e-05
1.26177e-05
1.13373e-05
7.20536e-06
)
;

boundaryField
{
    movingWall
    {
        type            calculated;
        value           uniform 0;
    }
    fixedWalls
    {
        type            calculated;
        value           uniform 0;
    }
    frontAndBack
    {
        type            empty;
    }
}


// ************************************************************************* //
