/*--------------------------------*- C++ -*----------------------------------*\
  =========                 |
  \\      /  F ield         | OpenFOAM: The Open Source CFD Toolbox
   \\    /   O peration     | Website:  https://openfoam.org
    \\  /    A nd           | Version:  12
     \\/     M anipulation  |
\*---------------------------------------------------------------------------*/
FoamFile
{
    format      ascii;
    class       volScalarField;
    location    "1.5";
    object      p;
}
// * * * * * * * * * * * * * * * * * * * * * * * * * * * * * * * * * * * * * //

dimensions      [0 2 -2 0 0 0 0];

internalField   nonuniform List<scalar> 
400
(
-1.19591e-08
-2.78716e-07
6.84918e-06
1.87765e-05
3.58299e-05
5.85559e-05
8.7874e-05
0.000125352
0.000173659
0.000237318
0.000323904
0.000446585
0.000632701
0.000944301
0.00152201
0.00247215
0.00377644
0.00512582
0.00613913
0.00660982
-8.33851e-07
-8.41526e-07
6.58318e-06
1.83661e-05
3.48196e-05
5.61029e-05
8.23589e-05
0.000113689
0.000150313
0.000193075
0.000244013
0.00030819
0.000407766
0.000622108
0.00111922
0.00204778
0.00335871
0.00477718
0.00597246
0.00662861
-2.62539e-05
-2.70466e-05
-2.13675e-05
-1.25875e-05
-7.60402e-07
1.35015e-05
2.90398e-05
4.37416e-05
5.42215e-05
5.59034e-05
4.24609e-05
3.4971e-06
-6.31994e-05
-8.66308e-05
0.000156843
0.000895607
0.00217238
0.00376733
0.00545231
0.00643262
-7.25242e-05
-7.47763e-05
-7.25389e-05
-6.9398e-05
-6.60222e-05
-6.41303e-05
-6.66638e-05
-7.86282e-05
-0.000108113
-0.00016694
-0.000272803
-0.000461454
-0.000798853
-0.00131057
-0.00174836
-0.00148659
-0.000339435
0.00142441
0.00369166
0.00494539
-0.000137493
-0.000141703
-0.000144226
-0.000148781
-0.000156784
-0.000171264
-0.000197246
-0.000243094
-0.000322658
-0.000457851
-0.000683677
-0.00107342
-0.00179516
-0.00299327
-0.0043693
-0.00484679
-0.00388026
-0.00188833
0.000251882
0.00194636
-0.000216892
-0.000223281
-0.000231273
-0.000244605
-0.000265446
-0.000298191
-0.00035003
-0.000432832
-0.000566604
-0.000785261
-0.0011473
-0.00176373
-0.00284141
-0.00467059
-0.00695696
-0.00807753
-0.00729896
-0.00523076
-0.00347209
-0.00142916
-0.000305333
-0.000313979
-0.000327308
-0.00034926
-0.000382572
-0.000432824
-0.000509044
-0.000626001
-0.000808452
-0.00109878
-0.00157204
-0.00238221
-0.00371893
-0.00587635
-0.00858222
-0.00993318
-0.00942768
-0.00744272
-0.00589771
-0.00410666
-0.000397495
-0.000408176
-0.000425925
-0.000455061
-0.000498581
-0.000562769
-0.000657604
-0.000799129
-0.00101374
-0.00134618
-0.00187235
-0.00273291
-0.00416731
-0.00626723
-0.00900712
-0.0103977
-0.0100662
-0.00810647
-0.00694215
-0.00554378
-0.000488836
-0.000500826
-0.000521429
-0.000555263
-0.000605207
-0.000677625
-0.000782228
-0.00093414
-0.00115742
-0.00149222
-0.00200668
-0.00279668
-0.00412226
-0.00593232
-0.00821462
-0.00948265
-0.00928163
-0.00755148
-0.00675966
-0.00568875
-0.000575781
-0.000588007
-0.000609411
-0.000644785
-0.000696567
-0.0007706
-0.000875324
-0.00102313
-0.00123199
-0.00153306
-0.00198381
-0.00264562
-0.00366813
-0.00498237
-0.00651026
-0.00743581
-0.007377
-0.00609078
-0.00568591
-0.00467979
-0.000656192
-0.000667411
-0.000687211
-0.000720665
-0.000769621
-0.00083902
-0.000935548
-0.00106868
-0.00124693
-0.00150128
-0.00185658
-0.0023375
-0.00300681
-0.00377379
-0.00460719
-0.00503061
-0.00497661
-0.00417863
-0.00404608
-0.00328677
-0.000729114
-0.000737955
-0.000753689
-0.000781872
-0.000824075
-0.000883692
-0.00096545
-0.00107664
-0.00122388
-0.00141882
-0.00167304
-0.00198395
-0.00236691
-0.00274451
-0.00312426
-0.00323604
-0.00308061
-0.00247978
-0.002785
-0.00213967
-0.000795596
-0.000800419
-0.000809339
-0.000829512
-0.000861544
-0.000908237
-0.000973393
-0.00106065
-0.00117296
-0.00131327
-0.00148257
-0.00166809
-0.00187012
-0.00202704
-0.00213823
-0.00208438
-0.00190351
-0.00138997
-0.00201136
-0.0012317
-0.000857208
-0.0008562
-0.000855577
-0.000864513
-0.000884075
-0.000916678
-0.000964594
-0.00102873
-0.00110949
-0.0012056
-0.00131365
-0.00141889
-0.00152026
-0.00156557
-0.00154069
-0.0014181
-0.00126236
-0.000693531
-0.00153563
-0.000377074
-0.000918651
-0.000907793
-0.000893885
-0.000888484
-0.000894488
-0.000913121
-0.000944746
-0.000989077
-0.00104474
-0.00110881
-0.00117704
-0.00123517
-0.00128506
-0.00128519
-0.00121852
-0.00110048
-0.00102081
-0.000256236
-0.00140032
0.000330599
-0.000988203
-0.000959786
-0.000924745
-0.000903412
-0.000895809
-0.00090082
-0.000917923
-0.000946515
-0.000984028
-0.00102693
-0.00107147
-0.00110473
-0.00113017
-0.00111556
-0.00104179
-0.00092337
-0.000935728
-8.88986e-05
-0.00145695
0.0010081
-0.00108346
-0.00101576
-0.000952486
-0.000911659
-0.000888606
-0.000882246
-0.000888396
-0.000905932
-0.000931376
-0.000961766
-0.000993081
-0.00101495
-0.00103039
-0.0010172
-0.000970174
-0.000894873
-0.000982746
-0.000220431
-0.00141511
0.00191339
-0.00124839
-0.0010764
-0.000979023
-0.000921798
-0.000885189
-0.000868044
-0.00086333
-0.000873534
-0.000891391
-0.000915804
-0.000940926
-0.000959417
-0.000971602
-0.000957251
-0.000912002
-0.000809382
-0.000809728
-0.000183319
-0.000901521
0.00414887
-0.00164543
-0.00126077
-0.00109145
-0.000977407
-0.000913233
-0.000891893
-0.000876971
-0.000884608
-0.000893539
-0.00091662
-0.000934534
-0.000953855
-0.000959486
-0.000962336
-0.000949796
-0.000977905
-0.00111799
-0.000548691
0.00186444
0.0134395
-0.00262339
-0.000702906
-0.00055825
-0.000626436
-0.000648696
-0.000645538
-0.000656894
-0.000678033
-0.000714948
-0.000747393
-0.000790864
-0.000822431
-0.000861769
-0.000874609
-0.000850211
-0.000637133
0.000145432
0.00341295
0.014077
0.0353921
)
;

boundaryField
{
    movingWall
    {
        type            zeroGradient;
    }
    fixedWalls
    {
        type            zeroGradient;
    }
    frontAndBack
    {
        type            empty;
    }
}


// ************************************************************************* //
