/*--------------------------------*- C++ -*----------------------------------*\
  =========                 |
  \\      /  F ield         | OpenFOAM: The Open Source CFD Toolbox
   \\    /   O peration     | Website:  https://openfoam.org
    \\  /    A nd           | Version:  12
     \\/     M anipulation  |
\*---------------------------------------------------------------------------*/
FoamFile
{
    format      ascii;
    class       volVectorField;
    location    "1.5";
    object      U;
}
// * * * * * * * * * * * * * * * * * * * * * * * * * * * * * * * * * * * * * //

dimensions      [0 1 -1 0 0 0 0];

internalField   nonuniform List<vector> 
400
(
(-0.000573081 0.000528737 0)
(-0.00213051 0.000763061 0)
(-0.00409738 0.000820694 0)
(-0.0061238 0.000890576 0)
(-0.00833855 0.000996391 0)
(-0.0108271 0.00114789 0)
(-0.0136927 0.00135934 0)
(-0.0170691 0.00165137 0)
(-0.0211268 0.00204823 0)
(-0.026066 0.00256725 0)
(-0.0320728 0.00319503 0)
(-0.0392422 0.00383968 0)
(-0.0474323 0.00425405 0)
(-0.0557974 0.00396144 0)
(-0.0607403 0.00256183 0)
(-0.0619958 -6.39786e-05 0)
(-0.0546445 -0.00428906 0)
(-0.0406151 -0.00732823 0)
(-0.0228375 -0.00809292 0)
(-0.00663672 -0.00609495 0)
(-0.000955825 0.00224576 0)
(-0.00343229 0.00308702 0)
(-0.00646707 0.00330027 0)
(-0.00958419 0.00355787 0)
(-0.0129556 0.00393473 0)
(-0.0166739 0.00445682 0)
(-0.0208485 0.00515889 0)
(-0.0256062 0.00608253 0)
(-0.0310837 0.00726114 0)
(-0.0374049 0.00868388 0)
(-0.044643 0.0102337 0)
(-0.0528041 0.0115915 0)
(-0.0617056 0.0120861 0)
(-0.0704106 0.0105656 0)
(-0.0766941 0.00566703 0)
(-0.0778195 -0.00331325 0)
(-0.0707212 -0.0147687 0)
(-0.0546603 -0.0244668 0)
(-0.0342504 -0.0273496 0)
(-0.0103667 -0.0215617 0)
(-0.00100818 0.00457602 0)
(-0.00363704 0.00616139 0)
(-0.00684543 0.00656677 0)
(-0.0101278 0.00703925 0)
(-0.0136623 0.00771427 0)
(-0.0175355 0.00862984 0)
(-0.0218518 0.00983179 0)
(-0.0267313 0.0113679 0)
(-0.0323085 0.0132671 0)
(-0.0387192 0.0154939 0)
(-0.0460969 0.0178803 0)
(-0.054679 0.0200477 0)
(-0.0649072 0.0212343 0)
(-0.0767824 0.0198574 0)
(-0.0882146 0.0129597 0)
(-0.0945189 -0.00286552 0)
(-0.0893826 -0.0255706 0)
(-0.0719403 -0.043068 0)
(-0.0493853 -0.0504458 0)
(-0.0169661 -0.0465564 0)
(-0.000949317 0.00680437 0)
(-0.00347184 0.00913055 0)
(-0.00655936 0.00971912 0)
(-0.00970145 0.0103909 0)
(-0.0130669 0.0113451 0)
(-0.0167334 0.0126334 0)
(-0.0208 0.0143174 0)
(-0.0253906 0.0164634 0)
(-0.0306675 0.0191246 0)
(-0.0368406 0.0223005 0)
(-0.0441878 0.025886 0)
(-0.0532942 0.029665 0)
(-0.0655176 0.033094 0)
(-0.0822074 0.0336739 0)
(-0.100047 0.0246774 0)
(-0.106232 -0.00114674 0)
(-0.0949434 -0.0385078 0)
(-0.0803389 -0.0656822 0)
(-0.0533326 -0.0826996 0)
(-0.0242225 -0.0905995 0)
(-0.0008439 0.00886199 0)
(-0.00314893 0.0119079 0)
(-0.0059883 0.0126643 0)
(-0.00885591 0.0135035 0)
(-0.0119009 0.014694 0)
(-0.0151868 0.0163046 0)
(-0.0188018 0.0184198 0)
(-0.0228667 0.0211417 0)
(-0.0275634 0.0245865 0)
(-0.0331701 0.028874 0)
(-0.0400693 0.0341187 0)
(-0.0490063 0.0403927 0)
(-0.0619288 0.046944 0)
(-0.0798856 0.0490974 0)
(-0.0950431 0.0356964 0)
(-0.095857 -0.00494433 0)
(-0.0795448 -0.0565237 0)
(-0.0667346 -0.0894547 0)
(-0.046104 -0.120067 0)
(-0.0200382 -0.136501 0)
(-0.000717932 0.0106833 0)
(-0.00274141 0.0144191 0)
(-0.00526148 0.0153219 0)
(-0.0077786 0.0162848 0)
(-0.0104114 0.017651 0)
(-0.0132021 0.0195091 0)
(-0.0162152 0.0219705 0)
(-0.019544 0.0251847 0)
(-0.0233388 0.0293574 0)
(-0.0278448 0.0347847 0)
(-0.0333726 0.0418614 0)
(-0.0404389 0.0507211 0)
(-0.0505758 0.0592695 0)
(-0.0648757 0.0602976 0)
(-0.0759293 0.0396195 0)
(-0.0685439 -0.00906823 0)
(-0.0553962 -0.0658425 0)
(-0.0459337 -0.103066 0)
(-0.0418264 -0.1393 0)
(-0.00566977 -0.16714 0)
(-0.000586078 0.0122382 0)
(-0.0022789 0.0165937 0)
(-0.00444944 0.0176343 0)
(-0.00656895 0.0186655 0)
(-0.00873073 0.0201284 0)
(-0.010945 0.0221288 0)
(-0.0132375 0.0247983 0)
(-0.0156444 0.0283217 0)
(-0.0182235 0.0329662 0)
(-0.0210704 0.0391309 0)
(-0.0242552 0.0473171 0)
(-0.028246 0.0577703 0)
(-0.0332887 0.0671787 0)
(-0.0397913 0.0663023 0)
(-0.0450851 0.0413881 0)
(-0.0377318 -0.0124306 0)
(-0.0329808 -0.0690971 0)
(-0.0227686 -0.110397 0)
(-0.0305728 -0.147905 0)
(-0.00349994 -0.190171 0)
(-0.000442883 0.0134901 0)
(-0.0018049 0.0184248 0)
(-0.00361266 0.019571 0)
(-0.0053137 0.0206065 0)
(-0.00697806 0.0220721 0)
(-0.00857863 0.0240855 0)
(-0.0100956 0.026783 0)
(-0.0114967 0.0303572 0)
(-0.012726 0.0350882 0)
(-0.0136958 0.0413966 0)
(-0.0141802 0.0498726 0)
(-0.0141844 0.0611342 0)
(-0.0136992 0.0688395 0)
(-0.0121556 0.0670612 0)
(-0.0133787 0.0415953 0)
(-0.00702388 -0.0130904 0)
(-0.0141564 -0.0704664 0)
(0.000539048 -0.111126 0)
(-0.0194795 -0.144801 0)
(0.00329317 -0.202003 0)
(-0.00030234 0.0144415 0)
(-0.00135578 0.0199124 0)
(-0.00280994 0.0211236 0)
(-0.00410005 0.0220965 0)
(-0.00527512 0.0234659 0)
(-0.00627268 0.0253535 0)
(-0.00703193 0.0278809 0)
(-0.00745996 0.0312123 0)
(-0.00740558 0.0355723 0)
(-0.00662866 0.0412786 0)
(-0.00475979 0.048713 0)
(-0.000801234 0.0581603 0)
(0.00414467 0.0657688 0)
(0.0118484 0.0628674 0)
(0.014781 0.0410781 0)
(0.0220333 -0.00937143 0)
(0.00634489 -0.0674097 0)
(0.0154865 -0.106122 0)
(-0.0129565 -0.138534 0)
(0.00591401 -0.207475 0)
(-0.000182434 0.0151235 0)
(-0.000968542 0.0210861 0)
(-0.00210001 0.0223153 0)
(-0.00301302 0.0231562 0)
(-0.00374124 0.0243337 0)
(-0.0041956 0.0259694 0)
(-0.00429076 0.0281562 0)
(-0.00389822 0.0310024 0)
(-0.00281847 0.0346478 0)
(-0.000766169 0.0392467 0)
(0.00270278 0.0450224 0)
(0.00903363 0.0519656 0)
(0.0166251 0.0580912 0)
(0.0280804 0.0539444 0)
(0.0333602 0.035944 0)
(0.0425946 -0.00231435 0)
(0.0276758 -0.0556262 0)
(0.030281 -0.0966391 0)
(-0.00743189 -0.128236 0)
(0.00934073 -0.208246 0)
(-9.66412e-05 0.0155795 0)
(-0.000673642 0.0219722 0)
(-0.00154077 0.023173 0)
(-0.00213352 0.0238265 0)
(-0.00247896 0.0247383 0)
(-0.0024802 0.0260242 0)
(-0.0020463 0.0277455 0)
(-0.00105052 0.0299514 0)
(0.000700418 0.0327074 0)
(0.00356077 0.0360274 0)
(0.0078101 0.0399215 0)
(0.0147052 0.0440833 0)
(0.0225592 0.0479592 0)
(0.034861 0.0431328 0)
(0.0382752 0.0271236 0)
(0.0508586 -0.00268485 0)
(0.0355269 -0.0442355 0)
(0.0370063 -0.0818527 0)
(-0.00514154 -0.110393 0)
(0.0123714 -0.204564 0)
(-7.48299e-05 0.0159188 0)
(-0.000530422 0.0226878 0)
(-0.0011941 0.0237962 0)
(-0.00152425 0.0241827 0)
(-0.00156673 0.0247506 0)
(-0.00120588 0.0256273 0)
(-0.000399679 0.0268304 0)
(0.00100492 0.028372 0)
(0.00316128 0.0302454 0)
(0.00630312 0.0323825 0)
(0.0106022 0.0345419 0)
(0.0168992 0.0363387 0)
(0.023546 0.0378796 0)
(0.0352169 0.0332694 0)
(0.0363894 0.0199118 0)
(0.0481044 -0.00364433 0)
(0.0330111 -0.0336416 0)
(0.0328816 -0.0679125 0)
(-0.0108363 -0.0988552 0)
(0.0144991 -0.204358 0)
(-8.90938e-05 0.0161839 0)
(-0.000519242 0.0232107 0)
(-0.00108588 0.0241617 0)
(-0.00125686 0.0242691 0)
(-0.00102606 0.0244839 0)
(-0.000436989 0.024906 0)
(0.000660213 0.025566 0)
(0.00230814 0.0264827 0)
(0.00461255 0.0275524 0)
(0.00770866 0.0286582 0)
(0.0116554 0.0295459 0)
(0.0169637 0.0297676 0)
(0.0219333 0.0294378 0)
(0.0320093 0.0255663 0)
(0.0318864 0.0155076 0)
(0.0407008 -0.00357091 0)
(0.0261738 -0.0230471 0)
(0.0287919 -0.0532622 0)
(-0.0171454 -0.09074 0)
(0.0171435 -0.205466 0)
(-0.000323582 0.0166308 0)
(-0.000857194 0.02386 0)
(-0.0013639 0.0245402 0)
(-0.00142183 0.0241833 0)
(-0.000981607 0.0239324 0)
(-0.000105153 0.0239416 0)
(0.00117469 0.0241391 0)
(0.00297003 0.0244929 0)
(0.00529618 0.024912 0)
(0.00820003 0.0252577 0)
(0.0116542 0.0253059 0)
(0.0160485 0.0247312 0)
(0.0194911 0.0231646 0)
(0.0273574 0.0201666 0)
(0.0267705 0.0133616 0)
(0.0323799 -0.00160349 0)
(0.0184769 -0.0145057 0)
(0.0257461 -0.0379917 0)
(-0.0192138 -0.0824704 0)
(0.0189887 -0.205412 0)
(-0.000451792 0.0174211 0)
(-0.00137689 0.0243778 0)
(-0.0019987 0.0246127 0)
(-0.00188328 0.0238739 0)
(-0.00134608 0.0232199 0)
(-0.000315247 0.022745 0)
(0.00113234 0.0224852 0)
(0.0029946 0.0223343 0)
(0.00526554 0.0222485 0)
(0.00795963 0.0220644 0)
(0.0109419 0.0216498 0)
(0.014637 0.0207554 0)
(0.0170148 0.0186648 0)
(0.0227461 0.0166402 0)
(0.0223162 0.0122928 0)
(0.025954 0.00121634 0)
(0.0122132 -0.00816371 0)
(0.0231117 -0.0250422 0)
(-0.0211448 -0.0792513 0)
(0.0239448 -0.20769 0)
(-0.00138275 0.0187236 0)
(-0.00248453 0.025435 0)
(-0.0032459 0.025089 0)
(-0.00293477 0.0236019 0)
(-0.00207642 0.0223784 0)
(-0.000805181 0.0214987 0)
(0.000864135 0.0208748 0)
(0.00282608 0.0204147 0)
(0.00507929 0.0199465 0)
(0.00760293 0.0194418 0)
(0.0101981 0.018737 0)
(0.0133718 0.0177769 0)
(0.0150763 0.0156759 0)
(0.0189597 0.014473 0)
(0.0186394 0.0118632 0)
(0.0212052 0.00427371 0)
(0.00841231 -0.00126043 0)
(0.0220756 -0.0131202 0)
(-0.0213113 -0.0787584 0)
(0.0291683 -0.20978 0)
(-0.00190456 0.0217797 0)
(-0.00443436 0.0262433 0)
(-0.0051024 0.0247504 0)
(-0.00430405 0.0229014 0)
(-0.00338488 0.0213197 0)
(-0.00201091 0.0199374 0)
(-0.000213141 0.0188753 0)
(0.00185084 0.0180575 0)
(0.0041255 0.0173896 0)
(0.00659456 0.0167301 0)
(0.00897401 0.0160452 0)
(0.0118305 0.0151903 0)
(0.0132899 0.0137424 0)
(0.0161192 0.0128847 0)
(0.0168343 0.0112734 0)
(0.0198432 0.00569272 0)
(0.00794931 0.000695293 0)
(0.020206 -0.0068032 0)
(-0.0142059 -0.0809599 0)
(0.0382044 -0.212252 0)
(-0.00621886 0.0263881 0)
(-0.0103911 0.0296299 0)
(-0.00913032 0.0256349 0)
(-0.0071873 0.0225157 0)
(-0.00521031 0.0202323 0)
(-0.00306364 0.0187412 0)
(-0.000871376 0.0173909 0)
(0.0014722 0.0165024 0)
(0.00391145 0.0155229 0)
(0.00643986 0.0148563 0)
(0.00886128 0.0139591 0)
(0.0116406 0.0132792 0)
(0.0132225 0.0122373 0)
(0.0156821 0.011511 0)
(0.0160897 0.0113725 0)
(0.0171606 0.010436 0)
(0.00711237 0.00932195 0)
(0.0204312 0.000736604 0)
(0.000129246 -0.0898698 0)
(0.0512217 -0.211642 0)
(-0.00988183 0.040555 0)
(-0.0135588 0.0222198 0)
(-0.00749972 0.0169773 0)
(-0.00403996 0.0159027 0)
(-9.65074e-05 0.014491 0)
(0.00318083 0.0131912 0)
(0.00696776 0.0118293 0)
(0.0101318 0.0109833 0)
(0.0140097 0.0101984 0)
(0.0170084 0.00973505 0)
(0.0206609 0.0091484 0)
(0.0237025 0.00883659 0)
(0.0264387 0.00868905 0)
(0.0293835 0.00820177 0)
(0.0315463 0.00917562 0)
(0.0359362 0.00693599 0)
(0.0325729 -0.00022903 0)
(0.0445294 -0.0217109 0)
(0.0382732 -0.099591 0)
(0.0736483 -0.173308 0)
(0.0469982 0.0432053 0)
(0.0538746 0.0326515 0)
(0.0786413 0.0247518 0)
(0.0961517 0.0209563 0)
(0.115955 0.0175407 0)
(0.126154 0.0164584 0)
(0.141931 0.0138616 0)
(0.150225 0.0137029 0)
(0.163756 0.0113507 0)
(0.171137 0.0118781 0)
(0.182508 0.00955304 0)
(0.189718 0.0106212 0)
(0.198841 0.00822738 0)
(0.206055 0.00984209 0)
(0.212734 0.00726219 0)
(0.219111 0.00926657 0)
(0.223265 0.00455956 0)
(0.217339 -0.00138451 0)
(0.189229 -0.0120374 0)
(0.144126 -0.0314916 0)
)
;

boundaryField
{
    movingWall
    {
        type            fixedValue;
        value           uniform (1 0 0);
    }
    fixedWalls
    {
        type            noSlip;
    }
    frontAndBack
    {
        type            empty;
    }
}


// ************************************************************************* //
