/*--------------------------------*- C++ -*----------------------------------*\
  =========                 |
  \\      /  F ield         | OpenFOAM: The Open Source CFD Toolbox
   \\    /   O peration     | Website:  https://openfoam.org
    \\  /    A nd           | Version:  12
     \\/     M anipulation  |
\*---------------------------------------------------------------------------*/
FoamFile
{
    format      ascii;
    class       volScalarField;
    location    "200";
    object      nut;
}
// * * * * * * * * * * * * * * * * * * * * * * * * * * * * * * * * * * * * * //

dimensions      [0 2 -1 0 0 0 0];

internalField   nonuniform List<scalar> 
10720
(
0.091623
0.0961439
0.101221
0.106725
0.112975
0.119976
0.127871
0.136519
0.145876
0.15561
0.165249
0.17437
0.182167
0.188182
0.192336
0.194801
0.195782
0.195559
0.194255
0.192059
0.188955
0.185023
0.180305
0.175022
0.169576
0.164246
0.159026
0.153782
0.148418
0.14293
0.137315
0.131543
0.125581
0.119382
0.112775
0.105651
0.0969431
0.0872465
0.0648817
0.0872917
0.0826046
0.0774859
0.0711484
0.0635542
0.0540511
0.042695
0.0369802
0.0346897
0.0395762
0.0463371
0.0519774
0.056753
0.0611495
0.0654316
0.0696806
0.0738739
0.0779545
0.0818682
0.0856003
0.0891652
0.0925913
0.0959082
0.0991143
0.102022
0.104408
0.106249
0.107594
0.108501
0.108996
0.109142
0.109065
0.108764
0.10818
0.107226
0.105883
0.103701
0.101142
0.0913629
0.100278
0.0998678
0.0991702
0.0982062
0.0971723
0.0959965
0.0947594
0.0935751
0.0925448
0.0925948
0.0937014
0.0955964
0.0983477
0.102062
0.106731
0.112202
0.118392
0.125047
0.132018
0.138947
0.1457
0.15185
0.15709
0.160818
0.162562
0.162425
0.160832
0.158112
0.154596
0.150544
0.146151
0.141551
0.136849
0.132138
0.127525
0.123141
0.119153
0.116101
0.110396
0.100698
0.100796
0.101044
0.100808
0.100335
0.0995408
0.0981778
0.0958779
0.092955
0.0893034
0.0852337
0.0810952
0.0770258
0.0730656
0.0693505
0.065946
0.0629045
0.0602474
0.0579905
0.0561198
0.0546244
0.0534829
0.0526711
0.0521517
0.0518986
0.0518724
0.0520071
0.0522355
0.0525024
0.0529953
0.0547282
0.0576836
0.0611416
0.0644836
0.0673971
0.0699425
0.072074
0.0759931
0.079347
0.121555
0.121388
0.121013
0.120431
0.119756
0.118881
0.117803
0.116582
0.115168
0.11359
0.111905
0.110267
0.108819
0.107667
0.106814
0.106095
0.105535
0.105181
0.104983
0.104365
0.104255
0.104848
0.106329
0.10792
0.113418
0.120252
0.126953
0.132831
0.13762
0.141225
0.14368
0.145109
0.145696
0.145625
0.145083
0.144154
0.143133
0.141237
0.140408
0.121715
0.121659
0.121646
0.121379
0.120917
0.120232
0.119249
0.117934
0.116283
0.114274
0.111902
0.109234
0.106316
0.10316
0.0998629
0.0964669
0.0930354
0.0896139
0.0862553
0.0829737
0.0797976
0.0767235
0.0737622
0.0708217
0.0678534
0.0649196
0.0620605
0.0593176
0.05672
0.0543103
0.0520912
0.0507123
0.0508455
0.0521255
0.0540672
0.0564813
0.05923
0.0623442
0.0673843
0.128678
0.128574
0.128369
0.128061
0.127687
0.127207
0.126612
0.125926
0.125115
0.124187
0.12314
0.121963
0.120656
0.119227
0.11772
0.116087
0.114227
0.112179
0.109947
0.107509
0.104924
0.102381
0.100081
0.0980361
0.0968055
0.0966534
0.0974542
0.10113
0.107022
0.113852
0.12093
0.127818
0.134215
0.139964
0.145063
0.149551
0.153727
0.156723
0.159428
0.128754
0.128746
0.128729
0.128589
0.128352
0.127987
0.127456
0.126734
0.125815
0.12468
0.123323
0.121758
0.11999
0.118009
0.115847
0.113518
0.111049
0.108466
0.105805
0.103082
0.100326
0.0975441
0.0947332
0.0918098
0.0887095
0.0854785
0.0821469
0.0787512
0.0753241
0.0718998
0.0685006
0.0651647
0.06202
0.0592425
0.0567676
0.0559294
0.0565381
0.0576086
0.0607655
0.132269
0.1322
0.132064
0.131867
0.13163
0.131323
0.130947
0.130511
0.129994
0.129402
0.128731
0.127968
0.127109
0.126144
0.125062
0.123851
0.122483
0.120925
0.11913
0.11708
0.114735
0.112108
0.109234
0.106227
0.103221
0.100698
0.0985354
0.0965597
0.0955948
0.095762
0.0990262
0.104812
0.112126
0.120496
0.129537
0.138982
0.148791
0.158901
0.168127
0.132317
0.132309
0.132298
0.132205
0.132055
0.131819
0.131477
0.131019
0.130445
0.129745
0.128913
0.127951
0.126857
0.125619
0.124248
0.12274
0.121105
0.119346
0.11748
0.11551
0.11345
0.111301
0.109055
0.106645
0.104012
0.101181
0.0981645
0.0949851
0.0916634
0.0882225
0.0846868
0.0810781
0.0774201
0.0737576
0.0700976
0.0665746
0.0634594
0.0604762
0.0596706
0.134324
0.134275
0.134186
0.134054
0.133891
0.133682
0.133427
0.133128
0.132777
0.132373
0.131914
0.131392
0.130802
0.130138
0.129387
0.12854
0.12758
0.126489
0.125233
0.123788
0.122109
0.120166
0.117922
0.115384
0.112641
0.109795
0.106904
0.103928
0.10103
0.0983811
0.0963133
0.0955411
0.0964101
0.101417
0.109229
0.119618
0.132424
0.148699
0.166578
0.134354
0.134347
0.134337
0.134272
0.13417
0.134007
0.133768
0.133454
0.133065
0.132597
0.132043
0.131407
0.130687
0.129871
0.128966
0.127965
0.126869
0.125677
0.124394
0.123017
0.121548
0.119984
0.118312
0.116479
0.114434
0.11218
0.109718
0.107051
0.104187
0.101134
0.0979049
0.0945156
0.0909797
0.0873135
0.0835277
0.0795801
0.0754986
0.0708856
0.0646497
0.135637
0.135602
0.135537
0.135441
0.135323
0.135172
0.134987
0.134772
0.13452
0.134231
0.133903
0.133529
0.133106
0.13263
0.132089
0.131479
0.130785
0.129994
0.129086
0.128043
0.126833
0.125433
0.12381
0.121945
0.119866
0.117576
0.115064
0.112344
0.109426
0.106359
0.10317
0.100129
0.0973735
0.0959567
0.0967096
0.102498
0.112903
0.130517
0.155865
0.135657
0.13565
0.13564
0.13559
0.135517
0.135397
0.135221
0.134991
0.134711
0.134377
0.133987
0.133541
0.133038
0.132472
0.131846
0.131153
0.130391
0.12956
0.12866
0.127685
0.126636
0.125505
0.12428
0.122921
0.121383
0.119661
0.117746
0.115631
0.113311
0.110781
0.10804
0.105093
0.101942
0.0985909
0.0950394
0.0912441
0.0871114
0.0825231
0.0738226
0.136538
0.136511
0.136463
0.136392
0.136303
0.136189
0.13605
0.135889
0.1357
0.135483
0.135238
0.134958
0.134643
0.134286
0.133882
0.133425
0.132903
0.13231
0.131629
0.130847
0.129942
0.1289
0.127699
0.126324
0.124781
0.123063
0.121135
0.118976
0.116562
0.113879
0.110926
0.107738
0.104344
0.100943
0.097903
0.0964914
0.09995
0.11191
0.139251
0.136551
0.136544
0.136534
0.136494
0.136439
0.136347
0.136211
0.136036
0.135825
0.135576
0.135287
0.134961
0.134594
0.134185
0.133733
0.133234
0.132686
0.132087
0.131435
0.130728
0.129962
0.12913
0.128223
0.127209
0.126055
0.124752
0.123287
0.121651
0.119828
0.117807
0.115578
0.113134
0.110466
0.107566
0.104422
0.100993
0.0971221
0.0929385
0.0839551
0.13719
0.13717
0.137132
0.137076
0.137006
0.136917
0.136809
0.136684
0.136537
0.13637
0.136181
0.135967
0.135725
0.135453
0.135144
0.134794
0.134397
0.133944
0.133424
0.132827
0.132136
0.131339
0.13042
0.129371
0.128195
0.126883
0.125404
0.123734
0.121847
0.119707
0.117284
0.114541
0.111468
0.108055
0.104334
0.100441
0.0976256
0.100209
0.12212
0.1372
0.137192
0.137181
0.137148
0.137105
0.137032
0.136925
0.136785
0.136621
0.136429
0.136208
0.135959
0.135683
0.135376
0.135039
0.134669
0.134262
0.133818
0.133333
0.132806
0.132233
0.131608
0.130923
0.130155
0.129277
0.128282
0.127159
0.125895
0.124476
0.122886
0.121111
0.119136
0.116946
0.114524
0.111847
0.108876
0.10542
0.101718
0.0933572
0.137682
0.137665
0.137635
0.13759
0.137534
0.137462
0.137375
0.137275
0.137159
0.137026
0.136877
0.136708
0.136518
0.136303
0.13606
0.135785
0.135472
0.135115
0.134707
0.13424
0.133702
0.133082
0.132369
0.131555
0.130641
0.12962
0.128468
0.127164
0.125682
0.123991
0.122062
0.11985
0.117309
0.114372
0.110995
0.107006
0.10258
0.0976918
0.109555
0.137689
0.137681
0.13767
0.137641
0.137606
0.137547
0.137459
0.137346
0.137215
0.137062
0.136887
0.136693
0.136479
0.136242
0.135984
0.135701
0.135392
0.135054
0.134686
0.134284
0.133846
0.133367
0.132839
0.132246
0.131568
0.130797
0.129926
0.128941
0.127831
0.126581
0.125174
0.123596
0.121826
0.119845
0.117621
0.115117
0.112135
0.10894
0.101524
0.138064
0.13805
0.138025
0.137987
0.137941
0.137882
0.137811
0.137728
0.137634
0.137526
0.137406
0.137269
0.137116
0.136944
0.13675
0.136531
0.136282
0.135998
0.135674
0.135303
0.134875
0.134382
0.133817
0.133172
0.13245
0.131641
0.130729
0.129695
0.128519
0.127174
0.125631
0.123851
0.121795
0.119392
0.116567
0.113089
0.108972
0.102344
0.104198
0.138069
0.138062
0.13805
0.138024
0.137995
0.137946
0.137873
0.137779
0.137671
0.137547
0.137406
0.137251
0.13708
0.136894
0.136691
0.136471
0.136231
0.135968
0.135683
0.135371
0.13503
0.134656
0.134243
0.133777
0.133244
0.132638
0.131952
0.131176
0.130299
0.129308
0.128189
0.126927
0.125503
0.123896
0.122073
0.12
0.117485
0.114787
0.108405
0.138368
0.138356
0.138335
0.138303
0.138263
0.138214
0.138154
0.138086
0.138007
0.137918
0.137819
0.137707
0.137582
0.137442
0.137284
0.137105
0.136903
0.136672
0.13641
0.136109
0.135764
0.135368
0.134914
0.134397
0.133818
0.13317
0.132437
0.131607
0.130661
0.12958
0.128337
0.1269
0.12523
0.123267
0.120951
0.118061
0.114606
0.10865
0.104141
0.138372
0.138365
0.138353
0.138329
0.138304
0.138263
0.138201
0.138122
0.138032
0.137929
0.137813
0.137687
0.137549
0.137399
0.137237
0.137061
0.136871
0.136664
0.136438
0.136192
0.135923
0.135627
0.135298
0.134927
0.134503
0.13402
0.133473
0.132853
0.132152
0.131358
0.130461
0.129445
0.128296
0.126992
0.125504
0.1238
0.121707
0.119463
0.114091
0.138615
0.138604
0.138586
0.138558
0.138524
0.138482
0.138431
0.138373
0.138307
0.138232
0.138149
0.138056
0.137952
0.137836
0.137705
0.137558
0.137391
0.137202
0.136986
0.13674
0.136457
0.136134
0.135764
0.135344
0.134874
0.134348
0.133754
0.133079
0.132311
0.131431
0.13042
0.129251
0.127889
0.126284
0.124379
0.121994
0.119118
0.11443
0.107427
0.138619
0.138612
0.1386
0.138577
0.138556
0.138521
0.138467
0.1384
0.138324
0.138237
0.13814
0.138035
0.137921
0.137798
0.137667
0.137525
0.137372
0.137205
0.137025
0.136828
0.136612
0.136374
0.13611
0.135811
0.135469
0.135079
0.134637
0.134137
0.13357
0.132928
0.132202
0.131378
0.130444
0.129381
0.128164
0.126764
0.125031
0.123177
0.118728
0.138819
0.138809
0.138792
0.138768
0.138739
0.138702
0.138658
0.138609
0.138552
0.138489
0.138418
0.13834
0.138252
0.138155
0.138046
0.137923
0.137783
0.137626
0.137446
0.137241
0.137007
0.13674
0.136435
0.13609
0.135704
0.135273
0.134785
0.134232
0.133602
0.13288
0.13205
0.131089
0.129971
0.128652
0.12708
0.12512
0.122674
0.119152
0.111922
0.138823
0.138816
0.138804
0.138783
0.138764
0.138733
0.138687
0.138629
0.138563
0.138489
0.138407
0.138318
0.138223
0.138122
0.138013
0.137897
0.137772
0.137637
0.13749
0.13733
0.137155
0.136962
0.136747
0.136503
0.136224
0.135907
0.135546
0.135137
0.134675
0.134151
0.133557
0.132883
0.132118
0.131247
0.130246
0.129093
0.127658
0.126125
0.122478
0.138989
0.13898
0.138965
0.138944
0.138918
0.138886
0.138847
0.138804
0.138756
0.138701
0.138641
0.138574
0.1385
0.138417
0.138325
0.138221
0.138103
0.137971
0.13782
0.137648
0.137452
0.137229
0.136975
0.136688
0.136368
0.136011
0.135607
0.135149
0.134627
0.13403
0.133343
0.132548
0.131622
0.13053
0.129226
0.127614
0.125529
0.12285
0.116381
0.138993
0.138988
0.138976
0.138956
0.138939
0.138911
0.13887
0.13882
0.138762
0.138698
0.138628
0.138553
0.138473
0.138387
0.138296
0.1382
0.138097
0.137986
0.137865
0.137734
0.137591
0.137432
0.137256
0.137055
0.136825
0.136564
0.136267
0.13593
0.135549
0.135117
0.134628
0.134072
0.133441
0.132721
0.131893
0.130939
0.129748
0.128475
0.1255
0.139134
0.139125
0.139112
0.139093
0.139069
0.139041
0.139007
0.13897
0.138927
0.13888
0.138828
0.138771
0.138707
0.138636
0.138557
0.138469
0.138369
0.138256
0.138128
0.137982
0.137817
0.137628
0.137415
0.137175
0.136907
0.136608
0.136271
0.135889
0.135453
0.134955
0.134382
0.133719
0.132947
0.132037
0.130949
0.129615
0.127847
0.125733
0.120296
0.139138
0.139133
0.139122
0.139102
0.139087
0.139062
0.139026
0.138981
0.138931
0.138875
0.138814
0.138749
0.138681
0.138608
0.138532
0.138451
0.138365
0.138272
0.138173
0.138064
0.137945
0.137814
0.137668
0.137501
0.13731
0.137093
0.136847
0.136568
0.136251
0.135892
0.135485
0.135024
0.134499
0.133901
0.133212
0.132417
0.131425
0.130362
0.127938
0.139258
0.13925
0.139237
0.13922
0.139199
0.139173
0.139143
0.139111
0.139074
0.139033
0.138988
0.138938
0.138883
0.138821
0.138753
0.138677
0.138591
0.138494
0.138385
0.138261
0.13812
0.13796
0.137779
0.137575
0.13735
0.137098
0.136814
0.136493
0.136126
0.135708
0.135227
0.13467
0.134022
0.133259
0.132345
0.131233
0.129742
0.128019
0.12356
0.139262
0.139258
0.139247
0.139228
0.139214
0.139192
0.139159
0.139119
0.139075
0.139025
0.138972
0.138916
0.138857
0.138795
0.13873
0.138662
0.138589
0.138511
0.138428
0.138337
0.138238
0.138128
0.138006
0.137867
0.137707
0.137526
0.13732
0.137086
0.136822
0.136521
0.136181
0.135795
0.135356
0.134855
0.134278
0.133612
0.132782
0.13189
0.129914
0.139365
0.139357
0.139345
0.139329
0.13931
0.139287
0.139261
0.139232
0.1392
0.139164
0.139125
0.139081
0.139033
0.138979
0.13892
0.138854
0.13878
0.138696
0.138602
0.138495
0.138374
0.138237
0.138082
0.137909
0.137718
0.137504
0.137264
0.136991
0.136682
0.136328
0.135921
0.135451
0.134904
0.13426
0.133489
0.132554
0.131298
0.129864
0.126233
0.139369
0.139366
0.139355
0.139337
0.139324
0.139303
0.139274
0.139238
0.139199
0.139155
0.139108
0.139059
0.139008
0.138954
0.138898
0.13884
0.138778
0.138713
0.138642
0.138566
0.138482
0.13839
0.138287
0.13817
0.138035
0.137883
0.137709
0.137513
0.137291
0.137038
0.136751
0.136426
0.136057
0.135635
0.135149
0.134588
0.133891
0.133138
0.131522
0.139458
0.139451
0.13944
0.139425
0.139408
0.139387
0.139364
0.139338
0.139309
0.139278
0.139243
0.139205
0.139162
0.139116
0.139064
0.139006
0.138941
0.138869
0.138787
0.138694
0.13859
0.138471
0.138339
0.138191
0.138027
0.137845
0.13764
0.137407
0.137144
0.136843
0.136497
0.136098
0.135634
0.135088
0.134434
0.133643
0.132584
0.131375
0.128415
0.139463
0.13946
0.13945
0.139432
0.139419
0.139401
0.139375
0.139342
0.139306
0.139267
0.139226
0.139183
0.139138
0.139091
0.139043
0.138993
0.13894
0.138884
0.138824
0.138759
0.138689
0.138611
0.138523
0.138424
0.13831
0.13818
0.138034
0.137868
0.13768
0.137466
0.137224
0.136948
0.136635
0.136278
0.135867
0.135392
0.134804
0.134166
0.132841
0.13954
0.139533
0.139522
0.139508
0.139493
0.139474
0.139454
0.139431
0.139405
0.139377
0.139346
0.139312
0.139275
0.139234
0.139188
0.139137
0.139081
0.139017
0.138946
0.138865
0.138774
0.138672
0.138557
0.13843
0.138289
0.138132
0.137957
0.137758
0.137532
0.137274
0.136979
0.136638
0.136242
0.135777
0.135221
0.134549
0.133653
0.132626
0.130203
0.139544
0.139542
0.139533
0.139516
0.139503
0.139486
0.139462
0.139433
0.139401
0.139366
0.139329
0.13929
0.139251
0.13921
0.139168
0.139124
0.139079
0.139031
0.13898
0.138925
0.138864
0.138798
0.138724
0.138639
0.138542
0.138431
0.138307
0.138165
0.138005
0.137824
0.137618
0.137384
0.137117
0.136813
0.136464
0.13606
0.135562
0.135018
0.133928
0.139612
0.139605
0.139595
0.139582
0.139568
0.139551
0.139533
0.139512
0.13949
0.139465
0.139437
0.139407
0.139374
0.139337
0.139297
0.139252
0.139203
0.139147
0.139084
0.139014
0.138934
0.138845
0.138745
0.138635
0.138513
0.138378
0.138226
0.138055
0.137861
0.137639
0.137386
0.137094
0.136754
0.136356
0.135881
0.135307
0.134546
0.133671
0.131678
0.139617
0.139615
0.139606
0.13959
0.139578
0.139562
0.13954
0.139513
0.139484
0.139452
0.139419
0.139385
0.13935
0.139314
0.139277
0.139239
0.1392
0.139158
0.139114
0.139067
0.139015
0.138958
0.138895
0.138822
0.138739
0.138644
0.138538
0.138417
0.13828
0.138125
0.13795
0.13775
0.137522
0.137262
0.136964
0.136619
0.136195
0.13573
0.13483
0.139676
0.139669
0.139659
0.139648
0.139635
0.13962
0.139603
0.139585
0.139564
0.139542
0.139517
0.13949
0.139461
0.139429
0.139393
0.139354
0.13931
0.139261
0.139205
0.139144
0.139074
0.138996
0.138909
0.138812
0.138706
0.138589
0.138458
0.138309
0.138142
0.13795
0.137732
0.13748
0.137188
0.136846
0.136438
0.135946
0.135298
0.13455
0.132905
0.139681
0.13968
0.139671
0.139655
0.139644
0.139629
0.139609
0.139584
0.139558
0.139529
0.139499
0.139468
0.139437
0.139405
0.139373
0.13934
0.139305
0.139269
0.139231
0.13919
0.139146
0.139097
0.139042
0.138979
0.138908
0.138826
0.138735
0.138631
0.138514
0.138381
0.13823
0.138059
0.137864
0.137642
0.137385
0.13709
0.136727
0.136329
0.135581
0.139733
0.139726
0.139716
0.139706
0.139695
0.139681
0.139666
0.139649
0.139631
0.139611
0.139589
0.139565
0.139539
0.139511
0.139479
0.139444
0.139405
0.139362
0.139313
0.139258
0.139197
0.139128
0.139052
0.138967
0.138875
0.138773
0.138658
0.138529
0.138383
0.138218
0.138028
0.13781
0.137558
0.137263
0.136911
0.136488
0.135935
0.135291
0.13395
0.139738
0.139737
0.139729
0.139714
0.139702
0.139688
0.13967
0.139648
0.139623
0.139597
0.13957
0.139543
0.139514
0.139486
0.139457
0.139428
0.139398
0.139367
0.139334
0.139298
0.13926
0.139217
0.13917
0.139115
0.139053
0.138983
0.138904
0.138815
0.138714
0.138599
0.13847
0.138323
0.138155
0.137964
0.137743
0.137489
0.137178
0.136836
0.136212
0.139785
0.139778
0.139768
0.139759
0.139748
0.139736
0.139722
0.139707
0.13969
0.139673
0.139653
0.139632
0.139609
0.139584
0.139556
0.139525
0.139491
0.139452
0.139409
0.139361
0.139306
0.139246
0.139178
0.139104
0.139023
0.138934
0.138834
0.138721
0.138594
0.138449
0.138284
0.138095
0.137876
0.13762
0.137316
0.13695
0.136477
0.135917
0.134843
0.139789
0.139789
0.139781
0.139766
0.139755
0.139742
0.139725
0.139704
0.139682
0.139659
0.139634
0.139609
0.139583
0.139558
0.139533
0.139507
0.13948
0.139453
0.139424
0.139393
0.139359
0.139322
0.139281
0.139234
0.13918
0.139119
0.13905
0.138973
0.138886
0.138787
0.138675
0.138548
0.138404
0.138239
0.138048
0.137829
0.137562
0.137266
0.136743
0.139831
0.139824
0.139815
0.139806
0.139796
0.139785
0.139772
0.139759
0.139744
0.139729
0.139712
0.139693
0.139673
0.139651
0.139626
0.139598
0.139568
0.139534
0.139495
0.139452
0.139404
0.13935
0.139291
0.139225
0.139154
0.139076
0.138988
0.138889
0.138777
0.138651
0.138507
0.138341
0.138151
0.137928
0.137664
0.137348
0.136942
0.136451
0.135593
0.139835
0.139835
0.139828
0.139813
0.139802
0.13979
0.139774
0.139755
0.139735
0.139713
0.139691
0.139668
0.139645
0.139622
0.1396
0.139577
0.139553
0.139529
0.139503
0.139476
0.139447
0.139414
0.139378
0.139337
0.13929
0.139237
0.139177
0.13911
0.139034
0.138949
0.138852
0.138742
0.138617
0.138475
0.13831
0.13812
0.13789
0.137635
0.137194
0.139872
0.139865
0.139857
0.139849
0.13984
0.139829
0.139818
0.139806
0.139794
0.13978
0.139765
0.139749
0.139731
0.139711
0.139689
0.139665
0.139638
0.139607
0.139573
0.139535
0.139492
0.139444
0.139391
0.139333
0.13927
0.139201
0.139124
0.139037
0.138939
0.138828
0.138702
0.138557
0.13839
0.138196
0.137966
0.137691
0.137342
0.13691
0.136219
0.139877
0.139877
0.13987
0.139856
0.139845
0.139833
0.139818
0.139801
0.139783
0.139763
0.139742
0.139721
0.1397
0.13968
0.139659
0.139639
0.139618
0.139596
0.139574
0.13955
0.139524
0.139496
0.139464
0.139428
0.139387
0.13934
0.139288
0.13923
0.139164
0.13909
0.139006
0.13891
0.138802
0.138679
0.138536
0.138371
0.138172
0.137951
0.137579
0.139909
0.139903
0.139895
0.139887
0.139879
0.139869
0.13986
0.13985
0.139839
0.139827
0.139815
0.1398
0.139785
0.139767
0.139747
0.139726
0.139701
0.139674
0.139643
0.139609
0.13957
0.139528
0.139481
0.13943
0.139374
0.139313
0.139245
0.139168
0.139082
0.138984
0.138873
0.138746
0.1386
0.13843
0.138229
0.137989
0.137688
0.137308
0.136744
0.139914
0.139915
0.139909
0.139894
0.139884
0.139872
0.139859
0.139843
0.139825
0.139807
0.139788
0.139769
0.13975
0.139731
0.139713
0.139694
0.139676
0.139656
0.139636
0.139615
0.139592
0.139568
0.13954
0.139508
0.139472
0.139431
0.139386
0.139334
0.139277
0.139212
0.139139
0.139057
0.138963
0.138855
0.138732
0.138589
0.138416
0.138224
0.137908
0.139943
0.139937
0.139929
0.139922
0.139914
0.139906
0.139898
0.13989
0.139881
0.139871
0.13986
0.139848
0.139833
0.139818
0.1398
0.13978
0.139758
0.139734
0.139706
0.139676
0.139641
0.139603
0.139561
0.139516
0.139467
0.139413
0.139352
0.139285
0.139208
0.139122
0.139024
0.138913
0.138784
0.138635
0.13846
0.138249
0.137989
0.137655
0.137189
0.139948
0.139949
0.139943
0.139929
0.139918
0.139908
0.139895
0.13988
0.139864
0.139847
0.139829
0.139812
0.139794
0.139777
0.139761
0.139744
0.139727
0.13971
0.139692
0.139674
0.139654
0.139632
0.139607
0.139579
0.139547
0.139511
0.139472
0.139427
0.139377
0.13932
0.139256
0.139184
0.139102
0.139009
0.138902
0.138777
0.138627
0.13846
0.138192
0.139974
0.139968
0.13996
0.139954
0.139947
0.13994
0.139934
0.139927
0.13992
0.139912
0.139902
0.139891
0.139878
0.139864
0.139848
0.139831
0.139811
0.139789
0.139764
0.139736
0.139706
0.139671
0.139634
0.139593
0.13955
0.139502
0.139448
0.139388
0.139321
0.139245
0.139159
0.13906
0.138947
0.138816
0.138662
0.138478
0.138252
0.137959
0.13757
0.139979
0.139981
0.139975
0.139961
0.13995
0.13994
0.139928
0.139914
0.139899
0.139883
0.139867
0.139851
0.139835
0.139819
0.139804
0.139789
0.139774
0.139759
0.139743
0.139726
0.139708
0.139689
0.139667
0.139643
0.139614
0.139583
0.139548
0.139509
0.139465
0.139415
0.139359
0.139296
0.139225
0.139144
0.13905
0.138942
0.138811
0.138665
0.138437
0.140002
0.139996
0.139989
0.139983
0.139977
0.139972
0.139967
0.139962
0.139956
0.139949
0.13994
0.13993
0.139919
0.139907
0.139892
0.139876
0.139859
0.139839
0.139817
0.139792
0.139764
0.139734
0.1397
0.139664
0.139625
0.139582
0.139534
0.139481
0.139422
0.139354
0.139278
0.139191
0.139091
0.138976
0.138841
0.138679
0.138485
0.138227
0.1379
0.140007
0.140009
0.140003
0.139989
0.139979
0.13997
0.139959
0.139945
0.139931
0.139916
0.139901
0.139886
0.139871
0.139857
0.139843
0.139829
0.139816
0.139802
0.139788
0.139773
0.139758
0.13974
0.139721
0.139699
0.139675
0.139647
0.139616
0.139581
0.139543
0.139499
0.13945
0.139395
0.139333
0.139262
0.13918
0.139086
0.138973
0.138845
0.13865
0.140027
0.140022
0.140015
0.14001
0.140005
0.140002
0.139999
0.139995
0.13999
0.139983
0.139976
0.139967
0.139957
0.139946
0.139933
0.139919
0.139903
0.139885
0.139865
0.139843
0.139818
0.13979
0.13976
0.139728
0.139693
0.139655
0.139613
0.139565
0.139512
0.139452
0.139384
0.139308
0.139219
0.139118
0.138999
0.138856
0.138695
0.138467
0.138188
0.140032
0.140035
0.14003
0.140016
0.140005
0.139997
0.139986
0.139974
0.13996
0.139946
0.139932
0.139917
0.139904
0.139891
0.139878
0.139866
0.139854
0.139842
0.139829
0.139816
0.139802
0.139787
0.13977
0.139751
0.139728
0.139704
0.139677
0.139646
0.139612
0.139574
0.139531
0.139483
0.139428
0.139366
0.139295
0.139212
0.139114
0.139002
0.138835
0.140051
0.140045
0.140039
0.140034
0.140031
0.14003
0.140028
0.140025
0.140021
0.140015
0.140009
0.140001
0.139992
0.139982
0.139971
0.139958
0.139944
0.139928
0.13991
0.13989
0.139868
0.139843
0.139816
0.139787
0.139756
0.139721
0.139684
0.139641
0.139594
0.139541
0.13948
0.139412
0.139334
0.139244
0.13914
0.139012
0.138881
0.138682
0.138444
0.140056
0.140059
0.140054
0.14004
0.140029
0.140021
0.140011
0.139999
0.139986
0.139973
0.139959
0.139946
0.139934
0.139922
0.139911
0.1399
0.139889
0.139878
0.139867
0.139855
0.139843
0.139829
0.139814
0.139797
0.139777
0.139755
0.139731
0.139704
0.139674
0.139641
0.139603
0.139561
0.139513
0.139458
0.139396
0.139324
0.139238
0.13914
0.138997
0.140072
0.140067
0.140061
0.140057
0.140056
0.140056
0.140055
0.140053
0.140049
0.140045
0.140039
0.140033
0.140025
0.140016
0.140007
0.139995
0.139983
0.139968
0.139952
0.139934
0.139914
0.139892
0.139867
0.139841
0.139813
0.139782
0.139749
0.139711
0.139668
0.139621
0.139567
0.139506
0.139437
0.139357
0.139265
0.139151
0.139045
0.138872
0.13867
0.140077
0.140081
0.140076
0.140061
0.140052
0.140044
0.140034
0.140023
0.14001
0.139997
0.139985
0.139973
0.139961
0.13995
0.13994
0.13993
0.13992
0.139911
0.139901
0.13989
0.139879
0.139867
0.139854
0.139838
0.139821
0.139802
0.13978
0.139756
0.13973
0.1397
0.139667
0.13963
0.139588
0.13954
0.139485
0.139422
0.139347
0.139262
0.139138
0.140092
0.140087
0.140081
0.140079
0.14008
0.140081
0.140081
0.140079
0.140076
0.140072
0.140068
0.140063
0.140056
0.140049
0.14004
0.14003
0.140019
0.140006
0.139991
0.139975
0.139957
0.139937
0.139915
0.139891
0.139866
0.139839
0.139808
0.139774
0.139736
0.139694
0.139646
0.139592
0.13953
0.139459
0.139379
0.13928
0.139191
0.139041
0.138869
0.140096
0.140101
0.140096
0.140081
0.140072
0.140064
0.140055
0.140044
0.140032
0.14002
0.140008
0.139997
0.139986
0.139977
0.139967
0.139958
0.13995
0.139941
0.139932
0.139923
0.139913
0.139902
0.13989
0.139876
0.139861
0.139843
0.139824
0.139803
0.139779
0.139753
0.139724
0.139691
0.139654
0.139612
0.139564
0.139509
0.139444
0.139369
0.139263
0.14011
0.140105
0.140099
0.1401
0.140102
0.140104
0.140104
0.140103
0.140101
0.140099
0.140095
0.140091
0.140085
0.140079
0.140071
0.140063
0.140052
0.140041
0.140028
0.140013
0.139997
0.139978
0.139959
0.139937
0.139915
0.13989
0.139863
0.139833
0.139799
0.139761
0.139718
0.139669
0.139614
0.139551
0.139484
0.1394
0.139324
0.139191
0.139045
0.140114
0.140119
0.140114
0.140099
0.14009
0.140083
0.140074
0.140063
0.140051
0.14004
0.140029
0.140019
0.14001
0.140001
0.139992
0.139984
0.139976
0.139968
0.13996
0.139952
0.139943
0.139933
0.139923
0.13991
0.139896
0.139881
0.139864
0.139845
0.139824
0.139801
0.139775
0.139746
0.139713
0.139677
0.139635
0.139586
0.139529
0.139464
0.139373
0.140126
0.140121
0.140117
0.14012
0.140124
0.140125
0.140126
0.140126
0.140125
0.140123
0.140121
0.140118
0.140113
0.140108
0.140101
0.140093
0.140084
0.140074
0.140062
0.140049
0.140034
0.140018
0.14
0.139981
0.13996
0.139938
0.139914
0.139886
0.139856
0.139822
0.139783
0.13974
0.139691
0.139637
0.13958
0.139511
0.139446
0.139327
0.139202
0.14013
0.140136
0.140131
0.140116
0.140107
0.140101
0.140092
0.140081
0.140069
0.140059
0.140049
0.140039
0.140031
0.140023
0.140015
0.140008
0.140001
0.139994
0.139986
0.139979
0.139971
0.139962
0.139952
0.139941
0.139929
0.139915
0.1399
0.139883
0.139865
0.139844
0.139821
0.139796
0.139767
0.139734
0.139697
0.139655
0.139605
0.139548
0.139469
0.140142
0.140136
0.140133
0.140139
0.140143
0.140144
0.140146
0.140147
0.140147
0.140147
0.140145
0.140143
0.140139
0.140134
0.140129
0.140122
0.140114
0.140105
0.140095
0.140083
0.14007
0.140055
0.140039
0.140021
0.140003
0.139983
0.139961
0.139936
0.139909
0.139878
0.139844
0.139805
0.139763
0.139718
0.13967
0.139612
0.139558
0.139452
0.139343
0.140145
0.140151
0.140147
0.140131
0.140123
0.140116
0.140107
0.140096
0.140086
0.140076
0.140067
0.140058
0.140051
0.140043
0.140036
0.14003
0.140023
0.140017
0.14001
0.140003
0.139996
0.139988
0.13998
0.13997
0.139959
0.139946
0.139933
0.139918
0.139902
0.139884
0.139864
0.139841
0.139816
0.139787
0.139755
0.139717
0.139674
0.139623
0.139555
0.140156
0.14015
0.140149
0.140158
0.14016
0.140162
0.140165
0.140167
0.140168
0.140168
0.140167
0.140166
0.140163
0.140159
0.140155
0.140149
0.140143
0.140135
0.140127
0.140117
0.140105
0.140092
0.140077
0.140061
0.140045
0.140026
0.140006
0.139983
0.139958
0.139931
0.1399
0.139867
0.139832
0.139794
0.139754
0.139705
0.139658
0.139565
0.13947
0.140158
0.140164
0.14016
0.140144
0.140137
0.140131
0.140121
0.140111
0.140101
0.140092
0.140084
0.140076
0.140069
0.140062
0.140056
0.14005
0.140044
0.140038
0.140032
0.140026
0.140019
0.140012
0.140005
0.139996
0.139987
0.139976
0.139964
0.139951
0.139937
0.139922
0.139904
0.139884
0.139862
0.139837
0.139808
0.139775
0.139737
0.139691
0.139636
0.140168
0.140163
0.140163
0.140173
0.140175
0.140177
0.140181
0.140183
0.140184
0.140185
0.140185
0.140185
0.140183
0.140181
0.140178
0.140175
0.14017
0.140165
0.140159
0.140151
0.140142
0.140132
0.14012
0.140108
0.140093
0.140076
0.140057
0.140036
0.140013
0.139987
0.13996
0.139932
0.139901
0.139868
0.139833
0.13979
0.139749
0.139668
0.139586
0.14017
0.140174
0.14017
0.140156
0.14015
0.140144
0.140134
0.140124
0.140114
0.140107
0.140099
0.140092
0.140086
0.140079
0.140073
0.140068
0.140063
0.140057
0.140052
0.140047
0.140041
0.140035
0.140029
0.140022
0.140014
0.140006
0.139996
0.139985
0.139973
0.13996
0.139945
0.139927
0.139908
0.139886
0.13986
0.139831
0.139797
0.139755
0.139715
0.140178
0.140174
0.140176
0.140184
0.140186
0.140188
0.140191
0.140193
0.140195
0.140196
0.140196
0.140197
0.140197
0.140196
0.140195
0.140193
0.140191
0.140189
0.140185
0.140181
0.140176
0.14017
0.140164
0.140156
0.140146
0.140134
0.140119
0.140102
0.140082
0.140059
0.140034
0.140007
0.139977
0.139945
0.139911
0.139871
0.139833
0.139764
0.139692
0.140178
0.14018
0.140176
0.140166
0.14016
0.140154
0.140145
0.140135
0.140127
0.14012
0.140113
0.140107
0.140101
0.140095
0.14009
0.140085
0.14008
0.140076
0.140072
0.140067
0.140063
0.140058
0.140054
0.140049
0.140043
0.140036
0.140028
0.14002
0.14001
0.139998
0.139985
0.139971
0.139954
0.139934
0.139912
0.139886
0.139856
0.139817
0.139786
0.140184
0.140183
0.140185
0.14019
0.140192
0.140195
0.140197
0.140199
0.140201
0.140203
0.140204
0.140205
0.140205
0.140206
0.140205
0.140205
0.140204
0.140203
0.140201
0.140199
0.140197
0.140193
0.14019
0.140185
0.14018
0.140174
0.140165
0.140155
0.140142
0.140126
0.140107
0.140084
0.140058
0.140027
0.139994
0.139954
0.139916
0.139856
0.139791
0.140183
0.140183
0.14018
0.140172
0.140166
0.140161
0.140154
0.140145
0.140139
0.140132
0.140126
0.14012
0.140114
0.14011
0.140105
0.140101
0.140097
0.140094
0.14009
0.140087
0.140084
0.140081
0.140078
0.140075
0.140071
0.140066
0.140059
0.140052
0.140044
0.140035
0.140025
0.140013
0.139999
0.139983
0.139964
0.139941
0.139914
0.139879
0.139854
0.140188
0.140188
0.14019
0.140194
0.140197
0.140199
0.140202
0.140204
0.140206
0.140208
0.140209
0.140211
0.140211
0.140212
0.140213
0.140213
0.140213
0.140212
0.140212
0.140211
0.140209
0.140208
0.140206
0.140203
0.1402
0.140197
0.140192
0.140187
0.14018
0.140171
0.14016
0.140145
0.140127
0.140103
0.140075
0.140039
0.140002
0.139947
0.139887
0.140186
0.140186
0.140182
0.140175
0.140169
0.140164
0.140159
0.140153
0.140147
0.140142
0.140136
0.140131
0.140126
0.140122
0.140118
0.140115
0.140112
0.140109
0.140107
0.140104
0.140102
0.1401
0.140098
0.140095
0.140092
0.140087
0.140082
0.140077
0.140071
0.140064
0.140056
0.140048
0.140038
0.140026
0.140012
0.139993
0.139972
0.13994
0.139919
0.14019
0.140191
0.140193
0.140197
0.140199
0.140202