/*--------------------------------*- C++ -*----------------------------------*\
  =========                 |
  \\      /  F ield         | OpenFOAM: The Open Source CFD Toolbox
   \\    /   O peration     | Website:  https://openfoam.org
    \\  /    A nd           | Version:  12
     \\/     M anipulation  |
\*---------------------------------------------------------------------------*/
FoamFile
{
    format      ascii;
    class       surfaceScalarField;
    location    "200";
    object      phi;
}
// * * * * * * * * * * * * * * * * * * * * * * * * * * * * * * * * * * * * * //

dimensions      [0 3 -1 0 0 0 0];

internalField   nonuniform List<scalar> 
21254
(
-0.240981
0.260504
-0.0195227
0.282474
-0.0219706
0.301294
-0.0188199
0.318067
-0.0167724
0.333932
-0.0158656
0.346569
-0.0126369
0.356524
-0.00995428
0.364601
-0.00807785
0.369883
-0.00528147
0.37344
-0.003557
0.375525
-0.00208457
0.37597
-0.000445627
0.375141
0.000829312
0.372991
0.00215037
0.369457
0.00353372
0.364829
0.00462781
0.358931
0.00589859
0.351869
0.00706156
0.343511
0.00835816
0.334099
0.00941136
0.323321
0.0107784
0.311759
0.0115625
0.299686
0.0120726
0.288413
0.0112727
0.27914
0.0092739
0.271179
0.00796051
0.263404
0.00777506
0.255498
0.00790587
0.247127
0.00837069
0.238204
0.00892308
0.228703
0.00950138
0.218615
0.0100881
0.207875
0.0107403
0.196243
0.0116314
0.183193
0.01305
0.167667
0.0155269
0.147309
0.0203581
0.116714
0.0305965
0.0951373
0.021591
-0.217885
-0.0230966
-0.19399
-0.0238949
-0.164549
-0.029441
-0.132186
-0.0323626
-0.0980147
-0.0341713
-0.0626321
-0.0353827
-0.0276181
-0.0350139
0.00491041
-0.0325285
0.0343851
-0.0294747
0.0605023
-0.0261172
0.0828371
-0.0223348
0.101807
-0.0189694
0.117764
-0.0159578
0.131078
-0.0133141
0.142468
-0.01139
0.152268
-0.00979918
0.160957
-0.00868993
0.168776
-0.00781831
0.176036
-0.0072599
0.182863
-0.00682697
0.189429
-0.00656618
0.195726
-0.00629733
0.201687
-0.0059607
0.206685
-0.00499784
0.210533
-0.00384802
0.213509
-0.00297645
0.215611
-0.00210202
0.216956
-0.00134477
0.217556
-0.000599911
0.217353
0.00020229
0.216255
0.00109802
0.214397
0.00185794
0.211904
0.00249321
0.208838
0.00306609
0.205058
0.00377977
0.200139
0.0049187
0.192903
0.00723613
0.178014
0.0148891
0.155393
0.0226205
-0.219921
0.241489
-0.0410904
0.26354
-0.044022
0.286555
-0.0418343
0.308016
-0.0382336
0.328946
-0.0367955
0.348328
-0.0320191
0.365763
-0.027389
0.381511
-0.0238259
0.395166
-0.0189363
0.406787
-0.0151788
0.416397
-0.0116942
0.424128
-0.00817694
0.430292
-0.00533375
0.43505
-0.00260806
0.438289
0.000294983
0.439691
0.00322598
0.439178
0.00641118
0.436875
0.00936425
0.432281
0.0129523
0.425689
0.0160037
0.4167
0.0197667
0.405613
0.02265
0.392424
0.0252614
0.377777
0.0259203
0.362939
0.0241111
0.348359
0.0225407
0.334133
0.0220009
0.320484
0.0215555
0.307232
0.0216228
0.294233
0.021922
0.281281
0.0224539
0.268216
0.0231528
0.25479
0.0241665
0.240791
0.025631
0.225823
0.0280186
0.208891
0.0324592
0.188721
0.0405283
0.156439
0.0628795
0.113075
0.064964
-0.197871
-0.0451463
-0.174244
-0.047522
-0.146577
-0.0571081
-0.117302
-0.0616381
-0.0862007
-0.0652723
-0.0537077
-0.0678756
-0.0213507
-0.0673709
0.00962072
-0.0635
0.0380695
-0.0579234
0.0634009
-0.0514486
0.0855166
-0.0444505
0.104719
-0.0381719
0.121448
-0.0326865
0.135929
-0.027795
0.148601
-0.0240626
0.159767
-0.0209643
0.169716
-0.018639
0.178757
-0.0168597
0.187145
-0.0156481
0.194994
-0.0146752
0.202462
-0.0140345
0.209621
-0.0134565
0.216398
-0.0127376
0.222333
-0.0109335
0.227153
-0.00866739
0.23106
-0.00688373
0.234052
-0.00509361
0.236179
-0.00347189
0.23749
-0.00191093
0.238132
-0.00044074
0.238206
0.00102424
0.237651
0.00241287
0.236339
0.00380561
0.234225
0.00517949
0.231254
0.00675037
0.227182
0.00899097
0.221991
0.0124262
0.211069
0.0258108
0.190029
0.0436607
-0.213402
0.235145
-0.0628326
0.257042
-0.0659194
0.280669
-0.0654616
0.302272
-0.0598359
0.322809
-0.0573327
0.342466
-0.0516762
0.35995
-0.0448734
0.375674
-0.0395496
0.389194
-0.0324559
0.400796
-0.0267808
0.41051
-0.0214086
0.418502
-0.0161683
0.424598
-0.0114303
0.429277
-0.00728691
0.432285
-0.00271282
0.434364
0.00114745
0.435202
0.00557289
0.435149
0.00941736
0.433875
0.0142266
0.431319
0.0185589
0.427368
0.0237181
0.42185
0.0281678
0.414739
0.0323724
0.406131
0.0345291
0.396543
0.0336983
0.38604
0.0330444
0.37451
0.033531
0.362099
0.0339662
0.34898
0.0347419
0.335249
0.0356524
0.321055
0.0366482
0.306428
0.0377793
0.291313
0.0392819
0.275535
0.0414085
0.258708
0.0448462
0.239836
0.0513312
0.217741
0.062623
0.184756
0.0958658
0.137155
0.112571
-0.191519
-0.0670294
-0.167529
-0.0715119
-0.138821
-0.0858163
-0.108937
-0.0915225
-0.0776982
-0.0965107
-0.0452584
-0.100315
-0.0132307
-0.0993986
0.0167164
-0.093447
0.0442473
-0.0854543
0.0691958
-0.0763971
0.0912609
-0.0665156
0.110603
-0.0575135
0.127578
-0.0496618
0.14246
-0.0426776
0.155562
-0.0371638
0.167218
-0.0326207
0.177696
-0.0291165
0.187261
-0.0264249
0.196122
-0.0245095
0.204444
-0.0229974
0.212412
-0.0220025
0.22004
-0.0210844
0.227236
-0.0199335
0.233699
-0.0173962
0.239142
-0.0141103
0.243667
-0.011409
0.247332
-0.00875896
0.250169
-0.00630907
0.252243
-0.00398433
0.253546
-0.0017441
0.254151
0.000419657
0.25405
0.0025133
0.253268
0.00458845
0.25173
0.00671733
0.249333
0.00914734
0.245692
0.0126316
0.240381
0.0177375
0.2297
0.0364909
0.20971
0.0636514
-0.205846
0.228597
-0.0855829
0.251405
-0.0887275
0.276478
-0.0905345
0.299357
-0.082715
0.321523
-0.0794992
0.34276
-0.0729131
0.362249
-0.0643616
0.379803
-0.0571035
0.395637
-0.0482899
0.409527
-0.0406708
0.421589
-0.0334713
0.431822
-0.0264012
0.440257
-0.019865
0.44693
-0.0139602
0.452163
-0.00794611
0.455587
-0.00227587
0.457345
0.00381467
0.457195
0.00956775
0.455461
0.0159601
0.452022
0.021998
0.447025
0.0287157
0.440718
0.0344744
0.433232
0.0398587
0.425072
0.0426891
0.416669
0.0421007
0.40808
0.041633
0.398934
0.0426775
0.38908
0.0438204
0.378337
0.0454843
0.366529
0.0474613
0.353648
0.049529
0.339684
0.0517435
0.324638
0.0543284
0.308386
0.0576604
0.290676
0.0625572
0.270561
0.0714461
0.24679
0.0863952
0.212503
0.130154
0.16423
0.160849
-0.183377
-0.0894985
-0.159274
-0.095615
-0.130028
-0.115062
-0.099998
-0.121553
-0.0686825
-0.127826
-0.0361276
-0.13287
-0.00417095
-0.131355
0.025407
-0.123025
0.0524349
-0.112482
0.0769866
-0.100949
0.0987222
-0.0882513
0.117881
-0.0766727
0.134874
-0.0666538
0.149938
-0.0577416
0.16339
-0.0506165
0.175456
-0.0446867
0.186425
-0.0400855
0.196476
-0.0364759
0.20584
-0.0338729
0.214655
-0.0318123
0.223033
-0.030381
0.231041
-0.0290924
0.238619
-0.0275114
0.245448
-0.0242252
0.251287
-0.0199489
0.256195
-0.0163175
0.260218
-0.0127819
0.263404
-0.00949513
0.265785
-0.00636588
0.267419
-0.00337805
0.268334
-0.000494863
0.268554
0.002293
0.268078
0.00506385
0.266892
0.00790369
0.264874
0.0111646
0.261646
0.0158593
0.256616
0.0227675
0.246438
0.0466681
0.226797
0.0832924
-0.201755
0.225324
-0.109151
0.249018
-0.112422
0.27551
-0.117026
0.299161
-0.106366
0.322357
-0.102695
0.344702
-0.0952586
0.365097
-0.0847563
0.383644
-0.0756501
0.400643
-0.0652888
0.415437
-0.0554648
0.428419
-0.0464534
0.439526
-0.0375086
0.449036
-0.0293751
0.456616
-0.0215397
0.462445
-0.0137751
0.466524
-0.00635508
0.46901
0.00132885
0.469942
0.00863574
0.469074
0.0168276
0.466671
0.0244016
0.462585
0.0328015
0.456956
0.0401033
0.45002
0.0467946
0.442175
0.0505348
0.433994
0.050281
0.425687
0.0499407
0.417106
0.0512583
0.408188
0.0527381
0.398792
0.0548808
0.388748
0.057505
0.377809
0.0604683
0.365745
0.0638073
0.352341
0.0677325
0.337307
0.0726941
0.320233
0.0796313
0.300239
0.0914397
0.275893
0.110741
0.240894
0.165153
0.192526
0.209222
-0.178244
-0.113009
-0.153436
-0.120424
-0.12295
-0.145548
-0.0920915
-0.152411
-0.0600684
-0.159849
-0.0268961
-0.166043
0.00548146
-0.163733
0.0351123
-0.152656
0.0619656
-0.139335
0.0862668
-0.12525
0.107717
-0.109702
0.126655
-0.0956109
0.143575
-0.0835733
0.158686
-0.0728524
0.172301
-0.0642314
0.184681
-0.0570675
0.196004
-0.0514081
0.206451
-0.0469232
0.216217
-0.0436384
0.225439
-0.0410339
0.23421
-0.0391521
0.24257
-0.0374531
0.250486
-0.0354269
0.257681
-0.0314208
0.263897
-0.0261642
0.269163
-0.0215844
0.273515
-0.017133
0.277002
-0.0129826
0.279654
-0.00901761
0.281503
-0.00522684
0.282589
-0.00158097
0.282966
0.00191594
0.282627
0.00540223
0.281536
0.00899555
0.279638
0.0130624
0.276543
0.018954
0.271647
0.027664
0.262016
0.0562988
0.243038
0.10227
-0.198458
0.223044
-0.133737
0.248067
-0.137445
0.275939
-0.144898
0.3008
-0.131227
0.325016
-0.126911
0.348736
-0.118979
0.3701
-0.10612
0.389931
-0.0954804
0.407915
-0.0832736
0.423939
-0.0714883
0.43823
-0.0607448
0.4506
-0.0498781
0.46127
-0.0400451
0.470216
-0.0304864
0.477299
-0.0208578
0.482833
-0.011889
0.486439
-0.00227665
0.48821
0.0068647
0.488256
0.0167816
0.4864
0.0262571
0.482695
0.0365069
0.477364
0.0454349
0.470559
0.0535993
0.462702
0.058391
0.45431
0.0586731
0.445646
0.0586047
0.436665
0.0602393
0.427382
0.0620215
0.417801
0.0644623
0.40785
0.0674562
0.397457
0.0708611
0.386391
0.0748734
0.374382
0.0797425
0.360998
0.0860785
0.345623
0.0950063
0.327071
0.109992
0.303721
0.134091
0.269351
0.199524
0.221507
0.25707
-0.173979
-0.137488
-0.148354
-0.146049
-0.116559
-0.177343
-0.0845607
-0.184409
-0.0515393
-0.192871
-0.0174387
-0.200143
0.015648
-0.196819
0.0456226
-0.18263
0.0725728
-0.166286
0.0968031
-0.14948
0.118076
-0.130975
0.136798
-0.114333
0.153566
-0.100341
0.168635
-0.0879215
0.182311
-0.0779071
0.19485
-0.0696063
0.206412
-0.0629704
0.217189
-0.0577001
0.227306
-0.0537557
0.236891
-0.050619
0.246035
-0.0482959
0.254758
-0.0461766
0.263008
-0.0436764
0.270598
-0.039011
0.277201
-0.0327671
0.282808
-0.0271912
0.287503
-0.021828
0.291281
-0.0167609
0.29419
-0.0119269
0.29626
-0.00729659
0.297528
-0.00284945
0.298021
0.0014228
0.297745
0.00567824
0.296715
0.0100251
0.294782
0.014995
0.291654
0.0220824
0.286639
0.0326785
0.277294
0.0656429
0.25902
0.120544
-0.19646
0.222376
-0.159654
0.248437
-0.163505
0.27788
-0.174341
0.30402
-0.157368
0.329497
-0.152387
0.354295
-0.143777
0.376835
-0.128661
0.397519
-0.116164
0.416557
-0.102312
0.433525
-0.0884554
0.448651
-0.0758714
0.462078
-0.0633044
0.473668
-0.0516358
0.483487
-0.0403048
0.491595
-0.0289659
0.497812
-0.0181065
0.502294
-0.00675795
0.504941
0.00421729
0.505778
0.0159446
0.504741
0.0272944
0.50187
0.0393782
0.497227
0.0500775
0.491138
0.059688
0.483788
0.0657419
0.475684
0.0667764
0.467067
0.0672226
0.457941
0.0693652
0.448341
0.0716215
0.438352
0.074451
0.427942
0.0778658
0.41712
0.0816833
0.405842
0.0861508
0.39398
0.091605
0.381199
0.0988593
0.366992
0.109212
0.350153
0.126832
0.328846
0.155399
0.296788
0.231582
0.250491
0.303369
-0.170773
-0.163176
-0.144042
-0.172779
-0.110799
-0.210586
-0.0774931
-0.217715
-0.0432722
-0.227092
-0.00793053
-0.235485
0.0261271
-0.230877
0.0567584
-0.213262
0.0840562
-0.193584
0.108441
-0.173865
0.129643
-0.152177
0.148215
-0.132905
0.164834
-0.11696
0.179796
-0.102884
0.193438
-0.0915489
0.206043
-0.0822121
0.21778
-0.0747074
0.228789
-0.068709
0.239202
-0.0641685
0.24911
-0.0605271
0.258583
-0.0577691
0.267635
-0.0552285
0.276242
-0.0522827
0.284157
-0.0469265
0.291153
-0.0397627
0.29715
-0.0331889
0.30217
-0.0268482
0.306263
-0.0208532
0.309429
-0.0150928
0.31173
-0.00959772
0.313166
-0.00428559
0.313795
0.000794278
0.313622
0.00585043
0.312597
0.0110508
0.310663
0.0169284
0.307441
0.0253052
0.30224
0.0378793
0.292975
0.0749076
0.275323
0.138196
-0.195188
0.22244
-0.186906
0.249936
-0.191001
0.281064
-0.20547
0.308406
-0.18471
0.335174
-0.179155
0.361227
-0.16983
0.384787
-0.152221
0.406687
-0.138063
0.426541
-0.122167
0.444446
-0.106359
0.460625
-0.0920509
0.474915
-0.0775943
0.487389
-0.0641103
0.498166
-0.0510813
0.507176
-0.0379763
0.514376
-0.0253057
0.519791
-0.0121733
0.523351
0.000657288
0.524968
0.0143273
0.524647
0.027616
0.522471
0.0415535
0.518444
0.0541047
0.512806
0.0653257
0.505912
0.0726361
0.498086
0.0746021
0.489588
0.0757206
0.480475
0.0784787
0.470749
0.0813471
0.460457
0.0847432
0.449662
0.0886612
0.438314
0.093031
0.426463
0.0980021
0.414017
0.104051
0.400879
0.111998
0.386657
0.123435
0.370505
0.142983
0.350913
0.174992
0.322071
0.260424
0.278527
0.346916
-0.168271
-0.190093
-0.140382
-0.200668
-0.105425
-0.245544
-0.0705986
-0.252542
-0.0349519
-0.262738
0.00175995
-0.272197
0.0370391
-0.266156
0.0685391
-0.244762
0.0963746
-0.221419
0.121052
-0.198543
0.142334
-0.173459
0.160827
-0.151397
0.177318
-0.133451
0.192153
-0.117718
0.205713
-0.105109
0.21834
-0.0948393
0.23015
-0.0865176
0.241323
-0.0798814
0.251954
-0.0747992
0.262133
-0.070707
0.271891
-0.0675271
0.28127
-0.0646071
0.290205
-0.0612173
0.298488
-0.0552101
0.305853
-0.047128
0.312218
-0.0395533
0.317593
-0.0322229
0.322006
-0.0252664
0.325451
-0.0185377
0.32797
-0.0121172
0.32961
-0.00592528
0.330372
3.20334e-05
0.330287
0.00593461
0.329311
0.0120273
0.327329
0.01891
0.324014
0.0286199
0.318641
0.0432514
0.309374
0.0841743
0.292332
0.155238
-0.194763
0.223383
-0.215525
0.252327
-0.219945
0.285155
-0.238297
0.313889
-0.213444
0.34213
-0.207395
0.369543
-0.197242
0.394327
-0.177005
0.417113
-0.160849
0.438086
-0.14314
0.456827
-0.125101
0.473717
-0.108941
0.488827
-0.0927042
0.502169
-0.0774524
0.513752
-0.062664
0.523576
-0.0478011
0.531665
-0.0333941
0.537882
-0.0183906
0.542183
-0.00364388
0.544557
0.0119539
0.544956
0.0272167
0.543461
0.0430482
0.540113
0.0574533
0.535079
0.0703598
0.528673
0.0790419
0.521227
0.0820484
0.512947
0.0840006
0.503887
0.087539
0.494119
0.0911145
0.483706
0.0951562
0.472639
0.0997284
0.460928
0.104742
0.448576
0.110354
0.435528
0.117099
0.42167
0.125856
0.406781
0.138324
0.390224
0.159541
0.371112
0.194104
0.345078
0.286458
0.304733
0.387263
-0.166355
-0.218502
-0.137112
-0.22991
-0.100379
-0.282277
-0.0639931
-0.288928
-0.0266922
-0.300039
0.0115958
-0.310485
0.0483392
-0.302899
0.0808901
-0.277312
0.109448
-0.249977
0.134596
-0.22369
0.156078
-0.19494
0.174598
-0.169917
0.191015
-0.149869
0.205735
-0.132438
0.219194
-0.118567
0.231752
-0.107397
0.243595
-0.0983606
0.254857
-0.0911432
0.265642
-0.0855848
0.27604
-0.0811044
0.286081
-0.0775688
0.295731
-0.0742569
0.304973
-0.0704589
0.313609
-0.0638462
0.321364
-0.0548832
0.328082
-0.046271
0.333813
-0.0379546
0.338529
-0.0299821
0.342275
-0.0222837
0.345048
-0.0148903
0.346877
-0.00775441
0.347798
-0.000888989
0.3478
0.00593308
0.346867
0.0129601
0.344884
0.0208932
0.341494
0.0320103
0.335933
0.0488119
0.326684
0.0934241
0.310243
0.171679
-0.194781
0.225015
-0.245759
0.255509
-0.250439
0.290233
-0.273021
0.320426
-0.243637
0.349955
-0.236925
0.378844
-0.226131
0.404803
-0.202964
0.428732
-0.184779
0.450693
-0.165101
0.470316
-0.144723
0.488065
-0.12669
0.504054
-0.108694
0.518105
-0.0915032
0.530408
-0.0749674
0.541099
-0.0584916
0.549895
-0.0421901
0.556892
-0.0253874
0.561949
-0.00870074
0.565122
0.00878092
0.566309
0.0260291
0.565429
0.0439283
0.562732
0.0601507
0.558279
0.0748132
0.552378
0.0849426
0.545285
0.0891407
0.537175
0.0921106
0.528223
0.0964915
0.518473
0.100864
0.507921
0.105708
0.496674
0.110975
0.484684
0.116732
0.471927
0.123112
0.458364
0.130662
0.443873
0.140347
0.42823
0.153967
0.410816
0.176955
0.391098
0.213822
0.366562
0.310995
0.328992
0.424835
-0.165002
-0.248281
-0.134293
-0.260619
-0.0955987
-0.320971
-0.0573526
-0.327174
-0.01837
-0.339022
0.0217547
-0.350609
0.0600286
-0.341173
0.0938207
-0.311105
0.123274
-0.27943
0.149061
-0.249478
0.170866
-0.216746
0.189486
-0.188537
0.205897
-0.16628
0.220528
-0.147069
0.233877
-0.131917
0.246358
-0.119878
0.258166
-0.110168
0.269455
-0.102432
0.280365
-0.0964947
0.290928
-0.0916673
0.301153
-0.0877939
0.31108
-0.0841835
0.320626
-0.0800059
0.329593
-0.0728129
0.337697
-0.0629868
0.344798
-0.0533725
0.350862
-0.0440189
0.355922
-0.035042
0.359953
-0.026314
0.362979
-0.0179165
0.365034
-0.00981011
0.366099
-0.00195432
0.366221
0.00581103
0.365345
0.0138359
0.363343
0.0228954
0.359864
0.035489
0.354182
0.0544933
0.344973
0.102633
0.329109
0.187543
-0.195422
0.227226
-0.277564
0.259299
-0.282512
0.295953
-0.309675
0.32783
-0.275514
0.358979
-0.268074
0.389342
-0.256495
0.416448
-0.230069
0.441609
-0.20994
0.464609
-0.1881
0.485176
-0.165291
0.503718
-0.145232
0.520344
-0.12532
0.535197
-0.106356
0.548347
-0.0881174
0.559628
-0.0697727
0.569201
-0.0517632
0.576918
-0.0331051
0.582765
-0.0145469
0.586598
0.00494735
0.588456
0.0241711
0.588295
0.0440891
0.586177
0.0622693
0.582303
0.0786866
0.576913
0.0903327
0.570222
0.0958322
0.562417
0.0999153
0.553585
0.105324
0.543806
0.110643
0.533207
0.116308
0.521745
0.122437
0.509484
0.128993
0.496397
0.136199
0.482401
0.144658
0.467361
0.155387
0.451017
0.170311
0.432797
0.195175
0.412022
0.234597
0.387804
0.335213
0.35207
0.460571
-0.163966
-0.279737
-0.13175
-0.292835
-0.0909805
-0.361741
-0.0508029
-0.367351
-0.00985523
-0.379969
0.0321362
-0.392601
0.0721744
-0.381212
0.107358
-0.346288
0.137878
-0.30995
0.16438
-0.27598
0.186651
-0.239017
0.205483
-0.207369
0.221964
-0.182761
0.236539
-0.161644
0.249792
-0.14517
0.262173
-0.13226
0.273916
-0.121911
0.285208
-0.113725
0.296147
-0.107433
0.306821
-0.102342
0.31725
-0.0982228
0.3274
-0.0943331
0.337204
-0.0898097
0.346499
-0.0821088
0.354954
-0.0714417
0.362408
-0.0608263
0.36884
-0.0504507
0.374222
-0.0404244
0.378568
-0.0306602
0.381857
-0.0212047
0.384113
-0.012066
0.385373
-0.00321425
0.385602
0.00558138
0.384791
0.0146471
0.382779
0.0249076
0.37925
0.0390185
0.373432
0.0603115
0.36428
0.111786
0.349052
0.202771
-0.196382
0.229987
-0.311169
0.263821
-0.316346
0.302515
-0.348369
0.335994
-0.308993
0.368757
-0.300836
0.400708
-0.288446
0.429323
-0.258685
0.455622
-0.236239
0.479697
-0.212175
0.50117
-0.186764
0.520613
-0.164675
0.538106
-0.142813
0.553576
-0.121826
0.567349
-0.101891
0.579405
-0.0818282
0.589665
-0.0620238
0.598043
-0.0414828
0.604523
-0.0210262
0.609037
0.000433004
0.611585
0.0216229
0.6121
0.043574
0.610645
0.0637248
0.607354
0.0819773
0.602462
0.0952249
0.596159
0.102135
0.58863
0.107445
0.57995
0.114003
0.570245
0.120349
0.559552
0.127001
0.547943
0.134045
0.535423
0.141514
0.521979
0.149642
0.507583
0.159054
0.492031
0.170939
0.475073
0.18727
0.456148
0.2141
0.434348
0.256398
0.409701
0.35986
0.375064
0.49521
-0.163289
-0.31283
-0.129343
-0.32678
-0.0864401
-0.404644
-0.0441711
-0.40962
-0.00117937
-0.422961
0.0428626
-0.436643
0.0848429
-0.423192
0.121524
-0.382969
0.153217
-0.341643
0.180621
-0.303384
0.203468
-0.261864
0.222613
-0.226514
0.239196
-0.199343
0.25378
-0.176228
0.266959
-0.158349
0.279247
-0.144548
0.290894
-0.133558
0.302135
-0.124966
0.3131
-0.118398
0.323837
-0.113079
0.334386
-0.108772
0.344717
-0.104664
0.354795
-0.0998877
0.364391
-0.0917051
0.373184
-0.0802352
0.380991
-0.0686326
0.387761
-0.0572211
0.393491
-0.0461541
0.398121
-0.0352902
0.401692
-0.0247762
0.404184
-0.0145581
0.405613
-0.0046429
0.405987
0.00520668
0.405228
0.0154061
0.403232
0.0269034
0.399641
0.0426089
0.393716
0.0662364
0.384687
0.120814
0.370115
0.217343
-0.197844
0.233158
-0.346484
0.268853
-0.352041
0.309707
-0.389223
0.345043
-0.344329
0.37956
-0.335354
0.413153
-0.322038
0.44319
-0.288722
0.470827
-0.263875
0.495966
-0.237314
0.518427
-0.209225
0.538708
-0.184956
0.55694
-0.161045
0.573233
-0.138118
0.587713
-0.116371
0.600385
-0.0945008
0.611242
-0.0728804
0.620291
-0.050532
0.627459
-0.0281943
0.632634
-0.00474138
0.635752
0.0185042
0.636897
0.0424298
0.636023
0.064598
0.633297
0.0847035
0.628953
0.0995692
0.623143
0.107945
0.61591
0.114677
0.607436
0.122477
0.597785
0.13
0.587047
0.137738
0.575302
0.145791
0.562554
0.154262
0.548782
0.163414
0.53394
0.173896
0.517876
0.187003
0.500325
0.204821
0.480747
0.233677
0.458135
0.279009
0.432823
0.385172
0.398842
0.529193
-0.16283
-0.347843
-0.127225
-0.362385
-0.0819542
-0.449915
-0.0374949
-0.454079
0.00774243
-0.468199
0.0540499
-0.48295
0.0979941
-0.467136
0.136378
-0.421353
0.16937
-0.374635
0.19778
-0.331795
0.221298
-0.285381
0.240842
-0.246058
0.257651
-0.216153
0.272292
-0.190869
0.285429
-0.171485
0.29763
-0.156749
0.309183
-0.145111
0.320346
-0.136129
0.33127
-0.129322
0.342043
-0.123852
0.352676
-0.119405
0.363174
-0.115162
0.373461
-0.110174
0.383349
-0.101594
0.392458
-0.0893442
0.400603
-0.0767774
0.407716
-0.0643343
0.413755
-0.0521926
0.418709
-0.0402445
0.422558
-0.0286254
0.425296
-0.0172958
0.42693
-0.00627718
0.427435
0.00470185
0.426766
0.0160752
0.424775
0.0288951
0.421163
0.0462203
0.41516
0.0722402
0.406219
0.129755
0.392353
0.231209
-0.199548
0.236809
-0.383744
0.27447
-0.389702
0.317624
-0.432377
0.354851
-0.381556
0.391152
-0.371655
0.426506
-0.357392
0.458094
-0.32031
0.487046
-0.292828
0.513421
-0.263689
0.536881
-0.232686
0.558131
-0.206205
0.577151
-0.180065
0.594156
-0.155123
0.609313
-0.131527
0.62253
-0.107718
0.634069
-0.08442
0.643741
-0.0602032
0.651501
-0.035955
0.657327
-0.0105673
0.66111
0.0147214
0.662835
0.0407045
0.662573
0.06486
0.660423
0.0868543
0.656584
0.103408
0.651194
0.113336
0.64429
0.121581
0.636052
0.130716
0.626523
0.139529
0.615776
0.148486
0.603905
0.157661
0.590922
0.167246
0.576837
0.177499
0.561559
0.189174
0.545005
0.203558
0.526857
0.222969
0.506635
0.2539
0.483269
0.302375
0.457364
0.411078
0.423881
0.562677
-0.162755
-0.384636
-0.125104
-0.400036
-0.0774543
-0.497564
-0.0306177
-0.500916
0.0169311
-0.515747
0.0655694
-0.531588
0.111779
-0.513345
0.151947
-0.461522
0.18641
-0.409098
0.215927
-0.361311
0.240228
-0.309682
0.260246
-0.266076
0.277334
-0.23324
0.29208
-0.205615
0.305202
-0.184607
0.317345
-0.168892
0.328811
-0.156577
0.339868
-0.147186
0.350735
-0.140188
0.361505
-0.134623
0.372194
-0.130093
0.382802
-0.125771
0.393292
-0.120664
0.403433
-0.111735
0.412838
-0.0987488
0.421303
-0.0852426
0.428748
-0.0717791
0.435127
-0.0585715
0.440393
-0.0455108
0.444526
-0.032758
0.447506
-0.0202762
0.449332
-0.00810296
0.449994
0.00403952
0.449415
0.0166535
0.447454
0.0308562
0.443817
0.0498576
0.437769
0.0782879
0.429003
0.13852
0.415829
0.244383
-0.201567
0.240936
-0.423113
0.28062
-0.429387
0.326189
-0.477945
0.365372
-0.420739
0.403607
-0.40989
0.440918
-0.394703
0.474034
-0.353426
0.504434
-0.323228
0.532171
-0.291425
0.556736
-0.257252
0.578875
-0.228345
0.598747
-0.199937
0.616386
-0.172762
0.632222
-0.147363
0.646194
-0.12169
0.658302
-0.0965276
0.668576
-0.0704776
0.676908
-0.0442873
0.683223
-0.0168818
0.687576
0.0103682
0.689915
0.0383654
0.690176
0.0645998
0.688581
0.0884492
0.685266
0.106722
0.680345
0.118257
0.673848
0.128079
0.66582
0.138743
0.65643
0.148919
0.645741
0.159175
0.633778
0.169624
0.620604
0.18042
0.606198
0.191906
0.590549
0.204822
0.573481
0.220626
0.554714
0.241736
0.533839
0.274774
0.509829
0.326385
0.483351
0.437555
0.450396
0.595634
-0.162771
-0.423433
-0.123243
-0.439564
-0.0729312
-0.547876
-0.0236108
-0.550236
0.0264289
-0.565787
0.077635
-0.582795
0.126134
-0.561844
0.168285
-0.503673
0.204269
-0.445082
0.235049
-0.392091
0.260207
-0.334839
0.280827
-0.286697
0.29827
-0.250683
0.313188
-0.220534
0.32636
-0.197779
0.338445
-0.180978
0.349815
-0.167947
0.360794
-0.158165
0.371579
-0.150973
0.382301
-0.145345
0.393007
-0.1408
0.403717
-0.136481
0.414369
-0.131316
0.424736
-0.122101
0.434433
-0.108446
0.443199
-0.0940083
0.450961
-0.0795417
0.457648
-0.0652586
0.463225
-0.0510878
0.467632
-0.0371648
0.470874
-0.0235177
0.472927
-0.0101563
0.473733
0.00323416
0.473271
0.0171147
0.471359
0.0327691
0.467713
0.0535033
0.46165
0.0843507
0.453031
0.147139
0.440604
0.25681
-0.203955
0.245484
-0.464641
0.287298
-0.471201
0.335381
-0.526029
0.376633
-0.461991
0.416989
-0.450246
0.456256
-0.433971
0.49108
-0.38825
0.523041
-0.355188
0.552074
-0.320458
0.577739
-0.282916
0.600875
-0.251481
0.621626
-0.220688
0.64014
-0.191276
0.656608
-0.16383
0.67117
-0.136252
0.683862
-0.10922
0.694687
-0.0813033
0.703577
-0.0531771
0.71054
-0.0238445
0.715413
0.00549495
0.718248
0.035531
0.719094
0.0637532
0.717998
0.0895454
0.715181
0.109539
0.710699
0.122739
0.704574
0.134204
0.696854
0.146462
0.687633
0.15814
0.676984
0.169824
0.664963
0.181645
0.651629
0.193753
0.636961
0.206573
0.6209
0.220884
0.603338
0.238188
0.583998
0.261076
0.562494
0.296278
0.537817
0.351063
0.51084
0.464533
0.478432
0.628042
-0.162993
-0.464395
-0.121318
-0.481239
-0.0683048
-0.60089
-0.0163549
-0.602186
0.0363295
-0.618471
0.0902227
-0.636688
0.14122
-0.612841
0.185443
-0.547896
0.223129
-0.482768
0.255233
-0.424195
0.281383
-0.360989
0.302648
-0.307963
0.320504
-0.268539
0.335661
-0.23569
0.34891
-0.211029
0.360993
-0.19306
0.372285
-0.179238
0.383162
-0.169042
0.393856
-0.161667
0.404523
-0.156012
0.415216
-0.151492
0.42597
-0.147236
0.43676
-0.142106
0.447356
-0.132697
0.457297
-0.118388
0.46634
-0.103051
0.474403
-0.0876048
0.4814
-0.0722552
0.487282
-0.05697
0.491988
-0.041871
0.495486
-0.0270157
0.497738
-0.0124079
0.498737
0.00223486
0.498382
0.0174697
0.496533
0.0346175
0.492904
0.057132
0.486845
0.0904096
0.478435
0.155549
0.466784
0.268462
-0.206556
0.250304
-0.508389
0.294449
-0.515346
0.345215
-0.576795
0.388703
-0.505478
0.431222
-0.492765
0.472524
-0.475273
0.509207
-0.424933
0.542781
-0.388761
0.573197
-0.350874
0.600096
-0.309815
0.624369
-0.275754
0.645978
-0.242296
0.665259
-0.210557
0.682458
-0.18103
0.69762
-0.151414
0.710913
-0.122513
0.722279
-0.092669
0.731733
-0.0626317
0.739164
-0.0312747
0.744594
6.42864e-05
0.747935
0.0321908
0.74925
0.0624376
0.748686
0.0901092
0.746346
0.111879
0.742345
0.126741
0.736589
0.13996
0.72916
0.153892
0.720136
0.167164
0.70956
0.1804
0.69753
0.193675
0.684053
0.207231
0.669137
0.221488
0.652722
0.237299
0.634688
0.256222
0.614797
0.280967
0.592623
0.318452
0.567347
0.376338
0.539913
0.491967
0.508024
0.659931
-0.163371
-0.50758
-0.119486
-0.525124
-0.0636042
-0.656772
-0.00882011
-0.65697
0.046638
-0.67393
0.103339
-0.693388
0.157042
-0.666545
0.20345
-0.594303
0.242969
-0.522287
0.276512
-0.457738
0.30371
-0.388187
0.325712
-0.329964
0.344084
-0.286911
0.359524
-0.25113
0.372906
-0.224411
0.385022
-0.205176
0.396269
-0.190485
0.407058
-0.179831
0.417655
-0.172263
0.428235
-0.166592
0.438902
-0.162159
0.449682
-0.158016
0.460579
-0.153002
0.471342
-0.14346
0.481508
-0.128553
0.490826
-0.112369
0.499169
-0.0959481
0.506474
-0.0795599
0.512641
-0.0631373
0.517633
-0.0468631
0.52139
-0.0307723
0.523886
-0.0149043
0.525052
0.00106919
0.524818
0.0177038
0.523055
0.0363802
0.519454
0.060733
0.513463
0.0964016
0.505255
0.163757
0.494359
0.279357
-0.209484
0.255633
-0.554539
0.30222
-0.561933
0.355673
-0.630248
0.401627
-0.551432
0.446314
-0.537453
0.48989
-0.518849
0.528423
-0.463466
0.563714
-0.424052
0.595673
-0.382834
0.623883
-0.338025
0.64914
-0.301012
0.671787
-0.264943
0.691834
-0.230604
0.709752
-0.198947
0.725648
-0.16731
0.739481
-0.136346
0.751424
-0.104613
0.761382
-0.0725891
0.769364
-0.039257
0.775249
-0.00581992
0.779061
0.0283782
0.7809
0.0605989
0.780753
0.0902557
0.778878
0.113754
0.77529
0.130329
0.769918
0.145332
0.762812
0.160997
0.754011
0.175966
0.743589
0.190821
0.73155
0.205714
0.717963
0.220819
0.702815
0.236636
0.686061
0.254053
0.667597
0.274686
0.647124
0.301441
0.62437
0.341206
0.598493
0.402216
0.570584
0.519877
0.539237
0.691279
-0.163957
-0.553106
-0.11769
-0.571391
-0.0587262
-0.715736
-0.00103474
-0.714662
0.0574171
-0.732381
0.117127
-0.753099
0.17357
-0.722987
0.222405
-0.643138
0.26383
-0.563713
0.298964
-0.492872
0.327322
-0.416545
0.35015
-0.352792
0.369079
-0.30584
0.384866
-0.266916
0.398436
-0.237981
0.410596
-0.217337
0.421837
-0.201726
0.432537
-0.190531
0.443035
-0.182761
0.453527
-0.177085
0.464138
-0.17277
0.474923
-0.168801
0.485906
-0.163986
0.496826
-0.15438
0.507201
-0.138928
0.516745
-0.121914
0.525346
-0.104549
0.532917
-0.0871306
0.539383
-0.0696039
0.544645
-0.0521242
0.548674
-0.0348018
0.551384
-0.017614
0.552754
-0.000300724
0.552681
0.017776
0.550984
0.0380775
0.547476
0.0642404
0.541545
0.102332
0.533615
0.171686
0.523491
0.289482
-0.212644
0.261323
-0.603217
0.31038
-0.61099
0.366901
-0.686769
0.415167
-0.599698
0.462378
-0.584664
0.50822
-0.564692
0.548863
-0.504108
0.585885
-0.461074
0.619429
-0.416378
0.648972
-0.367568
0.675509
-0.32755
0.699087
-0.28852
0.720076
-0.251593
0.738748
-0.21762
0.755274
-0.183836
0.769728
-0.150799
0.782189
-0.117074
0.79263
-0.0830297
0.801045
-0.0476718
0.807414
-0.0121892
0.811721
0.0240709
0.813933
0.0583872
0.814236
0.0899529
0.812814
0.115176
0.809644
0.133499
0.804693
0.150283
0.797905
0.167784
0.789327
0.184544
0.779021
0.201127
0.767041
0.217694
0.753378
0.234481
0.738034
0.25198
0.720974
0.271113
0.702083
0.293576
0.681117
0.322407
0.657772
0.36455
0.631337
0.428651
0.603001
0.548213
0.572155
0.722125
-0.164649
-0.601101
-0.115879
-0.620161
-0.0536982
-0.777917
0.00705946
-0.775419
0.0686501
-0.793972
0.131548
-0.815997
0.190995
-0.782434
0.242304
-0.694447
0.285801
-0.60721
0.322588
-0.529659
0.352212
-0.446169
0.375952
-0.376532
0.395509
-0.325398
0.411717
-0.283124
0.42552
-0.251784
0.43779
-0.229607
0.449023
-0.212959
0.459672
-0.20118
0.470076
-0.193165
0.480496
-0.187505
0.491024
-0.183298
0.501806
-0.179582
0.512837
-0.175017
0.523889
-0.165432
0.534446
-0.149486
0.544188
-0.131655
0.553045
-0.113407
0.560876
-0.0949609
0.567591
-0.0763196
0.573151
-0.0576836
0.577427
-0.0390781
0.58038
-0.020567
0.581925
-0.00184582
0.582005
0.0176962
0.580447
0.039636
0.577008
0.067679
0.571218
0.108122
0.563542
0.179363
0.554204
0.298819
-0.216096
0.267392
-0.654513
0.319122
-0.66272
0.378696
-0.746343
0.429685
-0.650687
0.479339
-0.634318
0.527713
-0.613065
0.570372
-0.546768
0.609349
-0.50005
0.644591
-0.451619
0.675619
-0.398596
0.703334
-0.355264
0.728064
-0.313251
0.749934
-0.273463
0.769403
-0.237088
0.786572
-0.201006
0.801666
-0.165893
0.814638
-0.130046
0.825565
-0.0939571
0.834486
-0.0565928
0.841266
-0.0189685
0.84596
0.0193769
0.848601
0.0557465
0.849305
0.0892482
0.848283
0.116199
0.845529
0.136253
0.84093
0.154881
0.834462
0.174252
0.826176
0.192831
0.816044
0.211259
0.804103
0.229635
0.790384
0.2482
0.774895
0.267469
0.757566
0.288443
0.738282
0.31286
0.716833
0.343856
0.692939
0.388444
0.665982
0.455609
0.637238
0.576956
0.606847
0.752517
-0.165456