/*--------------------------------*- C++ -*----------------------------------*\
  =========                 |
  \\      /  F ield         | OpenFOAM: The Open Source CFD Toolbox
   \\    /   O peration     | Website:  https://openfoam.org
    \\  /    A nd           | Version:  12
     \\/     M anipulation  |
\*---------------------------------------------------------------------------*/
FoamFile
{
    format      ascii;
    class       volVectorField;
    location    "200";
    object      U;
}
// * * * * * * * * * * * * * * * * * * * * * * * * * * * * * * * * * * * * * //

dimensions      [0 1 -1 0 0 0 0];

internalField   nonuniform List<vector> 
10720
(
(0.36647 28.4567 1.6609e-17)
(2.18417 30.7315 -1.5401e-17)
(4.44621 32.9175 0)
(7.03377 34.5952 -4.09327e-16)
(9.88346 35.8593 4.58556e-16)
(12.9283 36.6672 3.31276e-16)
(16.0111 36.9153 4.54035e-16)
(19.0385 36.6457 0)
(21.9324 35.9217 0)
(24.6151 34.7827 0)
(27.0583 33.3103 1.17231e-16)
(29.2499 31.5948 0)
(31.1617 29.6585 2.36759e-15)
(32.7878 27.5375 0)
(34.1169 25.2619 0)
(35.1615 22.878 0)
(35.9093 20.4055 -3.99258e-15)
(36.3642 17.8961 -5.96949e-15)
(36.5073 15.3741 5.31157e-15)
(36.3495 12.8996 0)
(35.8734 10.5089 4.3681e-15)
(35.1154 8.27507 -8.55952e-15)
(34.1231 6.25 4.26321e-15)
(33.0059 4.49701 -1.27864e-16)
(31.9626 3.06401 0)
(31.0782 1.89854 1.69127e-15)
(30.2568 0.912488 2.61716e-17)
(29.3995 0.0643678 -7.41111e-16)
(28.4693 -0.668614 -2.70571e-15)
(27.4625 -1.30121 -9.82326e-15)
(26.3826 -1.84008 4.37847e-15)
(25.2327 -2.28857 7.9835e-15)
(24.011 -2.64774 6.88712e-15)
(22.7089 -2.91813 2.35399e-14)
(21.2795 -3.09549 -9.52341e-15)
(19.6857 -3.17793 -6.737e-17)
(17.6264 -3.1135 2.19907e-17)
(15.2023 -2.88857 3.91865e-15)
(9.78488 -2.32323 1.37165e-14)
(-1.0827 26.018 9.05427e-19)
(-2.2659 23.2602 -8.97154e-18)
(-3.11441 20.1481 4.67173e-17)
(-3.49264 16.5287 -1.38963e-16)
(-3.24559 12.7811 -4.76723e-16)
(-2.32795 9.03864 8.509e-16)
(-0.802964 5.5798 4.24983e-15)
(1.09061 2.69453 2.57154e-15)
(3.07436 0.320028 0)
(5.28177 -1.748 0)
(7.56169 -3.30477 2.06587e-15)
(9.6814 -4.31773 7.55176e-16)
(11.5648 -4.90764 -1.25851e-15)
(13.2159 -5.20071 1.03684e-15)
(14.6589 -5.29833 1.71129e-15)
(15.9262 -5.26626 1.10321e-15)
(17.0482 -5.15357 1.40793e-15)
(18.0572 -4.99016 9.34615e-16)
(18.984 -4.79655 0)
(19.8511 -4.57623 0)
(20.6766 -4.331 -1.28958e-15)
(21.4718 -4.0507 -5.93417e-17)
(22.2387 -3.7201 8.73129e-16)
(22.9472 -3.3084 -6.07192e-16)
(23.5313 -2.8103 2.36643e-17)
(23.9725 -2.26318 0)
(24.2964 -1.6933 1.01709e-16)
(24.5191 -1.11659 0)
(24.6471 -0.544349 0)
(24.6788 0.0120267 1.75938e-17)
(24.5919 0.544357 0)
(24.4002 1.04573 1.3343e-17)
(24.1227 1.51013 -3.42944e-17)
(23.7742 1.93213 -5.18304e-16)
(23.3495 2.30786 5.18225e-16)
(22.8386 2.63802 -2.6577e-18)
(22.1161 2.91492 0)
(21.1139 3.10027 5.12155e-15)
(18.283 3.23653 9.17935e-15)
(7.06931 24.7223 -5.70805e-18)
(8.99362 26.461 -2.49517e-18)
(11.3342 28.033 0)
(14.0222 29.3342 0)
(16.9093 30.3044 -1.346e-16)
(19.9994 30.8832 -3.17495e-16)
(23.1745 31.0263 0)
(26.2996 30.7566 0)
(29.3186 30.0855 6.71393e-16)
(32.1429 29.0642 0)
(34.718 27.7536 2.46543e-15)
(37.0144 26.2017 0)
(39.0252 24.4887 8.8093e-16)
(40.758 22.6699 -8.67868e-16)
(42.2191 20.7648 1.74637e-15)
(43.3768 18.8025 -3.49227e-15)
(44.2304 16.7953 3.73752e-15)
(44.7695 14.7685 3.42033e-15)
(44.9946 12.7304 3.34972e-15)
(44.888 10.7122 2.03569e-16)
(44.4505 8.73981 -3.4977e-15)
(43.6736 6.8681 3.32137e-15)
(42.5831 5.13859 -1.87376e-16)
(41.2149 3.60896 0)
(39.6779 2.33082 0)
(38.1203 1.25057 0)
(36.5996 0.290804 1.41139e-16)
(35.1072 -0.558408 -3.15314e-17)
(33.6444 -1.29958 1.98332e-15)
(32.2061 -1.93922 3.76058e-17)
(30.7766 -2.48004 -2.97867e-17)
(29.3381 -2.92455 -8.70633e-17)
(27.872 -3.27507 4.74101e-15)
(26.363 -3.53396 -7.9564e-15)
(24.771 -3.70116 -4.32226e-17)
(23.0771 -3.77769 -9.20852e-15)
(21.0232 -3.72311 0)
(18.828 -3.53706 -1.1332e-15)
(13.5363 -2.77747 7.27054e-15)
(5.43905 22.8678 7.27878e-18)
(4.02034 20.8032 -3.98221e-17)
(2.76801 18.3836 -4.99487e-16)
(1.80915 15.6326 6.14867e-16)
(1.31997 12.6454 0)
(1.38675 9.5549 -1.32324e-15)
(2.0371 6.55636 -9.48071e-16)
(3.19584 3.87243 -7.35428e-15)
(4.68817 1.53304 2.35159e-15)
(6.42859 -0.412664 -1.77887e-15)
(8.30348 -1.84143 2.23765e-15)
(10.1515 -2.79568 -6.36985e-16)
(11.8846 -3.39259 0)
(13.4704 -3.7314 -4.25284e-16)
(14.9002 -3.89498 5.2649e-17)
(16.1848 -3.93678 -9.48402e-16)
(17.3398 -3.90185 0)
(18.3882 -3.81579 0)
(19.3538 -3.69685 -9.8099e-17)
(20.2589 -3.54282 9.42405e-17)
(21.1192 -3.35203 -1.11444e-15)
(21.9466 -3.10808 -1.20298e-16)
(22.7431 -2.79114 5.28201e-17)
(23.4854 -2.36457 5.87269e-16)
(24.1196 -1.84125 -4.14827e-16)
(24.621 -1.28805 -3.0499e-16)
(25.0055 -0.733778 0)
(25.2858 -0.189553 0)
(25.4655 0.33821 0)
(25.5501 0.840676 8.55969e-18)
(25.5685 1.31026 0)
(25.5168 1.74397 0)
(25.3847 2.14073 9.7288e-17)
(25.1656 2.49956 1.95054e-16)
(24.8516 2.82222 -4.20042e-16)
(24.4512 3.11412 7.92436e-16)
(23.8634 3.37321 -2.4601e-15)
(23.2745 3.5934 -3.92497e-15)
(21.1796 3.63061 -6.18425e-15)
(8.36297 22.7598 -1.04086e-18)
(9.76272 24.2833 1.8713e-17)
(11.4595 25.7602 -1.53749e-17)
(13.4064 27.1156 -4.29739e-17)
(15.5481 28.2314 -1.76561e-16)
(17.8851 29.0829 6.10819e-16)
(20.3426 29.6301 -4.27287e-16)
(22.8443 29.8364 -4.99615e-16)
(25.3354 29.7003 4.5236e-18)
(27.7577 29.2339 -6.49041e-16)
(30.0594 28.4585 6.02102e-16)
(32.2088 27.4038 -1.56334e-15)
(34.1786 26.1013 -7.46386e-16)
(35.9549 24.5796 0)
(37.5205 22.8741 -1.7863e-15)
(38.89 21.0099 3.58961e-15)
(40.0685 19.0071 0)
(41.0364 16.9097 -6.79773e-15)
(41.7841 14.7471 -3.39877e-15)
(42.284 12.5718 3.96317e-16)
(42.5236 10.4216 -3.92733e-16)
(42.4815 8.36458 -1.78053e-16)
(42.1591 6.44989 -2.53035e-15)
(41.5644 4.74013 1.27136e-15)
(40.7485 3.28036 0)
(39.7887 2.01459 1.11067e-15)
(38.7062 0.873985 -1.31189e-16)
(37.4951 -0.141601 0)
(36.1732 -1.02901 1.74413e-15)
(34.7678 -1.79258 3.2375e-15)
(33.2996 -2.43513 -5.70765e-15)
(31.7822 -2.96064 -4.91276e-15)
(30.2183 -3.3742 -1.05536e-16)
(28.6037 -3.68053 -6.98055e-15)
(26.904 -3.88193 -5.5974e-15)
(25.101 -3.97801 8.03038e-15)
(22.9529 -3.9357 0)
(20.6826 -3.71143 -8.86643e-16)
(15.8068 -3.02378 -1.10696e-14)
(7.21306 21.1515 -1.27071e-17)
(6.20038 19.3894 -5.06203e-17)
(5.34496 17.3113 1.97149e-16)
(4.65083 14.9789 0)
(4.26683 12.4718 3.83187e-16)
(4.24277 9.85596 0)
(4.6083 7.25851 2.72009e-15)
(5.34896 4.84378 1.63756e-15)
(6.41636 2.69282 1.53433e-15)
(7.75175 0.861506 0)
(9.23871 -0.596317 -2.25186e-15)
(10.7608 -1.69439 -4.82554e-16)
(12.2433 -2.4888 2.18368e-15)
(13.6454 -3.03764 0)
(14.9474 -3.39356 -1.01641e-15)
(16.1468 -3.60134 -3.06907e-16)
(17.2492 -3.70005 1.26612e-15)
(18.2675 -3.7169 6.56074e-16)
(19.2182 -3.67124 1.80407e-16)
(20.1181 -3.56919 -9.78542e-17)
(20.9794 -3.41379 1.01587e-15)
(21.811 -3.197 0)
(22.6128 -2.90566 0)
(23.3656 -2.51803 2.33465e-17)
(24.0257 -2.04739 0)
(24.5695 -1.54209 6.31702e-16)
(25.0074 -1.02158 -8.29471e-18)
(25.3507 -0.493693 -3.94192e-17)
(25.603 0.0337716 0)
(25.7659 0.550731 -2.33892e-17)
(25.8447 1.04975 3.50291e-17)
(25.8448 1.52437 0)
(25.7683 1.96861 -6.8705e-17)
(25.6154 2.37726 0)
(25.3741 2.74846 0)
(25.0434 3.08293 3.88121e-17)
(24.5118 3.37981 -5.24871e-17)
(23.9004 3.59773 3.92267e-15)
(22.0256 3.63592 1.19678e-14)
(10.9016 20.8567 -1.01774e-17)
(12.1934 22.1567 -6.63449e-18)
(13.7383 23.4201 -6.46336e-18)
(15.5113 24.5725 -1.13652e-17)
(17.4629 25.5234 0)
(19.5996 26.2543 0)
(21.8638 26.7221 -7.13481e-16)
(24.1933 26.8925 8.53426e-16)
(26.541 26.7591 0)
(28.8511 26.3248 -1.03092e-15)
(31.0717 25.6046 -1.30478e-15)
(33.1649 24.622 -1.23244e-15)
(35.0962 23.4073 1.46796e-15)
(36.8388 21.9938 1.38398e-15)
(38.3735 20.4149 0)
(39.6853 18.7047 2.19528e-15)
(40.7461 16.9056 7.60126e-16)
(41.5464 15.0502 6.12816e-15)
(42.0836 13.1644 3.71231e-16)
(42.363 11.2771 -3.68105e-16)
(42.3925 9.41934 3.11138e-15)
(42.1872 7.63567 -5.09519e-16)
(41.775 5.96675 2.77404e-15)
(41.1921 4.45706 1.15793e-15)
(40.4942 3.13832 -6.85451e-17)
(39.7385 1.9733 -1.0048e-15)
(38.9278 0.907478 7.41773e-18)
(38.0293 -0.0635299 -7.44183e-18)
(37.0239 -0.936102 -1.67106e-15)
(35.9052 -1.71066 -4.42373e-17)
(34.6708 -2.3834 2.79008e-15)
(33.3235 -2.95 -4.74734e-15)
(31.868 -3.40776 -3.83343e-15)
(30.3093 -3.75528 -1.93541e-18)
(28.6255 -3.99084 5.09169e-15)
(26.8076 -4.10877 0)
(24.6362 -4.0796 4.1786e-15)
(22.2973 -3.81334 7.67758e-16)
(17.6728 -3.16742 4.61586e-15)
(9.81175 19.4943 -2.54271e-17)
(8.83077 18.0139 6.57847e-17)
(7.96533 16.2661 2.95197e-16)
(7.23522 14.2888 0)
(6.76768 12.1541 -3.41912e-16)
(6.60125 9.90555 0)
(6.76175 7.64137 -2.18523e-15)
(7.23671 5.49306 -1.01299e-16)
(7.99699 3.53073 1.12163e-15)
(9.00448 1.8072 9.9866e-16)
(10.1748 0.374873 3.58405e-17)
(11.4253 -0.756553 1.68522e-15)
(12.6944 -1.61571 -1.09511e-15)
(13.9378 -2.24247 3.47163e-16)
(15.1276 -2.67676 1.18437e-15)
(16.2509 -2.95815 1.30358e-15)
(17.3041 -3.12115 -1.16814e-15)
(18.2906 -3.19309 5.4259e-18)
(19.22 -3.19395 0)
(20.1036 -3.13334 1.21393e-15)
(20.9505 -3.01477 5.94089e-17)
(21.767 -2.83293 -9.11835e-16)
(22.5525 -2.57703 0)
(23.2904 -2.23037 2.21233e-17)
(23.9446 -1.80018 0)
(24.4919 -1.32497 -2.97017e-16)
(24.938 -0.827547 0)
(25.293 -0.319744 3.69914e-17)
(25.561 0.188326 -1.16172e-18)
(25.7442 0.686176 6.5253e-19)
(25.847 1.1648 -3.17412e-17)
(25.8747 1.61665 -1.04611e-18)
(25.8303 2.03766 0)
(25.7159 2.42529 1.76236e-16)
(25.5219 2.77963 3.29202e-18)
(25.2472 3.10065 -8.00334e-16)
(24.786 3.38902 5.00037e-15)
(24.2285 3.57609 1.19705e-17)
(22.5332 3.60383 0)
(12.4693 19.4008 -1.45524e-17)
(13.5665 20.5519 -6.27725e-19)
(14.8851 21.6923 -1.07801e-17)
(16.3907 22.7584 1.62812e-16)
(18.0408 23.6672 -5.53862e-17)
(19.8573 24.413 -1.94652e-16)
(21.7927 24.9556 3.07646e-16)
(23.7991 25.2595 0)
(25.846 25.3138 1.19512e-15)
(27.887 25.1114 5.55549e-16)
(29.881 24.6532 0)
(31.7943 23.9494 1.18434e-15)
(33.5932 23.0169 -6.23636e-16)
(35.2498 21.8749 1.73413e-15)
(36.7418 20.5459 0)
(38.0486 19.0537 -2.87896e-15)
(39.1578 17.4156 2.73553e-15)
(40.0596 15.6526 -1.6782e-16)
(40.7391 13.797 0)
(41.1807 11.8931 2.95901e-15)
(41.3747 9.98659 -2.98647e-15)
(41.3203 8.13564 -1.52362e-16)
(41.035 6.39329 -2.32028e-15)
(40.5545 4.81141 -2.12989e-15)
(39.9388 3.42582 0)
(39.2549 2.20935 0)
(38.5281 1.11025 -2.30159e-16)
(37.7471 0.115218 -2.57712e-17)
(36.9028 -0.777487 1.58922e-15)
(35.9887 -1.57248 -4.21844e-17)
(34.9916 -2.27016 4.21196e-17)
(33.8949 -2.86813 4.4447e-15)
(32.6801 -3.36315 0)
(31.3318 -3.75089 1.23819e-14)
(29.8172 -4.02558 -4.26344e-17)
(28.1234 -4.17502 0)
(26.0483 -4.17001 -3.20365e-17)
(23.7523 -3.88303 0)
(19.3483 -3.25558 -3.92347e-15)
(11.538 18.2008 2.41415e-17)
(10.6972 16.9095 -1.57072e-16)
(9.93474 15.3841 1.73425e-16)
(9.26341 13.6602 2.78305e-16)
(8.79583 11.8048 -1.09886e-15)
(8.56116 9.84093 -1.42349e-15)
(8.59043 7.84354 1.74456e-15)
(8.8821 5.9208 -1.92434e-15)
(9.42184 4.13765 -8.6757e-16)
(10.1844 2.54073 -7.71924e-16)
(11.108 1.17256 1.48882e-15)
(12.131 0.0487777 -1.43107e-15)
(13.205 -0.845685 -6.27487e-16)
(14.29 -1.53631 6.10511e-16)
(15.3567 -2.04877 -1.32749e-15)
(16.3879 -2.41297 2.43046e-16)
(17.3746 -2.65554 0)
(18.3141 -2.79915 -9.248e-16)
(19.21 -2.86116 3.272e-16)
(20.0685 -2.85202 -1.2702e-15)
(20.8956 -2.77592 0)
(21.6948 -2.63022 7.90242e-16)
(22.464 -2.40733 6.2146e-16)
(23.1885 -2.09633 -4.7206e-16)
(23.8374 -1.70314 0)
(24.3879 -1.25977 -3.14418e-16)
(24.8416 -0.789944 0)
(25.2062 -0.30568 0)
(25.4851 0.183339 0)
(25.6805 0.666805 3.90722e-17)
(25.7963 1.13564 0)
(25.8375 1.58307 0)
(25.8072 2.00391 -1.54803e-16)
(25.7083 2.39386 -1.67332e-16)
(25.5324 2.75122 0)
(25.2806 3.07363 -8.32709e-16)
(24.8554 3.36116 6.28522e-17)
(24.3451 3.5309 0)
(22.841 3.54604 -5.19816e-15)
(13.954 18.1265 1.73909e-17)
(14.9473 19.1462 -1.23845e-17)
(16.1369 20.163 0)
(17.4899 21.1176 8.12341e-18)
(18.9654 21.9367 -1.33033e-16)
(20.594 22.6204 1.83524e-16)
(22.3342 23.1307 4.54025e-17)
(24.1473 23.4357 -7.67189e-16)
(26.0121 23.5222 -9.29955e-17)
(27.8901 23.3796 1.14053e-15)
(29.7455 23.0038 -4.06608e-16)
(31.5485 22.3984 9.15142e-16)
(33.2656 21.5734 4.57706e-16)
(34.8677 20.5428 3.31767e-16)
(36.3292 19.325 0)
(37.6265 17.9417 -6.24714e-16)
(38.7382 16.4186 -1.37788e-15)
(39.6401 14.7932 -5.09631e-15)
(40.315 13.0992 1.50268e-15)
(40.7537 11.3679 -1.90739e-15)
(40.9517 9.63373 -2.98777e-16)
(40.913 7.93821 0)
(40.6537 6.32449 2.07746e-15)
(40.2052 4.83525 1.32333e-16)
(39.6184 3.50312 -5.90802e-17)
(38.9509 2.31522 -8.23125e-16)
(38.2313 1.23391 1.89805e-16)
(37.4593 0.248587 3.97147e-16)
(36.6356 -0.639609 -1.48623e-15)
(35.7653 -1.4336 -7.93898e-17)
(34.8475 -2.13495 2.53083e-15)
(33.8742 -2.74295 4.11077e-15)
(32.8282 -3.25587 0)
(31.6855 -3.66979 -1.85779e-17)
(30.3968 -3.97756 -4.63496e-15)
(28.9292 -4.16149 0)
(27.0726 -4.18995 -7.39684e-15)
(24.9659 -3.90414 0)
(20.857 -3.30705 3.55726e-15)
(13.1023 17.0673 -2.43476e-17)
(12.3296 15.9349 6.41373e-17)
(11.6149 14.5941 0)
(10.9715 13.0754 0)
(10.4993 11.4417 4.72297e-16)
(10.218 9.70652 2.36033e-15)
(10.1569 7.92719 0)
(10.3204 6.19655 -1.40886e-15)
(10.7005 4.57619 -1.35317e-15)
(11.2776 3.10328 1.36111e-15)
(12.0067 1.81195 -5.49127e-17)
(12.8415 0.720756 5.94088e-16)
(13.7452 -0.177387 2.93963e-17)
(14.6846 -0.898044 1.5714e-15)
(15.6322 -1.45678 1.41049e-15)
(16.5701 -1.87502 -1.32414e-15)
(17.4861 -2.17291 1.86547e-16)
(18.3735 -2.36895 -3.46863e-16)
(19.2307 -2.47814 1.6055e-16)
(20.0597 -2.51068 9.33598e-16)
(20.8631 -2.47143 1.20834e-16)
(21.6418 -2.35974 -8.76997e-17)
(22.3923 -2.17021 -5.29732e-16)
(23.1011 -1.8955 0)
(23.7415 -1.54051 2.20865e-17)
(24.2917 -1.13118 5.85269e-16)
(24.7495 -0.690232 -3.11026e-18)
(25.1205 -0.230123 3.0847e-18)
(25.4074 0.23897 0)
(25.6117 0.70612 -3.66968e-17)
(25.737 1.16163 0)
(25.7876 1.59767 0)
(25.7668 2.00832 1.42447e-16)
(25.677 2.38911 2.1175e-16)
(25.5105 2.73809 0)
(25.2685 3.05132 7.7517e-16)
(24.8596 3.3284 -4.64337e-15)
(24.369 3.47466 2.15515e-17)
(23.0195 3.46693 4.7551e-15)
(15.1616 17.0432 -2.45524e-19)
(16.0559 17.9581 -1.21049e-17)
(17.1265 18.8778 -2.46513e-18)
(18.339 19.7469 2.40283e-18)
(19.653 20.4999 8.97e-17)
(21.1045 21.1426 0)
(22.6561 21.6413 -3.47095e-16)
(24.275 21.9667 9.05039e-18)
(25.9487 22.1072 -3.43581e-16)
(27.6443 22.0506 -6.93779e-16)
(29.3335 21.7894 0)
(30.9919 21.3223 -1.66499e-15)
(32.589 20.6529 -1.42576e-15)
(34.0978 19.7889 -3.46108e-15)
(35.4928 18.7426 0)
(36.7492 17.5303 -2.1252e-15)
(37.8436 16.1725 -2.22518e-15)
(38.7576 14.6885 2.40509e-15)
(39.4745 13.1028 -2.3644e-15)
(39.9785 11.4493 2.18892e-15)
(40.2594 9.76759 2.68611e-16)
(40.3135 8.10546 -2.31241e-15)
(40.1503 6.5111 0)
(39.7939 5.02934 -1.98145e-15)
(39.2863 3.69255 1.16189e-16)
(38.6774 2.49428 8.62023e-16)
(37.9968 1.40407 0)
(37.2498 0.410904 -2.95165e-17)
(36.4405 -0.48441 6.32625e-17)
(35.5782 -1.28438 2.43166e-15)
(34.6697 -1.99094 -2.254e-15)
(33.7178 -2.60425 -3.91522e-15)
(32.7192 -3.12397 3.31933e-15)
(31.6647 -3.5485 -6.1251e-17)
(30.5162 -3.87288 4.44343e-15)
(29.2459 -4.0796 6.20843e-15)
(27.6427 -4.13769 3.59335e-15)
(25.8372 -3.86488 -1.13373e-17)
(22.1498 -3.31625 -3.60803e-18)
(14.3891 16.095 9.88496e-18)
(13.6852 15.0875 1.26048e-16)
(13.0218 13.8925 1.73353e-16)
(12.4118 12.5374 -3.24629e-16)
(11.9453 11.0825 -1.29646e-15)
(11.6373 9.53326 4.2689e-16)
(11.5145 7.93422 1.11124e-15)
(11.5866 6.36785 2.8949e-15)
(11.849 4.89275 1.16996e-15)
(12.2851 3.5368 -1.09746e-15)
(12.8614 2.32803 -3.78258e-17)
(13.5425 1.28485 -5.32423e-16)
(14.3005 0.403436 0)
(15.1088 -0.325759 -2.5819e-17)
(15.9436 -0.911648 -8.6944e-16)
(16.7882 -1.36909 3.80131e-16)
(17.6298 -1.7124 -3.72717e-16)
(18.4589 -1.95525 0)
(19.2712 -2.10941 5.66004e-16)
(20.065 -2.18361 -9.88333e-16)
(20.8398 -2.18227 0)
(21.5944 -2.10566 7.25357e-16)
(22.3241 -1.95018 0)
(23.0158 -1.71125 -2.76207e-17)
(23.6462 -1.39326 2.73342e-17)
(24.1942 -1.01751 -2.862e-16)
(24.6549 -0.605242 -5.17812e-18)
(25.0315 -0.169476 -3.14687e-18)
(25.3258 0.279141 8.30419e-19)
(25.5389 0.729432 -4.73981e-17)
(25.6734 1.17127 -6.82199e-17)
(25.7334 1.59654 1.0508e-16)
(25.7216 1.99891 2.94799e-18)
(25.6402 2.37311 2.59288e-17)
(25.4816 2.71629 0)
(25.2466 3.0224 1.48361e-17)
(24.8497 3.2899 2.14734e-15)
(24.3699 3.41432 -1.0457e-17)
(23.1374 3.38017 4.35029e-15)
(16.2183 16.0902 3.7117e-18)
(17.038 16.9155 1.80928e-17)
(18.0177 17.7489 0)
(19.123 18.5383 -2.53242e-17)
(20.3138 19.2246 3.75587e-17)
(21.6289 19.8175 0)
(23.0341 20.286 -1.29147e-16)
(24.501 20.604 9.99198e-16)
(26.0225 20.761 -1.3752e-15)
(27.5716 20.7447 4.38761e-16)
(29.1245 20.5458 5.91172e-16)
(30.6619 20.1603 2.12193e-15)
(32.1571 19.5875 1.51443e-15)
(33.5851 18.8304 1.79955e-15)
(34.9212 17.8968 4.73956e-16)
(36.1401 16.7986 1.56292e-15)
(37.2179 15.552 2.13764e-15)
(38.1323 14.1787 2.0618e-15)
(38.8612 12.7085 -1.51435e-15)
(39.3883 11.1725 -4.62929e-15)
(39.7032 9.60487 0)
(39.8034 8.04499 8.48582e-17)
(39.6968 6.53479 1.80029e-15)
(39.4045 5.11414 1.886e-15)
(38.961 3.81322 -1.07083e-16)
(38.408 2.63286 -7.78162e-16)
(37.773 1.55225 5.57634e-18)
(37.0635 0.562998 -3.9506e-16)
(36.2837 -0.332743 4.15688e-17)
(35.4418 -1.13548 -4.56223e-15)
(34.545 -1.846 -7.72517e-18)
(33.5985 -2.46361 -6.15632e-17)
(32.6043 -2.98744 -3.19192e-15)
(31.5631 -3.41587 -6.09452e-17)
(30.4536 -3.74508 -4.14958e-15)
(29.272 -3.95892 -1.18696e-14)
(27.8389 -4.0319 3.40357e-15)
(26.3284 -3.76892 6.51069e-16)
(23.1603 -3.27626 2.85568e-15)
(15.5054 15.2366 -4.55454e-17)
(14.854 14.3331 -1.71945e-16)
(14.2311 13.2597 -1.25921e-16)
(13.6495 12.0405 -3.21555e-16)
(13.191 10.7332 7.24908e-16)
(12.8672 9.33823 -5.24911e-17)
(12.7022 7.89064 -2.8461e-15)
(12.7081 6.46584 -9.98315e-16)
(12.8823 5.11909 1.3901e-17)
(13.2105 3.87058 0)
(13.6665 2.744 -9.40262e-16)
(14.2224 1.75636 8.79521e-16)
(14.8571 0.904842 -8.49231e-16)
(15.5497 0.183189 -4.35703e-16)
(16.2806 -0.413222 3.6515e-16)
(17.0355 -0.894529 3.6277e-16)
(17.8021 -1.27009 1.3057e-15)
(18.5703 -1.54925 -3.09301e-16)
(19.3337 -1.74062 -5.28802e-16)
(20.0882 -1.85114 0)
(20.8309 -1.88444 -8.06497e-16)
(21.5586 -1.84115 -6.02137e-16)
(22.2652 -1.71878 -1.19367e-17)
(22.9384 -1.51468 -6.51316e-17)
(23.5567 -1.23296 -2.15301e-17)
(24.1003 -0.890849 3.29624e-16)
(24.5619 -0.50794 -6.44743e-18)
(24.9426 -0.0975388 5.20083e-17)
(25.2431 0.329453 9.36828e-18)
(25.464 0.761748 4.34362e-17)
(25.6072 1.18888 -1.0221e-17)
(25.6761 1.60222 -2.28101e-16)
(25.673 1.99485 -2.1329e-16)
(25.5999 2.36082 -2.11599e-16)
(25.4492 2.6965 -9.17369e-18)
(25.2215 2.99401 5.12355e-18)
(24.8362 3.25043 -2.15598e-15)
(24.3682 3.35411 -3.00578e-15)
(23.2334 3.29409 -3.99952e-15)
(17.132 15.2473 -1.13409e-17)
(17.8877 15.9963 -6.38925e-18)
(18.7896 16.7554 -8.63788e-18)
(19.8033 17.4762 -4.03413e-17)
(20.8891 18.1041 6.97663e-17)
(22.0867 18.652 -1.56219e-16)
(23.3647 19.0919 4.90942e-16)
(24.6976 19.4004 0)
(26.0824 19.5692 4.19712e-16)
(27.4959 19.5863 1.07934e-17)
(28.919 19.4423 -5.07798e-16)
(30.3368 19.1316 -1.95673e-15)
(31.7262 18.651 -7.9132e-16)
(33.065 18.0002 0)
(34.3307 17.183 0)
(35.4988 16.2074 0)
(36.5452 15.0862 0)
(37.4474 13.8368 -1.99741e-15)
(38.1849 12.4798 1.98155e-15)
(38.7394 11.0427 1.93825e-15)
(39.0979 9.55878 -1.55895e-15)
(39.2541 8.0675 1.3663e-15)
(39.2122 6.61083 -1.40776e-15)
(38.9886 5.22858 -1.02989e-16)
(38.6119 3.95032 -4.68608e-17)
(38.1175 2.78084 7.8786e-16)
(37.5318 1.70588 1.69523e-16)
(36.8651 0.718831 0)
(36.1226 -0.177857 0)
(35.312 -0.983451 3.82564e-17)
(34.4398 -1.69807 0)
(33.5106 -2.32035 3.39907e-15)
(32.5259 -2.84868 -3.02074e-15)
(31.4883 -3.2805 -4.87531e-15)
(30.3818 -3.61167 7.74627e-15)
(29.217 -3.82477 5.65515e-15)
(27.8473 -3.89948 -3.25149e-15)
(26.515 -3.63262 -1.26566e-15)
(23.8616 -3.18521 -2.73797e-15)
(16.471 14.4734 0)
(15.8652 13.6572 4.80759e-17)
(15.2787 12.6855 2.40121e-16)
(14.7238 11.5803 -1.03929e-15)
(14.2763 10.3972 9.15586e-16)
(13.9439 9.13214 -7.47977e-16)
(13.75 7.81335 6.98627e-18)
(13.7076 6.51145 7.57895e-16)
(13.8151 5.27796 8.06562e-16)
(14.06 4.12742 0)
(14.4208 3.07982 3.90245e-16)
(14.875 2.15068 -1.1933e-15)
(15.4062 1.33708 1.89547e-15)
(15.9981 0.634279 3.46014e-16)
(16.6351 0.0397973 -7.04833e-16)
(17.3056 -0.453056 -6.57234e-16)
(17.9987 -0.850056 -6.04898e-16)
(18.7047 -1.157 0)
(19.4164 -1.37948 0)
(20.1284 -1.52223 0)
(20.8357 -1.58781 7.58116e-16)
(21.5336 -1.57658 0)
(22.2151 -1.48668 -4.90253e-16)
(22.868 -1.31667 -6.27707e-17)
(23.4726 -1.07024 -3.79586e-16)
(24.0097 -0.7615 -2.92379e-16)
(24.4704 -0.408172 0)
(24.8538 -0.0235709 -4.33975e-17)
(25.1596 0.381261 -9.95035e-18)
(25.3875 0.794948 1.85817e-18)
(25.5389 1.20674 1.53569e-16)
(25.6164 1.60759 -1.75289e-17)
(25.622 1.99008 2.07138e-16)
(25.5572 2.34756 -2.48532e-16)
(25.4146 2.67556 0)
(25.1945 2.96436 -1.42281e-17)
(24.8216 3.20945 -3.38358e-17)
(24.3672 3.29424 2.85806e-15)
(23.3223 3.21027 -2.4012e-17)
(17.9354 14.4919 1.38209e-17)
(18.6372 15.1745 0)
(19.4738 15.8682 3.83186e-17)
(20.4108 16.5274 -3.82657e-18)
(21.409 17.1018 -3.99318e-17)
(22.5083 17.6062 1.46672e-16)
(23.6793 18.015 -2.17049e-16)
(24.8985 18.3077 -2.5811e-16)
(26.1661 18.4775 0)
(27.4618 18.5132 -4.39577e-16)
(28.7704 18.4059 -4.68786e-16)
(30.0803 18.1491 4.65273e-16)
(31.372 17.7383 1.72919e-15)
(32.6264 17.1705 6.89884e-16)
(33.8233 16.4466 -2.08603e-15)
(34.9394 15.5713 -1.49887e-15)
(35.9516 14.5538 1.17787e-15)
(36.8373 13.408 8.67483e-16)
(37.575 12.1536 -4.33758e-16)
(38.1448 10.8168 4.32034e-16)
(38.5321 9.42755 1.0962e-15)
(38.7298 8.02098 2.03977e-16)
(38.7394 6.63507 -1.91533e-16)
(38.5739 5.30672 -1.27399e-15)
(38.2564 4.06404 0)
(37.8163 2.91504 -6.67707e-16)
(37.2779 1.85207 -3.18751e-16)
(36.6531 0.871529 -2.94031e-16)
(35.9484 -0.0231226 -1.08763e-15)
(35.1715 -0.829674 4.07212e-15)
(34.3291 -1.5472 1.67698e-15)
(33.4251 -2.17366 3.90459e-18)
(32.4604 -2.70655 3.88853e-17)
(31.4364 -3.14228 0)
(30.3371 -3.47573 -3.65986e-15)
(29.1748 -3.68708 0)
(27.8196 -3.75924 0)
(26.5405 -3.47899 6.11088e-16)
(24.2962 -3.05366 4.44119e-18)
(17.3182 13.7868 -4.67817e-17)
(16.7512 13.0452 1.6152e-16)
(16.1965 12.1608 1.07315e-17)
(15.6662 11.1532 2.31257e-16)
(15.2308 10.076 -8.40154e-16)
(14.8949 8.92176 6.30041e-16)
(14.6813 7.71391 3.59062e-17)
(14.6036 6.51968 -6.32757e-16)
(14.6601 5.38619 -6.2337e-16)
(14.8401 4.32418 -6.66315e-16)
(15.1252 3.35096 -1.32804e-15)
(15.4967 2.48041 0)
(15.9414 1.70892 -6.85167e-16)
(16.4465 1.03223 -2.44604e-17)
(16.9997 0.449126 0)
(17.5922 -0.0452445 -5.80414e-16)
(18.2149 -0.453985 -2.76841e-16)
(18.8592 -0.780293 -2.61246e-16)
(19.5181 -1.02722 9.04689e-16)
(20.1852 -1.19734 8.09776e-16)
(20.8546 -1.29176 -8.44262e-17)
(21.5204 -1.31038 6.29966e-16)
(22.1749 -1.25154 1.26087e-16)
(22.8059 -1.11431 -6.03617e-17)
(23.395 -0.902008 3.38832e-16)
(23.9236 -0.626223 2.07118e-17)
(24.3816 -0.302635 0)
(24.7662 0.0557165 0)
(25.076 0.437714 -1.94838e-18)
(25.3102 0.832009 4.93699e-18)
(25.4692 1.22766 -1.69022e-16)
(25.555 1.61519 -1.70751e-17)
(25.5691 1.98677 2.64426e-16)
(25.5127 2.33499 2.38023e-16)
(25.3783 2.65459 1.07375e-17)
(25.1662 2.93414 3.62753e-18)
(24.8064 3.16748 4.00574e-15)
(24.3672 3.23486 -2.7299e-15)
(23.408 3.1295 2.241e-17)
(18.6448 13.8096 5.27865e-18)
(19.3 14.4342 0)
(20.0801 15.0701 -2.5578e-17)
(20.9509 15.6743 0)
(21.8735 16.2008 -8.75097e-17)
(22.888 16.6649 8.4802e-17)
(23.9661 17.0437 1.65552e-16)
(25.0865 17.319 2.43535e-16)
(26.2507 17.4852 0)
(27.4413 17.5327 -2.93931e-16)
(28.6459 17.4531 4.80692e-16)
(29.8561 17.2398 -9.83979e-16)
(31.055 16.8876 -5.49399e-16)
(32.2267 16.3921 -5.56872e-16)
(33.3533 15.7521 1.32978e-15)
(34.4135 14.9695 1.43371e-15)
(35.3857 14.0505 -1.53114e-15)
(36.2476 13.0063 -1.51801e-15)
(36.9782 11.8524 0)
(37.5576 10.6109 3.96895e-16)
(37.9697 9.30868 -7.68429e-16)
(38.2052 7.97877 1.89333e-16)
(38.2631 6.65717 4.22931e-18)
(38.1524 5.37913 3.01389e-15)
(37.8916 4.17161 -1.64779e-16)
(37.5045 3.04457 9.98771e-17)
(37.013 1.99533 2.95992e-16)
(36.43 1.02304 3.13373e-16)
(35.763 0.132037 9.40091e-16)
(35.02 -0.674104 -1.88292e-15)
(34.2078 -1.39343 -1.54437e-15)
(33.3311 -2.02322 -6.05949e-15)
(32.3907 -2.56024 5.2215e-15)
(31.3873 -2.99986 -7.39879e-17)
(30.3048 -3.33609 3.42279e-15)
(29.1532 -3.54646 -1.07149e-16)
(27.8123 -3.61634 5.97323e-17)
(26.5256 -3.32276 3.9287e-18)
(24.5538 -2.89642 -2.11146e-15)
(18.066 13.1645 2.27295e-17)
(17.5333 12.4873 -8.39198e-17)
(17.0071 11.6784 1.66531e-16)
(16.4995 10.7553 0)
(16.0769 9.76969 4.91525e-16)
(15.7413 8.71116 0)
(15.5145 7.60024 0)
(15.4108 6.50075 0)
(15.4282 5.45598 1.16107e-15)
(15.5573 4.47391 -5.75842e-16)
(15.782 3.56986 6.50428e-16)
(16.086 2.7563 0)
(16.4585 2.02872 0)
(16.8893 1.38272 -5.9244e-16)
(17.3687 0.817612 0)
(17.8901 0.329641 5.40823e-16)
(18.4467 -0.0829733 1.26477e-17)
(19.031 -0.421328 0)
(19.6368 -0.686383 -6.46801e-16)
(20.2577 -0.878953 -9.60106e-16)
(20.8874 -0.998795 -6.69721e-16)
(21.5191 -1.04497 -5.84745e-16)
(22.1448 -1.01554 1.00435e-15)
(22.7524 -0.909711 0)
(23.3243 -0.73034 3.39493e-16)
(23.8424 -0.486782 3.16761e-16)
(24.2958 -0.192821 1.20011e-16)
(24.6802 0.139023 0)
(24.993 0.497702 -9.37699e-18)
(25.2325 0.871955 -5.86738e-17)
(25.3985 1.25076 1.7742e-16)
(25.4923 1.62431 -1.65912e-17)
(25.5147 1.98432 -2.42303e-16)
(25.4666 2.32272 2.62659e-16)
(25.3407 2.63341 -2.05071e-18)
(25.137 2.90336 1.0485e-17)
(24.7912 3.12463 -3.90239e-15)
(24.3682 3.17631 2.5571e-15)
(23.4912 3.05241 6.24158e-15)
(19.276 13.1886 2.17349e-18)
(19.8904 13.762 -1.53591e-17)
(20.621 14.3463 0)
(21.434 14.9012 -1.12919e-19)
(22.2913 15.3839 0)
(23.2322 15.8105 0)
(24.2296 16.1602 1.84909e-17)
(25.2636 16.4167 2.10347e-16)
(26.3373 16.5758 4.8419e-16)
(27.4348 16.6287 1.227e-15)
(28.5462 16.5683 6.90346e-16)
(29.6654 16.3884 7.93392e-16)
(30.7783 16.0831 0)
(31.8717 15.6473 1.53322e-15)
(32.9299 15.0782 -5.42338e-16)
(33.9339 14.3758 0)
(34.8637 13.5438 1.2786e-15)
(35.698 12.5903 1.45455e-15)
(36.4164 11.5283 0)
(36.9988 10.377 1.41152e-15)
(37.428 9.16084 -1.37894e-15)
(37.6937 7.90945 0)
(37.7925 6.65564 -1.63207e-16)
(37.7303 5.43225 3.15985e-17)
(37.5214 4.26484 7.77378e-17)
(37.1847 3.16463 1.16442e-15)
(36.7392 2.13293 -3.98208e-18)
(36.1978 1.17179 -3.10082e-17)
(35.5686 0.2868 -2.61013e-17)
(34.8596 -0.517227 5.71161e-17)
(34.0779 -1.23706 1.55639e-15)
(33.2286 -1.86917 5.48484e-15)
(32.3131 -2.40957 4.3078e-17)
(31.3326 -2.85266 -3.98622e-15)
(30.2716 -3.19163 -3.1114e-15)
(29.1384 -3.40171 -4.60998e-15)
(27.8241 -3.46987 -2.69416e-15)
(26.5265 -3.16918 2.15605e-17)
(24.7231 -2.72839 1.96899e-15)
(18.7308 12.5965 -5.32337e-17)
(18.2284 11.9757 -2.01854e-16)
(17.728 11.2329 4.02846e-16)
(17.2417 10.3838 0)
(16.832 9.47803 8.04092e-16)
(16.4993 8.50326 0)
(16.2644 7.4777 -4.54032e-16)
(16.1414 6.46217 1.82619e-15)
(16.1289 5.49639 -1.41632e-15)
(16.2177 4.58673 0)
(16.3939 3.74657 1.05613e-15)
(16.6427 2.98722 1.02381e-15)
(16.955 2.30351 0)
(17.3223 1.69082 -1.01431e-15)
(17.7371 1.14835 2.46323e-16)
(18.1947 0.672577 -2.4644e-16)
(18.6899 0.262618 2.40624e-16)
(19.217 -0.0813594 4.23971e-16)
(19.7706 -0.358819 -1.50861e-17)
(20.3449 -0.569028 5.16202e-16)
(20.9336 -0.710466 1.53973e-16)
(21.5297 -0.781319 -1.46792e-16)
(22.1251 -0.779249 -4.76787e-16)
(22.7079 -0.703166 4.1125e-16)
(23.261 -0.555248 -3.01476e-16)
(23.7668 -0.343056 -3.21151e-16)
(24.2139 -0.0784773 -1.14164e-16)
(24.5965 0.2267 -1.31691e-18)
(24.911 0.561622 1.02713e-17)
(25.1549 0.91524 5.61136e-17)
(25.3273 1.27652 8.83766e-18)
(25.4285 1.63537 -1.60697e-17)
(25.4591 1.98313 2.97193e-16)
(25.4193 2.31107 -2.69403e-16)
(25.3022 2.61225 1.0973e-17)
(25.1073 2.87219 -7.8317e-16)
(24.7762 3.08123 1.89555e-15)
(24.3704 3.11873 0)
(23.5719 2.97874 -5.9843e-15)
(19.8402 12.6202 8.75144e-18)
(20.4184 13.1478 0)
(21.1052 13.6859 0)
(21.8673 14.1963 -2.02008e-17)
(22.667 14.6393 -1.95378e-17)
(23.5432 15.0314 0)
(24.4697 15.3534 0)
(25.4275 15.5908 -6.95149e-16)
(26.4208 15.7407 -3.47425e-17)
(27.4354 15.7953 -4.19109e-17)
(28.4627 15.7485 -1.59759e-15)
(29.499 15.5943 -4.15599e-16)
(30.5321 15.3273 7.90192e-16)
(31.5512 14.942 -6.75135e-17)
(32.5431 14.4344 0)
(33.4908 13.8031 0)
(34.3763 13.0497 -3.5092e-15)
(35.1794 12.18 -6.42873e-16)
(35.8806 11.2046 6.57034e-16)
(36.4606 10.1388 -1.36953e-15)
(36.9016 9.00456 2.59939e-15)
(37.1917 7.82858 1.23034e-15)
(37.3259 6.64095 -1.18997e-15)
(37.3074 5.47239 -1.34192e-15)
(37.1463 4.34702 2.12532e-16)
(36.8575 3.2765 -1.14742e-15)
(36.4569 2.26512 -1.29421e-16)
(35.957 1.31758 2.88467e-17)
(35.3658 0.440671 -2.88115e-17)
(34.6914 -0.359491 9.68065e-17)
(33.9408 -1.07847 -4.00428e-17)
(33.1194 -1.71186 -2.70988e-15)
(32.2292 -2.2548 -1.02726e-16)
(31.2718 -2.70078 1.21999e-16)
(30.2336 -3.04212 0)
(29.1218 -3.25227 4.28745e-15)
(27.8413 -3.31848 2.5235e-15)
(26.5511 -3.01719 0)
(24.8618 -2.55847 0)
(19.3253 12.0749 0)
(18.8499 11.5041 1.81085e-16)
(18.3733 10.8196 -6.04782e-16)
(17.9069 10.036 -2.9506e-16)
(17.5101 9.20062 -7.32384e-16)
(17.1822 8.29972 0)
(16.9425 7.35005 0)
(16.8056 6.40941 -8.17307e-16)
(16.7699 5.51444 8.57018e-16)
(16.8269 4.67023 0)
(16.9638 3.88877 -4.48024e-16)
(17.1674 3.18049 -4.84095e-16)
(17.4295 2.53978 4.59008e-16)
(17.7428 1.96141 4.76976e-16)
(18.1014 1.44427 -8.86494e-16)
(18.502 0.984962 0)
(18.941 0.582818 -2.0151e-16)
(19.4141 0.238702 1.19961e-17)
(19.9173 -0.0459354 8.96636e-16)
(20.4454 -0.269201 -1.67226e-16)
(20.9926 -0.428426 1.604e-16)
(21.5521 -0.520972 -1.23176e-16)
(22.116 -0.543947 1.74545e-16)
(22.6726 -0.495781 -8.3544e-16)
(23.2054 -0.377784 -2.98093e-16)
(23.6972 -0.195861 2.60988e-16)
(24.1362 0.0398092 -1.60523e-17)
(24.5155 0.31835 0)
(24.8304 0.629259 -9.70948e-18)
(25.0778 0.961755 5.92218e-17)
(25.2558 1.30489 -9.06326e-17)
(25.3641 1.64837 1.59132e-16)
(25.4026 1.98321 -6.00115e-16)
(25.3712 2.30007 6.19368e-16)
(25.2629 2.59117 -9.40196e-18)
(25.0773 2.84077 7.4181e-16)
(24.7617 3.03738 3.45624e-17)
(24.3741 3.06237 -7.42746e-17)
(23.6502 2.90897 -5.36869e-15)
(20.347 12.097 -8.47523e-18)
(20.8929 12.5837 0)
(21.5404 13.08 0)
(22.257 13.55 1.71327e-17)
(23.0058 13.9569 2.01799e-17)
(23.8245 14.317 -9.19139e-17)