/*--------------------------------*- C++ -*----------------------------------*\
  =========                 |
  \\      /  F ield         | OpenFOAM: The Open Source CFD Toolbox
   \\    /   O peration     | Website:  https://openfoam.org
    \\  /    A nd           | Version:  12
     \\/     M anipulation  |
\*---------------------------------------------------------------------------*/
FoamFile
{
    format      ascii;
    class       volVectorField;
    location    "15.46";
    object      U;
}
// * * * * * * * * * * * * * * * * * * * * * * * * * * * * * * * * * * * * * //

dimensions      [0 1 -1 0 0 0 0];

internalField   nonuniform List<vector> 
3829
(
(-3.30006e-06 -0.000408901 0)
(-1.14684e-05 -0.000432746 0)
(-1.83571e-05 -0.000432088 0)
(-2.635e-05 -0.00043026 0)
(-3.42337e-05 -0.000427793 0)
(-4.2632e-05 -0.000424663 0)
(-5.13958e-05 -0.00042087 0)
(-6.06738e-05 -0.000416422 0)
(-7.04652e-05 -0.000411319 0)
(-8.08929e-05 -0.000405576 0)
(-9.19624e-05 -0.000399216 0)
(-0.00010371 -0.000392267 0)
(-0.00011622 -0.000384764 0)
(-0.000129469 -0.000376743 0)
(-0.000143476 -0.000368246 0)
(-0.00015823 -0.000359318 0)
(-0.000173728 -0.000350022 0)
(-0.000189946 -0.000340406 0)
(-0.000206829 -0.000330526 0)
(-0.000224313 -0.000320429 0)
(-0.00024235 -0.000310184 0)
(-0.000260822 -0.000299833 0)
(-0.000279674 -0.000289442 0)
(-0.000298763 -0.000279068 0)
(-0.000317985 -0.000268742 0)
(-0.000337175 -0.00025853 0)
(-0.000356264 -0.000248483 0)
(-0.000375246 -0.000238635 0)
(-0.000393745 -0.000229011 0)
(-0.000411612 -0.000219695 0)
(-0.000428919 -0.000210694 0)
(-0.000445411 -0.000202051 0)
(-0.000461252 -0.000193784 0)
(-0.000475902 -0.000185889 0)
(-0.000489255 -0.000178435 0)
(-0.000501591 -0.000171384 0)
(-0.000512502 -0.000164765 0)
(-0.000521961 -0.000158574 0)
(-0.000529827 -0.000152803 0)
(-0.000536024 -0.000147466 0)
(-0.000540427 -0.000142587 0)
(-0.000543044 -0.000138148 0)
(-0.000543615 -0.000134114 0)
(-0.000541803 -0.000130515 0)
(-0.000537548 -0.000127374 0)
(-0.000530853 -0.000124683 0)
(-0.000521764 -0.000122431 0)
(-0.000510168 -0.000120575 0)
(-0.000496165 -0.000119101 0)
(-0.000479782 -0.000117929 0)
(-0.000461074 -0.000117039 0)
(-0.000440124 -0.000116331 0)
(-0.000416949 -0.000115778 0)
(-0.000391496 -0.000115265 0)
(-0.000364083 -0.000114835 0)
(-0.000335104 -0.000114265 0)
(-0.000304489 -0.00011359 0)
(-0.000272107 -0.000112599 0)
(-0.000238415 -0.000111463 0)
(-0.000203814 -0.000109847 0)
(-0.000168225 -0.000107879 0)
(-0.000132168 -0.000105441 0)
(-9.60191e-05 -0.000102521 0)
(-5.9873e-05 -9.90216e-05 0)
(-2.42865e-05 -9.49767e-05 0)
(1.04385e-05 -9.03119e-05 0)
(4.4081e-05 -8.50191e-05 0)
(7.62994e-05 -7.91022e-05 0)
(0.000106592 -7.26255e-05 0)
(0.000134375 -6.55546e-05 0)
(0.000159659 -5.79621e-05 0)
(0.000181712 -4.98926e-05 0)
(0.000200439 -4.13889e-05 0)
(0.000215487 -3.25419e-05 0)
(0.000226639 -2.34264e-05 0)
(0.000233609 -1.42093e-05 0)
(0.000236665 -4.86808e-06 0)
(0.000234654 4.21136e-06 0)
(0.00022771 1.32561e-05 0)
(0.000216595 2.18109e-05 0)
(0.000200939 2.99736e-05 0)
(0.000181038 3.74678e-05 0)
(0.000157188 4.43178e-05 0)
(0.000129954 5.02692e-05 0)
(9.95075e-05 5.52734e-05 0)
(6.65532e-05 5.9123e-05 0)
(3.13113e-05 6.18738e-05 0)
(-5.30112e-06 6.32873e-05 0)
(-4.2605e-05 6.34189e-05 0)
(-7.98185e-05 6.22183e-05 0)
(-0.000116149 5.96541e-05 0)
(-0.000150876 5.57748e-05 0)
(-0.000183146 5.06304e-05 0)
(-0.000212156 4.43132e-05 0)
(-0.000237161 3.69419e-05 0)
(-0.000257494 2.86597e-05 0)
(-0.000272489 1.96522e-05 0)
(-0.000281739 1.01157e-05 0)
(-0.000284655 3.20668e-07 0)
(-0.000280776 -9.51281e-06 0)
(-0.000270044 -1.91209e-05 0)
(-0.000252864 -2.83032e-05 0)
(-0.0002296 -3.6746e-05 0)
(-0.000200739 -4.42304e-05 0)
(-0.000166952 -5.04731e-05 0)
(-0.000128984 -5.52796e-05 0)
(-8.80706e-05 -5.84588e-05 0)
(-4.50039e-05 -5.98696e-05 0)
(-1.24693e-06 -5.94638e-05 0)
(4.1883e-05 -5.71476e-05 0)
(8.27982e-05 -5.3087e-05 0)
(0.000120326 -4.71646e-05 0)
(0.000153202 -3.98532e-05 0)
(0.000179952 -3.10301e-05 0)
(0.00019987 -2.13731e-05 0)
(0.00021196 -1.08742e-05 0)
(0.000215628 -2.05779e-07 0)
(0.000210261 1.03606e-05 0)
(0.000196077 2.03169e-05 0)
(0.000174001 2.94323e-05 0)
(0.000144899 3.70831e-05 0)
(0.000109865 4.30208e-05 0)
(7.02925e-05 4.69042e-05 0)
(2.81754e-05 4.85829e-05 0)
(-1.47818e-05 4.77491e-05 0)
(-5.61908e-05 4.47014e-05 0)
(-9.38278e-05 3.92274e-05 0)
(-0.000125917 3.18748e-05 0)
(-0.00015059 2.26726e-05 0)
(-0.000166514 1.24101e-05 0)
(-0.000172425 1.36698e-06 0)
(-0.000167503 -9.57792e-06 0)
(-0.000151613 -1.99819e-05 0)
(-0.000126137 -2.92998e-05 0)
(-9.2185e-05 -3.66931e-05 0)
(-5.19062e-05 -4.20425e-05 0)
(-6.9381e-06 -4.44096e-05 0)
(3.95483e-05 -4.41378e-05 0)
(8.35616e-05 -4.06416e-05 0)
(0.000122904 -3.46403e-05 0)
(0.000154681 -2.59632e-05 0)
(0.000176451 -1.56027e-05 0)
(0.000186567 -3.91364e-06 0)
(0.000183279 7.97343e-06 0)
(0.000166394 1.9548e-05 0)
(0.00013736 2.95903e-05 0)
(9.79593e-05 3.76446e-05 0)
(5.10009e-05 4.27568e-05 0)
(-1.09636e-06 4.46201e-05 0)
(-5.34424e-05 4.28568e-05 0)
(-0.000101136 3.76765e-05 0)
(-0.000141007 2.94218e-05 0)
(-0.000169664 1.87729e-05 0)
(-0.000184488 6.64903e-06 0)
(-0.000183574 -5.98222e-06 0)
(-0.000166712 -1.79384e-05 0)
(-0.000135747 -2.8208e-05 0)
(-9.34446e-05 -3.57884e-05 0)
(-4.34115e-05 -3.99218e-05 0)
(1.04974e-05 -4.02708e-05 0)
(6.23348e-05 -3.66718e-05 0)
(0.00010647 -2.96614e-05 0)
(0.00013943 -2.00017e-05 0)
(0.000158066 -8.69726e-06 0)
(0.000160497 2.93221e-06 0)
(0.000146841 1.36956e-05 0)
(0.000119392 2.23159e-05 0)
(8.18303e-05 2.79499e-05 0)
(3.87354e-05 2.98982e-05 0)
(-4.67875e-06 2.80773e-05 0)
(-4.26148e-05 2.2854e-05 0)
(-7.04819e-05 1.50753e-05 0)
(-8.54619e-05 5.91831e-06 0)
(-8.59336e-05 -3.29311e-06 0)
(-7.27451e-05 -1.12798e-05 0)
(-4.8994e-05 -1.69385e-05 0)
(-1.86644e-05 -1.95071e-05 0)
(1.34601e-05 -1.85999e-05 0)
(4.12261e-05 -1.46878e-05 0)
(5.99421e-05 -8.55177e-06 0)
(6.7474e-05 -1.31948e-06 0)
(6.25767e-05 5.62282e-06 0)
(4.67117e-05 1.12392e-05 0)
(2.33064e-05 1.4516e-05 0)
(-4.09864e-06 1.4967e-05 0)
(-2.93901e-05 1.24833e-05 0)
(-4.71721e-05 7.87838e-06 0)
(-5.54855e-05 2.06799e-06 0)
(-5.28553e-05 -3.73747e-06 0)
(-4.02286e-05 -8.53953e-06 0)
(-2.05312e-05 -1.15131e-05 0)
(3.20386e-06 -1.22428e-05 0)
(2.56253e-05 -1.07092e-05 0)
(4.25004e-05 -7.60685e-06 0)
(5.25056e-05 -3.66846e-06 0)
(5.47234e-05 3.13953e-07 0)
(4.97711e-05 3.7657e-06 0)
(3.92457e-05 6.3404e-06 0)
(2.49566e-05 7.97167e-06 0)
(8.53555e-06 8.72154e-06 0)
(1.03129e-06 0.000514819 0)
(4.62217e-06 0.000533459 0)
(8.19693e-06 0.00053474 0)
(1.15139e-05 0.000536179 0)
(1.44526e-05 0.000538042 0)
(1.69087e-05 0.000540303 0)
(1.86942e-05 0.000542902 0)
(1.96501e-05 0.000545746 0)
(1.97304e-05 0.000548742 0)
(1.8626e-05 0.000551796 0)
(1.62544e-05 0.000554722 0)
(1.24918e-05 0.000557443 0)
(7.20317e-06 0.000559723 0)
(3.92806e-07 0.000561527 0)
(-8.00905e-06 0.000562585 0)
(-1.81098e-05 0.000562866 0)
(-2.99283e-05 0.000562163 0)
(-4.33357e-05 0.000560418 0)
(-5.8244e-05 0.000557472 0)
(-7.46613e-05 0.000553263 0)
(-9.24673e-05 0.000547692 0)
(-0.0001115 0.000540715 0)
(-0.000131785 0.00053226 0)
(-0.000152913 0.000522353 0)
(-0.000174807 0.000510974 0)
(-0.000197426 0.000498141 0)
(-0.000220474 0.000483899 0)
(-0.000243737 0.000468313 0)
(-0.000267158 0.000451441 0)
(-0.00029048 0.000433372 0)
(-0.000313476 0.000414105 0)
(-0.000335964 0.00039378 0)
(-0.000357805 0.000372432 0)
(-0.000378785 0.000350125 0)
(-0.000398609 0.000326908 0)
(-0.000417271 0.00030279 0)
(-0.00043458 0.000277898 0)
(-0.000450234 0.000252262 0)
(-0.000464167 0.000225994 0)
(-0.000476482 0.000199205 0)
(-0.000486856 0.000172003 0)
(-0.000494997 0.000144529 0)
(-0.000500923 0.000116852 0)
(-0.000504619 8.90434e-05 0)
(-0.000505831 6.13688e-05 0)
(-0.00050437 3.40212e-05 0)
(-0.000500101 7.14398e-06 0)
(-0.000492905 -1.9108e-05 0)
(-0.0004827 -4.46217e-05 0)
(-0.000469504 -6.92075e-05 0)
(-0.0004533 -9.27737e-05 0)
(-0.000434132 -0.000115101 0)
(-0.000411984 -0.000136184 0)
(-0.000387169 -0.000155686 0)
(-0.000359506 -0.000173711 0)
(-0.000329339 -0.000189812 0)
(-0.000296735 -0.000204147 0)
(-0.000262197 -0.000216187 0)
(-0.000225655 -0.000226281 0)
(-0.000187283 -0.000233849 0)
(-0.000148068 -0.000239203 0)
(-0.000107874 -0.000241916 0)
(-6.71981e-05 -0.000242138 0)
(-2.6345e-05 -0.000239653 0)
(1.40076e-05 -0.00023461 0)
(5.37405e-05 -0.000226824 0)
(9.2288e-05 -0.000216476 0)
(0.000129012 -0.000203534 0)
(0.000163573 -0.000188207 0)
(0.000195353 -0.000170547 0)
(0.000224055 -0.000150752 0)
(0.00024908 -0.000129058 0)
(0.00027017 -0.000105642 0)
(0.000286844 -8.08895e-05 0)
(0.000298631 -5.49638e-05 0)
(0.000305657 -2.84014e-05 0)
(0.00030736 -1.37229e-06 0)
(0.000303403 2.52915e-05 0)
(0.000293714 5.17699e-05 0)
(0.000278569 7.71761e-05 0)
(0.000258314 0.000101441 0)
(0.000232997 0.000123826 0)
(0.000203032 0.000144154 0)
(0.000168737 0.000161821 0)
(0.000130493 0.000176596 0)
(8.93828e-05 0.000187872 0)
(4.55536e-05 0.000195681 0)
(-7.71812e-08 0.00019957 0)
(-4.6175e-05 0.000199463 0)
(-9.22512e-05 0.000195178 0)
(-0.000137186 0.000186799 0)
(-0.000179999 0.000174315 0)
(-0.000219715 0.000157982 0)
(-0.000255327 0.000138 0)
(-0.000285965 0.000114814 0)
(-0.000310783 8.88358e-05 0)
(-0.00032899 6.06513e-05 0)
(-0.000339967 3.08603e-05 0)
(-0.000343096 2.34054e-07 0)
(-0.000337996 -3.04599e-05 0)
(-0.000324717 -6.04457e-05 0)
(-0.000303564 -8.89764e-05 0)
(-0.000274895 -0.000115186 0)
(-0.000239336 -0.000138296 0)
(-0.000197671 -0.000157556 0)
(-0.000150946 -0.000172299 0)
(-0.000100569 -0.000181975 0)
(-4.7744e-05 -0.000186097 0)
(5.92387e-06 -0.00018457 0)
(5.85516e-05 -0.000177153 0)
(0.000108614 -0.000164184 0)
(0.000154177 -0.000145738 0)
(0.000194002 -0.00012253 0)
(0.000226165 -9.52466e-05 0)
(0.000249698 -6.477e-05 0)
(0.000263692 -3.22824e-05 0)
(0.000266928 1.17644e-06 0)
(0.000259279 3.39987e-05 0)
(0.00024111 6.5131e-05 0)
(0.00021314 9.32394e-05 0)
(0.000176259 0.000117032 0)
(0.000132277 0.000135378 0)
(8.28465e-05 0.000147359 0)
(3.0076e-05 0.000152198 0)
(-2.33197e-05 0.000149562 0)
(-7.47322e-05 0.000139483 0)
(-0.000121429 0.000122398 0)
(-0.000161134 9.89018e-05 0)
(-0.00019153 7.0317e-05 0)
(-0.000210813 3.78491e-05 0)
(-0.000217629 3.50315e-06 0)
(-0.000210894 -3.08818e-05 0)
(-0.000191241 -6.3479e-05 0)
(-0.000159342 -9.23489e-05 0)
(-0.00011722 -0.000115541 0)
(-6.69143e-05 -0.000131749 0)
(-1.09913e-05 -0.000139394 0)
(4.66477e-05 -0.000137882 0)
(0.000101321 -0.000127198 0)
(0.000150053 -0.000107791 0)
(0.00018951 -8.09659e-05 0)
(0.000216331 -4.82058e-05 0)
(0.000228729 -1.19577e-05 0)
(0.000224759 2.54784e-05 0)
(0.000204186 6.11254e-05 0)
(0.000168638 9.27236e-05 0)
(0.000120466 0.000117327 0)
(6.28005e-05 0.000133155 0)
(-9.0306e-07 0.000138736 0)
(-6.48726e-05 0.000133017 0)
(-0.000123022 0.000116658 0)
(-0.000171462 9.08169e-05 0)
(-0.000205941 5.75779e-05 0)
(-0.000223478 1.96721e-05 0)
(-0.000221863 -1.94045e-05 0)
(-0.000200936 -5.65006e-05 0)
(-0.000162928 -8.80831e-05 0)
(-0.000111091 -0.000111249 0)
(-5.01091e-05 -0.000123774 0)
(1.52374e-05 -0.000124414 0)
(7.77141e-05 -0.00011292 0)
(0.00013038 -9.08151e-05 0)
(0.000169167 -6.05964e-05 0)
(0.000190235 -2.54397e-05 0)
(0.000191556 1.06157e-05 0)
(0.000173425 4.37732e-05 0)
(0.000138725 7.02099e-05 0)
(9.20099e-05 8.71738e-05 0)
(3.8928e-05 9.2746e-05 0)
(-1.38774e-05 8.66219e-05 0)
(-5.94215e-05 6.99338e-05 0)
(-9.21338e-05 4.548e-05 0)
(-0.000108685 1.6902e-05 0)
(-0.000107435 -1.16904e-05 0)
(-8.96174e-05 -3.63506e-05 0)
(-5.90616e-05 -5.36476e-05 0)
(-2.06936e-05 -6.13218e-05 0)
(1.91896e-05 -5.79188e-05 0)
(5.30615e-05 -4.54465e-05 0)
(7.55195e-05 -2.61372e-05 0)
(8.38098e-05 -3.54271e-06 0)
(7.68902e-05 1.82079e-05 0)
(5.67397e-05 3.5496e-05 0)
(2.74723e-05 4.54718e-05 0)
(-6.31794e-06 4.6545e-05 0)
(-3.70874e-05 3.8589e-05 0)
(-5.83626e-05 2.40286e-05 0)
(-6.78296e-05 5.97161e-06 0)
(-6.40032e-05 -1.20161e-05 0)
(-4.83123e-05 -2.67066e-05 0)
(-2.43437e-05 -3.56054e-05 0)
(4.00856e-06 -3.75103e-05 0)
(3.0268e-05 -3.24908e-05 0)
(4.94779e-05 -2.27399e-05 0)
(6.0269e-05 -1.06241e-05 0)
(6.19287e-05 1.43106e-06 0)
(5.55467e-05 1.16929e-05 0)
(4.32317e-05 1.91777e-05 0)
(2.71889e-05 2.3762e-05 0)
(9.23291e-06 2.5856e-05 0)
(9.5631e-07 -0.000378111 0)
(3.08538e-06 -0.000408474 0)
(4.69346e-06 -0.000404874 0)
(5.6203e-06 -0.000398343 0)
(5.54887e-06 -0.000389388 0)
(4.07499e-06 -0.00037805 0)
(8.52844e-07 -0.000364149 0)
(-4.44553e-06 -0.000347775 0)
(-1.18099e-05 -0.000328836 0)
(-2.20326e-05 -0.000307471 0)
(-3.49287e-05 -0.000283931 0)
(-5.08535e-05 -0.000258658 0)
(-6.95425e-05 -0.000231962 0)
(-9.11523e-05 -0.000204285 0)
(-0.000115567 -0.000176025 0)
(-0.000142266 -0.000147611 0)
(-0.000171398 -0.000119431 0)
(-0.000202523 -9.18921e-05 0)
(-0.000235549 -6.52878e-05 0)
(-0.000269989 -4.00049e-05 0)
(-0.000305623 -1.62677e-05 0)
(-0.000342119 5.62393e-06 0)
(-0.00037897 2.55323e-05 0)
(-0.000415648 4.32309e-05 0)
(-0.000452108 5.87211e-05 0)
(-0.000487817 7.16348e-05 0)
(-0.000522391 8.23544e-05 0)
(-0.000555741 9.03221e-05 0)
(-0.000587436 9.60519e-05 0)
(-0.000617652 9.91703e-05 0)
(-0.000646162 9.9963e-05 0)
(-0.00067253 9.81698e-05 0)
(-0.000697328 9.40774e-05 0)
(-0.000719996 8.76869e-05 0)
(-0.000740693 7.90907e-05 0)
(-0.000759272 6.83328e-05 0)
(-0.000775379 5.56445e-05 0)
(-0.000789166 4.09343e-05 0)
(-0.000800194 2.42438e-05 0)
(-0.000808492 5.62242e-06 0)
(-0.000813775 -1.48647e-05 0)
(-0.000816197 -3.70469e-05 0)
(-0.000815902 -6.07273e-05 0)
(-0.000811614 -8.55989e-05 0)
(-0.000802682 -0.000111646 0)
(-0.000789752 -0.000138697 0)
(-0.000773083 -0.000166489 0)
(-0.000752737 -0.000194741 0)
(-0.000728676 -0.000223175 0)
(-0.000701063 -0.000251435 0)
(-0.000669864 -0.000279275 0)
(-0.000635559 -0.000306268 0)
(-0.00059771 -0.000332066 0)
(-0.000556787 -0.000356359 0)
(-0.00051265 -0.000378834 0)
(-0.00046591 -0.000398951 0)
(-0.000416273 -0.000416651 0)
(-0.000364445 -0.00043137 0)
(-0.000310719 -0.00044295 0)
(-0.00025526 -0.000451088 0)
(-0.000198849 -0.0004555 0)
(-0.000141217 -0.000455972 0)
(-8.36812e-05 -0.000452311 0)
(-2.6315e-05 -0.000444475 0)
(3.01644e-05 -0.000432243 0)
(8.53603e-05 -0.00041566 0)
(0.000138423 -0.000394737 0)
(0.000188908 -0.000369585 0)
(0.000236065 -0.000340324 0)
(0.000279362 -0.000307216 0)
(0.000318141 -0.000270504 0)
(0.000351854 -0.000230641 0)
(0.000379898 -0.000187847 0)
(0.000401983 -0.00014284 0)
(0.000417454 -9.59872e-05 0)
(0.000426142 -4.79984e-05 0)
(0.000427278 5.19327e-07 0)
(0.000421078 4.88389e-05 0)
(0.000407617 9.61634e-05 0)
(0.000386793 0.000141786 0)
(0.000358932 0.000185105 0)
(0.000324034 0.000225067 0)
(0.000282955 0.000261139 0)
(0.000236119 0.00029244 0)
(0.000183801 0.000318379 0)
(0.000127632 0.000338375 0)
(6.83679e-05 0.00035176 0)
(6.61686e-06 0.000358317 0)
(-5.60169e-05 0.000357565 0)
(-0.000118295 0.000349467 0)
(-0.000178898 0.000333988 0)
(-0.000236602 0.000311222 0)
(-0.000289968 0.000281592 0)
(-0.0003377 0.000245493 0)
(-0.000378527 0.000203677 0)
(-0.000411466 0.000156939 0)
(-0.000435429 0.000106316 0)
(-0.000449605 5.29194e-05 0)
(-0.00045307 -1.94878e-06 0)
(-0.000445528 -5.69143e-05 0)
(-0.000427131 -0.000110557 0)
(-0.00039816 -0.000161398 0)
(-0.000359038 -0.000208087 0)
(-0.000310698 -0.000249042 0)
(-0.000254226 -0.00028307 0)
(-0.000191 -0.000308911 0)
(-0.000122803 -0.000325678 0)
(-5.16204e-05 -0.000332562 0)
(2.04388e-05 -0.000329238 0)
(9.0974e-05 -0.000315424 0)
(0.000157702 -0.00029151 0)
(0.000218554 -0.000257978 0)
(0.000270961 -0.000215989 0)
(0.000313159 -0.000166693 0)
(0.000343439 -0.000111777 0)
(0.000360621 -5.3342e-05 0)
(0.000363325 6.59299e-06 0)
(0.000351166 6.55573e-05 0)
(0.000325132 0.000121324 0)
(0.000285789 0.000171318 0)
(0.000234622 0.000213585 0)
(0.000173726 0.000245843 0)
(0.000105356 0.000266693 0)
(3.27785e-05 0.000274903 0)
(-4.05301e-05 0.000269472 0)
(-0.000110674 0.000250743 0)
(-0.000174334 0.000219407 0)
(-0.000228094 0.000176788 0)
(-0.000269016 0.000125059 0)
(-0.000294642 6.65609e-05 0)
(-0.000302758 4.58971e-06 0)
(-0.000293061 -5.7508e-05 0)
(-0.00026556 -0.000116125 0)
(-0.00022157 -0.000167788 0)
(-0.00016363 -0.000209258 0)
(-9.47176e-05 -0.000237835 0)
(-1.79358e-05 -0.000251293 0)
(6.07197e-05 -0.000248165 0)
(0.000135421 -0.0002285 0)
(0.000201755 -0.000193426 0)
(0.000255209 -0.000144931 0)
(0.00029157 -8.59929e-05 0)
(0.0003081 -2.07024e-05 0)
(0.000302483 4.62978e-05 0)
(0.000274845 0.000110329 0)
(0.000226987 0.000166373 0)
(0.000161751 0.000210258 0)
(8.44311e-05 0.000238027 0)
(-1.20348e-06 0.000247376 0)
(-8.69411e-05 0.000236696 0)
(-0.000164534 0.000206915 0)
(-0.000228801 0.000160444 0)
(-0.000274201 0.000100842 0)
(-0.000296353 3.31909e-05 0)
(-0.00029303 -3.66123e-05 0)
(-0.000264308 -0.000102337 0)
(-0.000212709 -0.000158148 0)
(-0.000143095 -0.000198643 0)
(-6.16124e-05 -0.000220098 0)
(2.50651e-05 -0.000220021 0)
(0.000107234 -0.000198628 0)
(0.000175679 -0.000158484 0)
(0.000224971 -0.000104063 0)
(0.000250225 -4.12348e-05 0)
(0.000249085 2.29158e-05 0)
(0.000222282 8.14253e-05 0)
(0.000173751 0.000127783 0)
(0.000109802 0.000156827 0)
(3.81804e-05 0.000165659 0)
(-3.21156e-05 0.000152936 0)
(-9.16419e-05 0.000122164 0)
(-0.000133013 7.78124e-05 0)
(-0.000152141 2.63784e-05 0)
(-0.000147367 -2.46368e-05 0)
(-0.000120632 -6.82063e-05 0)
(-7.72166e-05 -9.82024e-05 0)
(-2.35334e-05 -0.000110818 0)
(3.08353e-05 -0.000103681 0)
(7.57372e-05 -8.04122e-05 0)
(0.000104974 -4.51278e-05 0)
(0.000114611 -4.32585e-06 0)
(0.000103628 3.43644e-05 0)
(7.50926e-05 6.48433e-05 0)
(3.47252e-05 8.19014e-05 0)
(-1.10118e-05 8.30096e-05 0)
(-5.19276e-05 6.81402e-05 0)
(-7.94961e-05 4.17435e-05 0)
(-9.08289e-05 9.31172e-06 0)
(-8.4555e-05 -2.25091e-05 0)
(-6.2881e-05 -4.80725e-05 0)
(-3.08262e-05 -6.3017e-05 0)
(6.0605e-06 -6.5473e-05 0)
(3.92559e-05 -5.58062e-05 0)
(6.24918e-05 -3.82254e-05 0)
(7.43775e-05 -1.68839e-05 0)
(7.47073e-05 3.75801e-06 0)
(6.54986e-05 2.08311e-05 0)
(4.98351e-05 3.27549e-05 0)
(3.07584e-05 3.96987e-05 0)
(1.03403e-05 4.2724e-05 0)
(1.54517e-05 0.000418827 0)
(4.94546e-05 0.000433208 0)
(8.34731e-05 0.000445157 0)
(0.000117524 0.000462638 0)
(0.0001509 0.000486147 0)
(0.000183576 0.000514624 0)
(0.000214988 0.000548517 0)
(0.000244683 0.000585247 0)
(0.00027255 0.000625651 0)
(0.000296028 0.000666453 0)
(0.000313382 0.000707984 0)
(0.000324211 0.000748279 0)
(0.000328502 0.000787088 0)
(0.000325841 0.000823037 0)
(0.000316456 0.000855662 0)
(0.000300507 0.000884056 0)
(0.000278204 0.000907916 0)
(0.000250384 0.000926385 0)
(0.000217254 0.000939926 0)
(0.000179362 0.000947507 0)
(0.000137639 0.000949285 0)
(9.28343e-05 0.000945105 0)
(4.54026e-05 0.000935506 0)
(-3.42055e-06 0.00091999 0)
(-5.43175e-05 0.000899828 0)
(-0.000105154 0.000874613 0)
(-0.000156571 0.000845847 0)
(-0.000207746 0.000813175 0)
(-0.000257633 0.000778283 0)
(-0.00030722 0.000740582 0)
(-0.000355795 0.000701159 0)
(-0.000403252 0.000659555 0)
(-0.00044823 0.000616146 0)
(-0.000491501 0.000570668 0)
(-0.00053272 0.000523197 0)
(-0.000571081 0.000473745 0)
(-0.000606813 0.000422369 0)
(-0.000640405 0.000369223 0)
(-0.000671065 0.000314568 0)
(-0.000698786 0.000258671 0)
(-0.000722832 0.00020172 0)
(-0.000742474 0.000143918 0)
(-0.000757215 8.54794e-05 0)
(-0.000767806 2.65306e-05 0)
(-0.000774609 -3.23772e-05 0)
(-0.000776521 -9.09572e-05 0)
(-0.000773056 -0.000148675 0)
(-0.000764133 -0.000205401 0)
(-0.000749461 -0.00026094 0)
(-0.000729274 -0.000314674 0)
(-0.000703378 -0.000366496 0)
(-0.000671543 -0.000415877 0)
(-0.000634265 -0.000462372 0)
(-0.000592111 -0.000505487 0)
(-0.000544084 -0.000544986 0)
(-0.000491646 -0.000580241 0)
(-0.000434823 -0.00061092 0)
(-0.000373815 -0.000636768 0)
(-0.000309652 -0.000656978 0)
(-0.000242108 -0.000671697 0)
(-0.000172514 -0.000680042 0)
(-0.000101123 -0.000682222 0)
(-2.91439e-05 -0.000677739 0)
(4.32015e-05 -0.000666552 0)
(0.000114934 -0.000648507 0)
(0.000185073 -0.000623663 0)
(0.000252819 -0.00059207 0)
(0.000317241 -0.000553856 0)
(0.0003775 -0.000509371 0)
(0.000432621 -0.000458822 0)
(0.000481684 -0.0004028 0)
(0.000524313 -0.000341736 0)
(0.000559457 -0.000276431 0)
(0.000586217 -0.000207567 0)
(0.000604335 -0.000136022 0)
(0.000613308 -6.26102e-05 0)
(0.00061257 1.1289e-05 0)
(0.000601455 8.49588e-05 0)
(0.000580159 0.000157119 0)
(0.00054959 0.000226789 0)
(0.000509219 0.000292518 0)
(0.000459459 0.000353304 0)
(0.00040142 0.000407907 0)
(0.000335384 0.000455216 0)
(0.000262657 0.000494197 0)
(0.000184299 0.000524066 0)
(0.000101615 0.00054379 0)
(1.60334e-05 0.000552908 0)
(-7.05561e-05 0.000550944 0)
(-0.000156384 0.0005376 0)
(-0.000239986 0.000512992 0)
(-0.000319219 0.000477296 0)
(-0.000392357 0.00043098 0)
(-0.000457622 0.000374894 0)
(-0.000513242 0.000310049 0)
(-0.00055781 0.000237807 0)
(-0.000589903 0.000159666 0)
(-0.000608443 7.74738e-05 0)
(-0.000612325 -6.88148e-06 0)
(-0.000601175 -9.13346e-05 0)
(-0.00057505 -0.000173542 0)
(-0.000534587 -0.000251448 0)
(-0.000480166 -0.000322691 0)
(-0.000413003 -0.000385078 0)
(-0.000334821 -0.000436749 0)
(-0.000247547 -0.000475672 0)
(-0.000153723 -0.000500597 0)
(-5.59392e-05 -0.000510266 0)
(4.29757e-05 -0.000504046 0)
(0.000139589 -0.000481967 0)
(0.00023075 -0.000444231 0)
(0.000313057 -0.000391959 0)
(0.000383898 -0.000326634 0)
(0.000440539 -0.00025016 0)
(0.000480263 -0.000165396 0)
(0.000501723 -7.51555e-05 0)
(0.000503307 1.69918e-05 0)
(0.000484779 0.000107802 0)
(0.000446658 0.000193376 0)
(0.000390418 0.000270135 0)
(0.000317871 0.000334658 0)
(0.000232093 0.000383639 0)
(0.000136874 0.000414704 0)
(3.52991e-05 0.00042611 0)
(-6.70036e-05 0.000416811 0)
(-0.000164347 0.000386991 0)
(-0.000252364 0.000337852 0)
(-0.000326313 0.000271397 0)
(-0.000382323 0.000190645 0)
(-0.000416974 0.000100004 0)
(-0.000427524 3.88058e-06 0)
(-0.000412837 -9.19388e-05 0)
(-0.000373655 -0.00018249 0)
(-0.000311691 -0.000262012 0)
(-0.000230558 -0.000325734 0)
(-0.000134268 -0.000369221 0)
(-2.75332e-05 -0.00038938 0)
(8.19522e-05 -0.00038383 0)
(0.000185502 -0.000352846 0)
(0.000277241 -0.000298023 0)
(0.000351212 -0.000222777 0)
(0.000401232 -0.000131542 0)
(0.00042342 -3.08302e-05 0)
(0.000415428 7.24873e-05 0)
(0.000376976 0.000170645 0)
(0.000310839 0.000256729 0)
(0.000221297 0.000323375 0)
(0.000114549 0.000365519 0)
(-2.56681e-06 0.000379095 0)
(-0.000119663 0.000361645 0)
(-0.000225247 0.000315369 0)
(-0.000312115 0.000243282 0)
(-0.000372818 0.000151478 0)
(-0.000401701 4.76435e-05 0)
(-0.000395627 -5.89851e-05 0)
(-0.000355051 -0.000159215 0)
(-0.000283716 -0.000243765 0)
(-0.000188004 -0.000304434 0)
(-7.65296e-05 -0.000335627 0)
(4.09507e-05 -0.00033404 0)
(0.000151079 -0.0002998 0)
(0.000241981 -0.000237141 0)
(0.000306048 -0.000152903 0)
(0.000336856 -5.64198e-05 0)
(0.000331636 4.13897e-05 0)
(0.000291875 0.000130014 0)
(0.000222994 0.00019943 0)
(0.000133964 0.000241885 0)
(3.49177e-05 0.000253325 0)
(-6.05358e-05 0.000231666 0)
(-0.000139301 0.000182814 0)
(-0.000192898 0.00011357 0)
(-0.000215291 3.41028e-05 0)
(-0.000204797 -4.40349e-05 0)
(-0.000164553 -0.000109892 0)
(-0.000102069 -0.000154477 0)
(-2.63225e-05 -0.000171917 0)
(4.88927e-05 -0.000159405 0)
(0.000109771 -0.000122149 0)
(0.000148456 -6.6888e-05 0)
(0.00015922 -3.75522e-06 0)
(0.000141813 5.58084e-05 0)
(0.000100907 0.000101863 0)
(4.42466e-05 0.000126933 0)
(-1.86585e-05 0.000127117 0)
(-7.39478e-05 0.000103038 0)
(-0.000110381 6.17979e-05 0)
(-0.000124045 1.20225e-05 0)
(-0.000113687 -3.62966e-05 0)
(-8.30372e-05 -7.43422e-05 0)
(-3.91606e-05 -9.56704e-05 0)
(9.9269e-06 -9.78515e-05 0)
(5.27033e-05 -8.18843e-05 0)
(8.12299e-05 -5.43974e-05 0)
(9.41713e-05 -2.22343e-05 0)
(9.20754e-05 7.92355e-06 0)
(7.8496e-05 3.18961e-05 0)
(5.80226e-05 4.77424e-05 0)
(3.49326e-05 5.62731e-05 0)
(1.1567e-05 5.96151e-05 0)
(3.82488e-05 -0.000739811 0)
(0.000118339 -0.000782299 0)
(0.000197151 -0.000774435 0)
(0.000273584 -0.000760819 0)
(0.000343716 -0.000739094 0)
(0.00040834 -0.000712467 0)
(0.000460288 -0.000673764 0)
(0.000499256 -0.000629078 0)
(0.000517824 -0.000566935 0)
(0.000515587 -0.000492651 0)
(0.000499692 -0.00040447 0)
(0.000467189 -0.000313024 0)
(0.000421662 -0.000217277 0)
(0.000362514 -0.000122303 0)
(0.000292875 -2.83661e-05 0)
(0.000214472 6.17715e-05 0)
(0.000128164 0.000146903 0)
(3.80204e-05 0.000225848 0)
(-5.70779e-05 0.000297517 0)
(-0.000155517 0.000359415 0)
(-0.000253943 0.000413313 0)
(-0.000350372 0.000458413 0)
(-0.000445797 0.000496657 0)
(-0.000535983 0.000524827 0)
(-0.00062079 0.000547662 0)
(-0.000698324 0.000559661 0)
(-0.000768567 0.00056911 0)
(-0.000830452 0.000567548 0)
(-0.000885268 0.000567371 0)
(-0.000935334 0.000557144 0)
(-0.000980467 0.000546215 0)
(-0.00102295 0.000528473 0)
(-0.00106233 0.000507443 0)
(-0.00109942 0.000481428 0)
(-0.00113332 0.000451295 0)
(-0.00116432 0.000416566 0)
(-0.00119199 0.000377 0)
(-0.00121587 0.00033281 0)
(-0.00123508 0.000283951 0)
(-0.00124984 0.000230673 0)
(-0.00126002 0.00017338 0)
(-0.00126551 0.00011246 0)
(-0.00126667 4.84614e-05 0)
(-0.00126119 -1.80527e-05 0)
(-0.00124792 -8.66854e-05 0)
(-0.00122752 -0.000157094 0)
(-0.00120082 -0.00022857 0)
(-0.0011692 -0.000300714 0)
(-0.00113086 -0.000372312 0)
(-0.00108635 -0.000443107 0)
(-0.00103608 -0.000511888 0)
(-0.000979248 -0.000578551 0)
(-0.000915829 -0.000641738 0)
(-0.000847074 -0.000701009 0)
(-0.000772417 -0.000755384 0)
(-0.000692316 -0.000804536 0)
(-0.000607858 -0.000847323 0)
(-0.000518194 -0.000883469 0)
(-0.000425087 -0.000911956 0)
(-0.00032854 -0.000932627 0)
(-0.000229594 -0.000944721 0)
(-0.0001294 -0.000947992 0)
(-2.84186e-05 -0.000941919 0)
(7.20833e-05 -0.000926297 0)
(0.000171093 -0.000901068 0)
(0.000267498 -0.000866081 0)
(0.000360278 -0.000821567 0)
(0.000448105 -0.000767636 0)
(0.000530065 -0.000704723 0)
(0.000604901 -0.00063333 0)
(0.000671364 -0.000554066 0)
(0.000728521 -0.000467704 0)
(0.000775109 -0.000375443 0)
(0.000810627 -0.000278026 0)
(0.000834359 -0.000176794 0)
(0.000844928 -7.32533e-05 0)
(0.000841962 3.12539e-05 0)
(0.000826079 0.000135311 0)
(0.000796911 0.000237187 0)
(0.000754176 0.000335423 0)
(0.000698235 0.000427958 0)
(0.000629925 0.000513462 0)
(0.000550045 0.000590046 0)
(0.00045967 0.00065629 0)
(0.000360146 0.000710626 0)
(0.000253215 0.000751772 0)
(0.000140589 0.000778668 0)
(2.43665e-05 0.00079037 0)
(-9.33656e-05 0.000786435 0)
(-0.000209919 0.000766123 0)
(-0.000322877 0.000729998 0)
(-0.000430171 0.000678035 0)
(-0.00052892 0.000611198 0)
(-0.000616662 0.000530408 0)
(-0.00069116 0.000437234 0)
(-0.000750518 0.000333582 0)
(-0.000792804 0.000221864 0)
(-0.00081661 0.000104464 0)
(-0.000820782 -1.56094e-05 0)
(-0.000804433 -0.000135617 0)
(-0.000768037 -0.00025262 0)
(-0.000712142 -0.000363073 0)
(-0.000637215 -0.000463858 0)
(-0.000545476 -0.000551919 0)
(-0.000438683 -0.000624346 0)
(-0.00031969 -0.000678687 0)
(-0.000191999 -0.000712967 0)
(-5.89537e-05 -0.000725555 0)
(7.47656e-05 -0.000715664 0)
(0.000205092 -0.000682813 0)
(0.000327748 -0.00062793 0)
(0.00043832 -0.000552124 0)
(0.000533026 -0.00045804 0)
(0.000607872 -0.000348036 0)
(0.000659719 -0.000226461 0)
(0.000686489 -9.733e-05 0)
(0.000686479 3.44481e-05 0)
(0.000659204 0.00016381 0)
(0.000605411 0.000285594 0)
(0.00052693 0.000394337 0)
(0.000426157 0.000485438 0)
(0.000307314 0.000554237 0)
(0.000175547 0.000597754 0)
(3.63613e-05 0.000612606 0)
(-0.000103428 0.000598103 0)
(-0.000236313 0.000553844 0)
(-0.000356213 0.000482284 0)
(-0.000457076 0.000385738 0)
(-0.000532611 0.000269341 0)
(-0.000578627 0.000138661 0)
(-0.000591378 9.93037e-07 0)
(-0.000570128 -0.000136386 0)
(-0.000515552 -0.000265773 0)
(-0.000429785 -0.00037928 0)
(-0.000317794 -0.000469804 0)
(-0.000185348 -0.000531077 0)
(-3.88142e-05 -0.000559061 0)
(0.000110979 -0.00054964 0)
(0.000252608 -0.000504628 0)
(0.000377577 -0.000425119 0)
(0.000477833 -0.000316741 0)
(0.000545396 -0.000186061 0)
(0.000574864 -4.1786e-05 0)
(0.00056299 0.000105161 0)
(0.000510386 0.000245255 0)
(0.00042006 0.000366981 0)
(0.000297809 0.000461298 0)
(0.000153389 0.000519922 0)
(-5.71022e-06 0.000537669 0)
(-0.00016363 0.000511909 0)
(-0.000305532 0.000444849 0)
(-0.000421886 0.000341356 0)
(-0.000502135 0.000210378 0)
(-0.000538851 6.2656e-05 0)
(-0.00052872 -8.86702e-05 0)
(-0.000472508 -0.000229893 0)
(-0.000374589 -0.000348259 0)
(-0.000244476 -0.000432502 0)
(-9.41481e-05 -0.000474469 0)
(6.32422e-05 -0.000469848 0)
(0.000209875 -0.000418899 0)
(0.000329703 -0.000328313 0)
(0.000412424 -0.000207898 0)
(0.00044957 -7.05913e-05 0)
(0.000438273 6.77784e-05 0)
(0.000380915 0.000192116 0)
(0.000284875 0.000288581 0)
(0.000162891 0.000346077 0)
(2.85568e-05 0.000358882 0)
(-9.93915e-05 0.000325708 0)
(-0.00020321 0.000253613 0)
(-0.000272026 0.00015333 0)
(-0.000297879 3.9446e-05 0)
(-0.00027909 -7.12463e-05 0)
(-0.000220604 -0.000163667 0)
(-0.00013285 -0.000224925 0)
(-2.81444e-05 -0.000247128 0)
(7.40436e-05 -0.000226897 0)
(0.000155378 -0.000171357 0)
(0.000205844 -9.12644e-05 0)
(0.000218006 -9.6041e-07 0)
(0.000191681 8.37183e-05 0)
(0.000133806 0.000148189 0)
(5.54606e-05 0.000182077 0)
(-3.00589e-05 0.000180194 0)
(-0.000103758 0.000144412 0)
(-0.000151014 8.46439e-05 0)
(-0.000167102 1.35435e-05 0)
(-0.000150998 -5.43463e-05 0)
(-0.000108117 -0.000106658 0)
(-4.86363e-05 -0.000134726 0)
(1.61494e-05 -0.000135319 0)
(7.10412e-05 -0.000110932 0)
(0.000105725 -7.1247e-05 0)
(0.000119104 -2.63911e-05 0)
(0.000113169 1.44898e-05 0)
(9.35217e-05 4.53953e-05 0)
(6.68391e-05 6.43932e-05 0)
(3.89763e-05 7.34839e-05 0)
(1.26399e-05 7.6495e-05 0)
(4.6441e-05 -0.000443884 0)
(0.000146701 -0.000445786 0)
(0.000245723 -0.000406456 0)
(0.000358117 -0.000346511 0)
(0.000472186 -0.000257686 0)
(0.000608312 -0.000147454 0)
(0.000742347 1.39138e-05 0)
(0.000890483 0.000189476 0)
(0.00102389 0.000436592 0)
(0.00111497 0.000660588 0)
(0.00118004 0.000872349 0)
(0.00120463 0.00105493 0)
(0.00120646 0.00122206 0)
(0.00117862 0.00136869 0)
(0.00113134 0.00149561 0)
(0.00106143 0.00160071 0)
(0.000974028 0.0016837 0)
(0.000872003 0.00174487 0)