#           v             n
     0.523599             0
     0.648652             0
     0.790112             0
     0.953116             0
      1.13449             0
      1.34047             0
      1.56672             0
      1.82069             0
      2.09677    0.00999473
      2.40376    0.00999223
      2.73462    0.00999514
      3.09966    0.00999059
      3.49026    0.00999642
      3.91837     0.0099941
      4.37366             0
      4.86986             0
       5.3948             0
      5.96412             0
      6.56366             0
      7.21112             0
      7.89023             0
      8.62085             0
      9.38447             0
      10.2033             0
      11.0564             0
      11.9684             0
      12.9159             0
      13.9262             0
      14.9731             0
