/*--------------------------------*- C++ -*----------------------------------*\
  =========                 |
  \\      /  F ield         | OpenFOAM: The Open Source CFD Toolbox
   \\    /   O peration     | Website:  https://openfoam.org
    \\  /    A nd           | Version:  12
     \\/     M anipulation  |
\*---------------------------------------------------------------------------*/
FoamFile
{
    format      ascii;
    class       volScalarField;
    location    "4.18";
    object      p;
}
// * * * * * * * * * * * * * * * * * * * * * * * * * * * * * * * * * * * * * //

dimensions      [1 -1 -2 0 0 0 0];

internalField   nonuniform List<scalar> 
3829
(
-616.29
-616.289
-616.288
-616.286
-616.283
-616.279
-616.275
-616.269
-616.263
-616.256
-616.248
-616.24
-616.23
-616.219
-616.207
-616.193
-616.179
-616.163
-616.147
-616.128
-616.109
-616.088
-616.066
-616.043
-616.018
-615.991
-615.964
-615.935
-615.904
-615.872
-615.839
-615.805
-615.769
-615.733
-615.695
-615.656
-615.616
-615.576
-615.534
-615.492
-615.45
-615.407
-615.363
-615.32
-615.277
-615.234
-615.191
-615.148
-615.106
-615.065
-615.024
-614.985
-614.947
-614.91
-614.874
-614.84
-614.807
-614.777
-614.749
-614.722
-614.697
-614.673
-614.652
-614.633
-614.616
-614.602
-614.589
-614.578
-614.569
-614.562
-614.556
-614.551
-614.548
-614.546
-614.545
-614.544
-614.544
-614.544
-614.544
-614.543
-614.543
-614.541
-614.539
-614.536
-614.532
-614.526
-614.519
-614.511
-614.501
-614.49
-614.477
-614.463
-614.448
-614.433
-614.416
-614.399
-614.382
-614.365
-614.348
-614.332
-614.317
-614.303
-614.291
-614.28
-614.272
-614.265
-614.261
-614.259
-614.26
-614.263
-614.268
-614.275
-614.284
-614.295
-614.307
-614.32
-614.333
-614.347
-614.361
-614.374
-614.387
-614.398
-614.408
-614.416
-614.423
-614.427
-614.43
-614.43
-614.428
-614.425
-614.419
-614.412
-614.404
-614.394
-614.383
-614.372
-614.36
-614.348
-614.336
-614.325
-614.314
-614.304
-614.296
-614.289
-614.283
-614.278
-614.276
-614.274
-614.275
-614.277
-614.28
-614.284
-614.29
-614.297
-614.305
-614.313
-614.322
-614.331
-614.34
-614.35
-614.358
-614.367
-614.375
-614.382
-614.388
-614.393
-614.398
-614.401
-614.403
-614.405
-614.405
-614.404
-614.402
-614.399
-614.395
-614.39
-614.385
-614.379
-614.373
-614.366
-614.359
-614.352
-614.345
-614.338
-614.331
-614.324
-614.318
-614.312
-614.306
-614.301
-614.296
-614.291
-614.287
-614.284
-614.281
-614.278
-614.276
-614.275
-614.274
-614.273
-1774.72
-1774.72
-1774.72
-1774.71
-1774.71
-1774.71
-1774.7
-1774.7
-1774.69
-1774.69
-1774.68
-1774.67
-1774.66
-1774.65
-1774.64
-1774.63
-1774.61
-1774.6
-1774.58
-1774.56
-1774.54
-1774.52
-1774.49
-1774.47
-1774.44
-1774.41
-1774.38
-1774.35
-1774.32
-1774.28
-1774.25
-1774.21
-1774.17
-1774.13
-1774.09
-1774.04
-1774
-1773.96
-1773.91
-1773.86
-1773.82
-1773.77
-1773.72
-1773.67
-1773.63
-1773.58
-1773.53
-1773.49
-1773.44
-1773.4
-1773.35
-1773.31
-1773.27
-1773.23
-1773.2
-1773.16
-1773.13
-1773.1
-1773.07
-1773.04
-1773.02
-1772.99
-1772.97
-1772.96
-1772.94
-1772.93
-1772.92
-1772.91
-1772.91
-1772.9
-1772.9
-1772.9
-1772.9
-1772.9
-1772.9
-1772.91
-1772.91
-1772.91
-1772.92
-1772.92
-1772.92
-1772.92
-1772.92
-1772.92
-1772.92
-1772.91
-1772.9
-1772.9
-1772.89
-1772.87
-1772.86
-1772.84
-1772.83
-1772.81
-1772.79
-1772.77
-1772.75
-1772.73
-1772.71
-1772.69
-1772.67
-1772.66
-1772.64
-1772.63
-1772.62
-1772.62
-1772.61
-1772.61
-1772.61
-1772.62
-1772.62
-1772.63
-1772.64
-1772.66
-1772.67
-1772.69
-1772.7
-1772.72
-1772.73
-1772.75
-1772.76
-1772.78
-1772.79
-1772.8
-1772.8
-1772.81
-1772.81
-1772.81
-1772.81
-1772.8
-1772.8
-1772.79
-1772.78
-1772.77
-1772.76
-1772.74
-1772.73
-1772.72
-1772.7
-1772.69
-1772.68
-1772.67
-1772.66
-1772.65
-1772.65
-1772.64
-1772.64
-1772.64
-1772.64
-1772.64
-1772.65
-1772.65
-1772.66
-1772.66
-1772.67
-1772.68
-1772.69
-1772.7
-1772.71
-1772.72
-1772.73
-1772.74
-1772.75
-1772.75
-1772.76
-1772.77
-1772.77
-1772.77
-1772.78
-1772.78
-1772.78
-1772.78
-1772.77
-1772.77
-1772.77
-1772.76
-1772.76
-1772.75
-1772.74
-1772.74
-1772.73
-1772.72
-1772.71
-1772.71
-1772.7
-1772.69
-1772.69
-1772.68
-1772.68
-1772.67
-1772.66
-1772.66
-1772.66
-1772.65
-1772.65
-1772.65
-1772.65
-1772.64
-1772.64
-1772.64
-2800.98
-2800.98
-2800.98
-2800.98
-2800.97
-2800.97
-2800.97
-2800.97
-2800.96
-2800.96
-2800.95
-2800.94
-2800.93
-2800.92
-2800.91
-2800.9
-2800.89
-2800.87
-2800.85
-2800.84
-2800.81
-2800.79
-2800.76
-2800.74
-2800.71
-2800.67
-2800.64
-2800.6
-2800.56
-2800.52
-2800.48
-2800.44
-2800.39
-2800.34
-2800.29
-2800.24
-2800.19
-2800.14
-2800.08
-2800.03
-2799.97
-2799.92
-2799.86
-2799.81
-2799.75
-2799.7
-2799.64
-2799.59
-2799.54
-2799.49
-2799.44
-2799.39
-2799.35
-2799.31
-2799.27
-2799.23
-2799.19
-2799.16
-2799.13
-2799.11
-2799.08
-2799.06
-2799.05
-2799.03
-2799.02
-2799.01
-2799.01
-2799.01
-2799.01
-2799.01
-2799.01
-2799.02
-2799.03
-2799.04
-2799.04
-2799.05
-2799.06
-2799.07
-2799.08
-2799.09
-2799.1
-2799.1
-2799.11
-2799.11
-2799.11
-2799.1
-2799.1
-2799.09
-2799.07
-2799.06
-2799.04
-2799.02
-2799
-2798.98
-2798.96
-2798.93
-2798.91
-2798.88
-2798.86
-2798.83
-2798.81
-2798.79
-2798.78
-2798.76
-2798.75
-2798.74
-2798.74
-2798.74
-2798.74
-2798.75
-2798.76
-2798.77
-2798.79
-2798.8
-2798.82
-2798.84
-2798.86
-2798.88
-2798.9
-2798.92
-2798.94
-2798.95
-2798.96
-2798.97
-2798.98
-2798.99
-2798.99
-2798.99
-2798.98
-2798.98
-2798.97
-2798.96
-2798.95
-2798.93
-2798.92
-2798.9
-2798.89
-2798.87
-2798.86
-2798.85
-2798.83
-2798.82
-2798.81
-2798.81
-2798.8
-2798.79
-2798.79
-2798.79
-2798.79
-2798.8
-2798.8
-2798.81
-2798.81
-2798.82
-2798.83
-2798.84
-2798.85
-2798.86
-2798.87
-2798.88
-2798.89
-2798.9
-2798.91
-2798.92
-2798.92
-2798.93
-2798.93
-2798.94
-2798.94
-2798.94
-2798.94
-2798.94
-2798.94
-2798.93
-2798.93
-2798.92
-2798.92
-2798.91
-2798.9
-2798.9
-2798.89
-2798.88
-2798.87
-2798.87
-2798.86
-2798.85
-2798.85
-2798.84
-2798.83
-2798.83
-2798.82
-2798.82
-2798.82
-2798.81
-2798.81
-2798.81
-2798.81
-2798.8
-2798.8
-2798.8
-3710.11
-3710.11
-3710.11
-3710.11
-3710.11
-3710.11
-3710.11
-3710.12
-3710.12
-3710.12
-3710.12
-3710.11
-3710.11
-3710.11
-3710.1
-3710.09
-3710.08
-3710.07
-3710.05
-3710.03
-3710.01
-3709.98
-3709.96
-3709.92
-3709.89
-3709.85
-3709.81
-3709.77
-3709.72
-3709.67
-3709.62
-3709.56
-3709.51
-3709.45
-3709.38
-3709.32
-3709.26
-3709.19
-3709.13
-3709.06
-3709
-3708.93
-3708.86
-3708.8
-3708.73
-3708.67
-3708.61
-3708.54
-3708.48
-3708.43
-3708.37
-3708.32
-3708.27
-3708.22
-3708.18
-3708.14
-3708.1
-3708.07
-3708.04
-3708.02
-3707.99
-3707.98
-3707.96
-3707.96
-3707.95
-3707.95
-3707.95
-3707.96
-3707.97
-3707.98
-3707.99
-3708.01
-3708.03
-3708.04
-3708.06
-3708.08
-3708.1
-3708.12
-3708.14
-3708.15
-3708.17
-3708.18
-3708.19
-3708.19
-3708.19
-3708.19
-3708.18
-3708.17
-3708.16
-3708.14
-3708.12
-3708.09
-3708.06
-3708.03
-3708
-3707.97
-3707.94
-3707.91
-3707.87
-3707.84
-3707.82
-3707.79
-3707.77
-3707.76
-3707.74
-3707.73
-3707.73
-3707.73
-3707.74
-3707.75
-3707.76
-3707.78
-3707.8
-3707.82
-3707.85
-3707.87
-3707.9
-3707.93
-3707.95
-3707.97
-3707.99
-3708.01
-3708.03
-3708.04
-3708.05
-3708.05
-3708.05
-3708.05
-3708.04
-3708.04
-3708.02
-3708.01
-3708
-3707.98
-3707.96
-3707.94
-3707.93
-3707.91
-3707.89
-3707.88
-3707.86
-3707.85
-3707.84
-3707.83
-3707.83
-3707.82
-3707.82
-3707.82
-3707.82
-3707.83
-3707.83
-3707.84
-3707.85
-3707.86
-3707.87
-3707.88
-3707.89
-3707.9
-3707.91
-3707.92
-3707.93
-3707.94
-3707.95
-3707.96
-3707.97
-3707.97
-3707.98
-3707.98
-3707.98
-3707.98
-3707.98
-3707.98
-3707.98
-3707.97
-3707.97
-3707.96
-3707.96
-3707.95
-3707.94
-3707.94
-3707.93
-3707.92
-3707.91
-3707.91
-3707.9
-3707.89
-3707.88
-3707.88
-3707.87
-3707.87
-3707.86
-3707.86
-3707.85
-3707.85
-3707.85
-3707.84
-3707.84
-3707.84
-3707.84
-3707.84
-4515.53
-4515.53
-4515.53
-4515.54
-4515.54
-4515.55
-4515.56
-4515.56
-4515.57
-4515.57
-4515.58
-4515.59
-4515.59
-4515.59
-4515.59
-4515.59
-4515.58
-4515.57
-4515.56
-4515.54
-4515.52
-4515.49
-4515.46
-4515.42
-4515.38
-4515.34
-4515.28
-4515.23
-4515.17
-4515.11
-4515.04
-4514.97
-4514.9
-4514.82
-4514.74
-4514.67
-4514.59
-4514.51
-4514.42
-4514.34
-4514.26
-4514.18
-4514.1
-4514.02
-4513.94
-4513.87
-4513.79
-4513.72
-4513.65
-4513.59
-4513.52
-4513.46
-4513.41
-4513.35
-4513.31
-4513.26
-4513.23
-4513.19
-4513.16
-4513.14
-4513.12
-4513.11
-4513.1
-4513.1
-4513.1
-4513.11
-4513.12
-4513.14
-4513.16
-4513.18
-4513.21
-4513.24
-4513.27
-4513.3
-4513.33
-4513.37
-4513.4
-4513.43
-4513.45
-4513.48
-4513.5
-4513.52
-4513.53
-4513.54
-4513.54
-4513.54
-4513.53
-4513.52
-4513.5
-4513.48
-4513.45
-4513.42
-4513.38
-4513.34
-4513.3
-4513.26
-4513.22
-4513.18
-4513.14
-4513.1
-4513.06
-4513.03
-4513.01
-4512.99
-4512.97
-4512.96
-4512.96
-4512.97
-4512.98
-4512.99
-4513.01
-4513.03
-4513.06
-4513.09
-4513.12
-4513.16
-4513.19
-4513.22
-4513.25
-4513.28
-4513.31
-4513.33
-4513.34
-4513.36
-4513.37
-4513.37
-4513.37
-4513.36
-4513.36
-4513.35
-4513.33
-4513.31
-4513.3
-4513.28
-4513.26
-4513.23
-4513.21
-4513.19
-4513.17
-4513.16
-4513.14
-4513.13
-4513.12
-4513.11
-4513.1
-4513.1
-4513.09
-4513.1
-4513.1
-4513.1
-4513.11
-4513.12
-4513.13
-4513.14
-4513.15
-4513.16
-4513.18
-4513.19
-4513.2
-4513.21
-4513.22
-4513.24
-4513.24
-4513.25
-4513.26
-4513.27
-4513.27
-4513.27
-4513.28
-4513.28
-4513.28
-4513.27
-4513.27
-4513.27
-4513.26
-4513.25
-4513.25
-4513.24
-4513.23
-4513.23
-4513.22
-4513.21
-4513.2
-4513.19
-4513.19
-4513.18
-4513.17
-4513.16
-4513.16
-4513.15
-4513.15
-4513.14
-4513.14
-4513.14
-4513.13
-4513.13
-4513.13
-4513.13
-4513.13
-4513.13
-5228.94
-5228.94
-5228.95
-5228.96
-5228.97
-5228.99
-5229.01
-5229.03
-5229.06
-5229.09
-5229.11
-5229.14
-5229.16
-5229.18
-5229.19
-5229.2
-5229.21
-5229.21
-5229.2
-5229.19
-5229.17
-5229.14
-5229.1
-5229.06
-5229.01
-5228.95
-5228.88
-5228.81
-5228.74
-5228.65
-5228.57
-5228.48
-5228.38
-5228.29
-5228.19
-5228.09
-5228
-5227.9
-5227.8
-5227.7
-5227.6
-5227.51
-5227.41
-5227.32
-5227.22
-5227.13
-5227.05
-5226.96
-5226.88
-5226.8
-5226.73
-5226.66
-5226.6
-5226.54
-5226.49
-5226.45
-5226.41
-5226.37
-5226.35
-5226.33
-5226.31
-5226.31
-5226.31
-5226.31
-5226.32
-5226.34
-5226.37
-5226.4
-5226.43
-5226.47
-5226.51
-5226.56
-5226.6
-5226.65
-5226.7
-5226.75
-5226.79
-5226.84
-5226.88
-5226.91
-5226.94
-5226.97
-5226.99
-5227
-5227.01
-5227
-5226.99
-5226.98
-5226.95
-5226.92
-5226.89
-5226.84
-5226.8
-5226.75
-5226.69
-5226.64
-5226.58
-5226.53
-5226.48
-5226.43
-5226.39
-5226.35
-5226.32
-5226.3
-5226.28
-5226.27
-5226.27
-5226.28
-5226.29
-5226.31
-5226.34
-5226.37
-5226.41
-5226.45
-5226.49
-5226.53
-5226.57
-5226.61
-5226.65
-5226.68
-5226.71
-5226.74
-5226.76
-5226.77
-5226.78
-5226.78
-5226.78
-5226.77
-5226.76
-5226.75
-5226.73
-5226.71
-5226.69
-5226.66
-5226.64
-5226.61
-5226.59
-5226.57
-5226.54
-5226.52
-5226.51
-5226.49
-5226.48
-5226.47
-5226.46
-5226.46
-5226.46
-5226.46
-5226.46
-5226.47
-5226.48
-5226.49
-5226.5
-5226.51
-5226.53
-5226.54
-5226.55
-5226.57
-5226.58
-5226.59
-5226.61
-5226.62
-5226.63
-5226.64
-5226.64
-5226.65
-5226.65
-5226.66
-5226.66
-5226.66
-5226.66
-5226.66
-5226.65
-5226.65
-5226.64
-5226.64
-5226.63
-5226.62
-5226.61
-5226.6
-5226.6
-5226.59
-5226.58
-5226.57
-5226.56
-5226.56
-5226.55
-5226.54
-5226.54
-5226.53
-5226.53
-5226.52
-5226.52
-5226.51
-5226.51
-5226.51
-5226.51
-5226.51
-5226.5
-5226.5
-5860.88
-5860.89
-5860.9
-5860.93
-5860.96
-5861
-5861.04
-5861.09
-5861.14
-5861.2
-5861.26
-5861.32
-5861.37
-5861.42
-5861.46
-5861.5
-5861.52
-5861.54
-5861.54
-5861.53
-5861.51
-5861.48
-5861.43
-5861.38
-5861.31
-5861.23
-5861.14
-5861.04
-5860.93
-5860.82
-5860.71
-5860.59
-5860.47
-5860.35
-5860.23
-5860.11
-5859.99
-5859.86
-5859.74
-5859.63
-5859.51
-5859.39
-5859.28
-5859.17
-5859.06
-5858.96
-5858.86
-5858.76
-5858.67
-5858.58
-5858.5
-5858.42
-5858.35
-5858.29
-5858.23
-5858.18
-5858.14
-5858.11
-5858.08
-5858.07
-5858.06
-5858.06
-5858.07
-5858.08
-5858.11
-5858.14
-5858.18
-5858.23
-5858.28
-5858.33
-5858.39
-5858.46
-5858.52
-5858.59
-5858.65
-5858.72
-5858.78
-5858.84
-5858.89
-5858.94
-5858.98
-5859.02
-5859.04
-5859.06
-5859.07
-5859.07
-5859.05
-5859.03
-5859
-5858.96
-5858.91
-5858.86
-5858.8
-5858.73
-5858.67
-5858.6
-5858.53
-5858.46
-5858.4
-5858.34
-5858.28
-5858.24
-5858.2
-5858.17
-5858.16
-5858.15
-5858.15
-5858.16
-5858.18
-5858.21
-5858.25
-5858.29
-5858.34
-5858.39
-5858.44
-5858.49
-5858.54
-5858.59
-5858.63
-5858.67
-5858.71
-5858.74
-5858.76
-5858.77
-5858.78
-5858.78
-5858.78
-5858.77
-5858.75
-5858.73
-5858.71
-5858.69
-5858.66
-5858.63
-5858.6
-5858.57
-5858.54
-5858.52
-5858.49
-5858.47
-5858.45
-5858.44
-5858.42
-5858.41
-5858.41
-5858.4
-5858.4
-5858.41
-5858.41
-5858.42
-5858.43
-5858.44
-5858.45
-5858.47
-5858.48
-5858.5
-5858.51
-5858.53
-5858.54
-5858.56
-5858.57
-5858.58
-5858.59
-5858.6
-5858.61
-5858.62
-5858.62
-5858.62
-5858.63
-5858.62
-5858.62
-5858.62
-5858.62
-5858.61
-5858.6
-5858.6
-5858.59
-5858.58
-5858.57
-5858.56
-5858.56
-5858.55
-5858.54
-5858.53
-5858.52
-5858.51
-5858.51
-5858.5
-5858.49
-5858.49
-5858.48
-5858.48
-5858.48
-5858.47
-5858.47
-5858.47
-5858.47
-5858.46
-5858.46
-5858.46
-6420.51
-6420.53
-6420.56
-6420.61
-6420.67
-6420.76
-6420.85
-6420.97
-6421.09
-6421.21
-6421.33
-6421.44
-6421.54
-6421.62
-6421.7
-6421.76
-6421.81
-6421.84
-6421.85
-6421.85
-6421.83
-6421.79
-6421.73
-6421.65
-6421.55
-6421.44
-6421.31
-6421.16
-6421.01
-6420.86
-6420.7
-6420.55
-6420.4
-6420.25
-6420.11
-6419.96
-6419.82
-6419.68
-6419.54
-6419.4
-6419.27
-6419.13
-6419
-6418.88
-6418.75
-6418.63
-6418.52
-6418.41
-6418.3
-6418.2
-6418.11
-6418.03
-6417.95
-6417.88
-6417.82
-6417.77
-6417.72
-6417.69
-6417.67
-6417.66
-6417.66
-6417.66
-6417.68
-6417.71
-6417.75
-6417.8
-6417.85
-6417.92
-6417.99
-6418.06
-6418.15
-6418.23
-6418.32
-6418.4
-6418.49
-6418.57
-6418.65
-6418.73
-6418.8
-6418.86
-6418.92
-6418.96
-6418.99
-6419.01
-6419.02
-6419.02
-6419
-6418.97
-6418.93
-6418.88
-6418.82
-6418.75
-6418.68
-6418.6
-6418.51
-6418.43
-6418.34
-6418.26
-6418.18
-6418.11
-6418.04
-6417.99
-6417.95
-6417.91
-6417.89
-6417.89
-6417.89
-6417.91
-6417.94
-6417.98
-6418.02
-6418.08
-6418.14
-6418.2
-6418.26
-6418.33
-6418.39
-6418.44
-6418.5
-6418.54
-6418.58
-6418.61
-6418.63
-6418.65
-6418.66
-6418.66
-6418.65
-6418.64
-6418.62
-6418.59
-6418.57
-6418.53
-6418.5
-6418.47
-6418.44
-6418.4
-6418.37
-6418.34
-6418.31
-6418.29
-6418.27
-6418.25
-6418.24
-6418.23
-6418.22
-6418.22
-6418.22
-6418.22
-6418.23
-6418.24
-6418.25
-6418.27
-6418.28
-6418.3
-6418.31
-6418.33
-6418.35
-6418.36
-6418.38
-6418.39
-6418.41
-6418.42
-6418.43
-6418.44
-6418.45
-6418.45
-6418.46
-6418.46
-6418.46
-6418.46
-6418.46
-6418.46
-6418.45
-6418.45
-6418.44
-6418.43
-6418.42
-6418.42
-6418.41
-6418.4
-6418.39
-6418.38
-6418.37
-6418.36
-6418.35
-6418.34
-6418.34
-6418.33
-6418.32
-6418.32
-6418.31
-6418.31
-6418.31
-6418.3
-6418.3
-6418.3
-6418.3
-6418.3
-6418.29
-6418.29
-6916.04
-6916.06
-6916.11
-6916.19
-6916.29
-6916.41
-6916.56
-6916.73
-6916.93
-6917.13
-6917.33
-6917.52
-6917.69
-6917.85
-6917.99
-6918.11
-6918.21
-6918.28
-6918.32
-6918.34
-6918.32
-6918.27
-6918.2
-6918.09
-6917.96
-6917.8
-6917.61
-6917.4
-6917.2
-6917
-6916.8
-6916.61
-6916.42
-6916.24
-6916.07
-6915.9
-6915.74
-6915.57
-6915.42
-6915.26
-6915.11
-6914.96
-6914.81
-6914.67
-6914.53
-6914.4
-6914.27
-6914.14
-6914.02
-6913.91
-6913.81
-6913.72
-6913.63
-6913.55
-6913.49
-6913.43
-6913.39
-6913.36
-6913.34
-6913.33
-6913.34
-6913.36
-6913.39
-6913.43
-6913.49
-6913.55
-6913.62
-6913.71
-6913.8
-6913.9
-6914
-6914.11
-6914.22
-6914.33
-6914.44
-6914.54
-6914.64
-6914.74
-6914.82
-6914.9
-6914.97
-6915.02
-6915.06
-6915.08
-6915.09
-6915.09
-6915.07
-6915.03
-6914.98
-6914.92
-6914.84
-6914.76
-6914.66
-6914.57
-6914.46
-6914.36
-6914.25
-6914.15
-6914.06
-6913.97
-6913.9
-6913.83
-6913.78
-6913.75
-6913.73
-6913.72
-6913.73
-6913.76
-6913.79
-6913.84
-6913.9
-6913.97
-6914.04
-6914.12
-6914.19
-6914.27
-6914.34
-6914.4
-6914.46
-6914.51
-6914.56
-6914.59
-6914.62
-6914.63
-6914.64
-6914.64
-6914.63
-6914.61
-6914.58
-6914.55
-6914.52
-6914.49
-6914.45
-6914.41
-6914.37
-6914.33
-6914.3
-6914.27
-6914.24
-6914.21
-6914.19
-6914.17
-6914.16
-6914.15
-6914.14
-6914.14
-6914.14
-6914.14
-6914.15
-6914.16
-6914.18
-6914.19
-6914.21
-6914.23
-6914.24
-6914.26
-6914.28
-6914.3
-6914.32
-6914.33
-6914.35
-6914.36
-6914.37
-6914.38
-6914.39
-6914.4
-6914.4
-6914.4
-6914.4
-6914.4
-6914.4
-6914.4
-6914.39
-6914.38
-6914.38
-6914.37
-6914.36
-6914.35
-6914.34
-6914.33
-6914.32
-6914.31
-6914.3
-6914.29
-6914.29
-6914.28
-6914.27
-6914.26
-6914.26
-6914.25
-6914.25
-6914.24
-6914.24
-6914.24
-6914.23
-6914.23
-6914.23
-6914.23
-6914.23
-6914.23
-7354.71
-7354.75
-7354.83
-7354.95
-7355.12
-7355.35
-7355.66
-7356.02
-7356.65
-7357.05
-7357.41
-7357.72
-7357.97
-7358.18
-7358.35
-7358.49
-7358.58
-7358.65
-7358.68
-7358.68
-7358.65
-7358.58
-7358.48
-7358.32
-7358.12
-7357.86
-7357.56
-7357.03
-7356.72
-7356.44
-7356.19
-7355.97
-7355.76
-7355.57
-7355.38
-7355.2
-7355.02
-7354.84
-7354.67
-7354.5
-7354.34
-7354.17
-7354.01
-7353.85
-7353.7
-7353.55
-7353.4
-7353.27
-7353.14
-7353.01
-7352.9
-7352.79
-7352.7
-7352.62
-7352.55
-7352.49
-7352.45
-7352.42
-7352.4
-7352.4
-7352.41
-7352.44
-7352.49
-7352.54
-7352.61
-7352.7
-7352.79
-7352.9
-7353.01
-7353.13
-7353.26
-7353.39
-7353.53
-7353.66
-7353.79
-7353.92
-7354.04
-7354.16
-7354.26
-7354.35
-7354.43
-7354.49
-7354.54
-7354.57
-7354.58
-7354.57
-7354.54
-7354.5
-7354.44
-7354.36
-7354.27
-7354.17
-7354.05
-7353.93
-7353.81
-7353.68
-7353.56
-7353.44
-7353.33
-7353.23
-7353.14
-7353.07
-7353.01
-7352.97
-7352.95
-7352.95
-7352.97
-7353
-7353.05
-7353.11
-7353.18
-7353.26
-7353.35
-7353.43
-7353.52
-7353.61
-7353.69
-7353.77
-7353.83
-7353.89
-7353.94
-7353.98
-7354
-7354.02
-7354.02
-7354.02
-7354
-7353.98
-7353.95
-7353.92
-7353.88
-7353.84
-7353.79
-7353.75
-7353.71
-7353.67
-7353.63
-7353.59
-7353.56
-7353.53
-7353.51
-7353.49
-7353.47
-7353.46
-7353.46
-7353.46
-7353.46
-7353.47
-7353.48
-7353.49
-7353.5
-7353.52
-7353.54
-7353.56
-7353.58
-7353.6
-7353.62
-7353.64
-7353.65
-7353.67
-7353.69
-7353.7
-7353.71
-7353.72
-7353.73
-7353.74
-7353.74
-7353.74
-7353.74
-7353.74
-7353.74
-7353.74
-7353.73
-7353.72
-7353.72
-7353.71
-7353.7
-7353.69
-7353.68
-7353.67
-7353.66
-7353.65
-7353.64
-7353.63
-7353.62
-7353.61
-7353.61
-7353.6
-7353.59
-7353.59
-7353.58
-7353.58
-7353.57
-7353.57
-7353.57
-7353.57
-7353.57
-7353.56
-7353.56
-7353.56
-7742.93
-7742.98
-7743.09
-7743.25
-7743.49
-7743.81
-7744.24
-7744.8
-7745.67
-7746.08
-7746.5
-7746.89
-7747.22
-7747.52
-7747.77
-7747.97
-7748.13
-7748.25
-7748.32
-7748.34
-7748.31
-7748.24
-7748.11
-7747.93
-7747.69
-7747.39
-7747.09
-7746.46
-7746.08
-7745.73
-7745.44
-7745.17
-7744.94
-7744.72
-7744.52
-7744.32
-7744.13
-7743.95
-7743.77
-7743.59
-7743.41
-7743.23
-7743.05
-7742.88
-7742.71
-7742.55
-7742.39
-7742.24
-7742.09
-7741.96
-7741.83
-7741.72
-7741.61
-7741.52
-7741.45
-7741.39
-7741.34
-7741.32
-7741.3
-7741.31
-7741.33
-7741.37
-7741.43
-7741.5
-7741.59
-7741.69
-7741.81
-7741.94
-7742.08
-7742.22
-7742.38
-7742.53
-7742.69
-7742.85
-7743.01
-7743.16
-7743.31
-7743.44
-7743.56
-7743.67
-7743.76
-7743.83
-7743.88
-7743.91
-7743.92
-7743.91
-7743.88
-7743.82
-7743.75
-7743.66
-7743.55
-7743.43
-7743.29
-7743.15
-7743.01
-7742.86
-7742.72
-7742.58
-7742.45
-7742.33
-7742.23
-7742.15
-7742.09
-7742.05
-7742.03
-7742.03
-7742.05
-7742.09
-7742.15
-7742.22
-7742.31
-7742.4
-7742.5
-7742.61
-7742.71
-7742.81
-7742.9
-7742.99
-7743.06
-7743.12
-7743.18
-7743.21
-7743.24
-7743.26
-7743.26
-7743.25
-7743.23
-7743.2
-7743.17
-7743.13
-7743.08
-7743.04
-7742.99
-7742.94
-7742.89
-7742.85
-7742.81
-7742.77
-7742.73
-7742.7
-7742.68
-7742.66
-7742.64
-7742.63
-7742.63
-7742.63
-7742.63
-7742.64
-7742.65
-7742.67
-7742.68
-7742.7
-7742.72
-7742.74
-7742.76
-7742.78
-7742.81
-7742.83
-7742.84
-7742.86
-7742.88
-7742.89
-7742.91
-7742.92
-7742.92
-7742.93
-7742.93
-7742.94
-7742.94
-7742.94
-7742.93
-7742.93
-7742.92
-7742.91
-7742.91
-7742.9
-7742.89
-7742.88
-7742.87
-7742.86
-7742.85
-7742.84
-7742.83
-7742.82
-7742.81
-7742.8
-7742.79
-7742.78
-7742.78
-7742.77
-7742.77
-7742.76
-7742.76
-7742.76
-7742.76
-7742.75
-7742.75
-7742.75
-7742.75
-7742.75
-8086.34
-8086.35
-8086.38
-8086.41
-8086.44
-8086.5
-8086.48
-8086.57
-8090.04
-8089.92
-8089.88
-8089.77
-8089.64
-8089.5
-8089.34
-8089.17
-8089
-8088.82
-8088.63
-8088.44
-8088.25
-8088.06
-8087.87
-8087.68
-8087.49
-8087.31
-8087.13
-8086.95
-8086.79
-8086.63
-8086.48
-8086.34
-8086.22
-8086.1
-8086.01
-8085.93
-8085.86
-8085.82
-8085.79
-8085.78
-8085.8
-8085.83
-8085.88
-8085.95
-8086.04
-8086.15
-8086.27
-8086.41
-8086.56
-8086.72
-8086.89
-8087.07
-8087.26
-8087.45
-8087.63
-8087.81
-8087.99
-8088.16
-8088.31
-8088.45
-8088.57
-8088.67
-8088.75
-8088.81
-8088.85
-8088.86
-8088.84
-8088.8
-8088.74
-8088.65
-8088.54
-8088.41
-8088.27
-8088.12
-8087.95
-8087.78
-8087.62
-8087.45
-8087.29
-8087.15
-8087.01
-8086.9
-8086.81
-8086.74
-8086.7
-8086.68
-8086.69
-8086.71
-8086.77
-8086.84
-8086.92
-8087.02
-8087.13
-8087.25
-8087.36
-8087.48
-8087.59
-8087.69
-8087.79
-8087.87
-8087.94
-8087.99
-8088.03
-8088.06
-8088.07
-8088.07
-8088.06
-8088.04
-8088
-8087.97
-8087.92
-8087.87
-8087.82
-8087.76
-8087.71
-8087.66
-8087.61
-8087.57
-8087.52
-8087.49
-8087.46
-8087.43
-8087.41
-8087.39
-8087.38
-8087.38
-8087.38
-8087.39
-8087.4
-8087.41
-8087.42
-8087.44
-8087.46
-8087.48
-8087.51
-8087.53
-8087.55
-8087.57
-8087.6
-8087.62
-8087.63
-8087.65
-8087.67
-8087.68
-8087.69
-8087.7
-8087.7
-8087.71
-8087.71
-8087.71
-8087.71
-8087.7
-8087.7
-8087.69
-8087.68
-8087.68
-8087.67
-8087.66
-8087.65
-8087.63
-8087.62
-8087.61
-8087.6
-8087.59
-8087.58
-8087.57
-8087.57
-8087.56
-8087.55
-8087.54
-8087.54
-8087.53
-8087.53
-8087.53
-8087.52
-8087.52
-8087.52
-8087.52
-8087.52
-8087.52
-8087.52
-8390.56
-8390.57
-8390.58
-8390.61
-8390.65
-8390.7
-8390.72
-8390.82
-8395.45
-8395.32
-8395.25
-8395.12
-8394.99
-8394.85
-8394.69
-8394.53
-8394.35
-8394.17
-8393.98
-8393.78
-8393.58
-8393.38
-8393.18
-8392.97
-8392.77
-8392.57
-8392.37
-8392.18
-8392
-8391.82
-8391.66
-8391.51
-8391.37
-8391.25
-8391.15
-8391.06
-8391
-8390.95
-8390.93
-8390.92
-8390.94
-8390.98
-8391.05
-8391.13
-8391.24
-8391.36
-8391.5
-8391.67
-8391.84
-8392.03
-8392.23
-8392.44
-8392.65
-8392.86
-8393.07
-8393.28
-8393.48
-8393.67
-8393.84
-8394
-8394.14
-8394.25
-8394.34
-8394.41
-8394.44
-8394.45
-8394.43
-8394.38
-8394.31
-8394.2
-8394.08
-8393.93
-8393.77
-8393.59
-8393.41
-8393.22
-8393.02
-8392.84
-8392.66
-8392.5
-8392.35
-8392.22
-8392.12
-8392.05
-8392
-8391.99
-8392
-8392.03
-8392.1
-8392.18
-8392.28
-8392.39
-8392.52
-8392.65
-8392.78
-8392.91
-8393.03
-8393.14
-8393.25
-8393.33
-8393.41
-8393.47
-8393.51
-8393.54
-8393.55
-8393.54
-8393.53
-8393.5
-8393.46
-8393.42
-8393.37
-8393.31
-8393.25
-8393.2
-8393.14
-8393.08
-8393.03
-8392.98
-8392.94
-8392.9
-8392.87
-8392.84
-8392.82
-8392.8
-8392.79
-8392.79
-8392.79
-8392.8
-8392.81
-8392.82
-8392.84
-8392.86
-8392.88
-8392.9
-8392.93
-8392.95
-8392.98
-8393
-8393.02
-8393.04
-8393.06
-8393.08
-8393.09
-8393.11
-8393.12
-8393.13
-8393.13
-8393.14
-8393.14
-8393.14
-8393.14
-8393.13
-8393.13
-8393.12
-8393.11
-8393.1
-8393.09
-8393.08
-8393.07
-8393.06
-8393.05
-8393.04
-8393.03
-8393.02
-8393.01
-8393
-8392.99
-8392.98
-8392.97
-8392.97
-8392.96
-8392.96
-8392.95
-8392.95
-8392.95
-8392.95
-8392.94
-8392.94
-8392.94
-8392.94
-8392.94
-8660.01
-8660.02
-8660.03
-8660.04
-8660.06
-8660.08
-8660.09
-8660.13
-8665.82
-8665.74
-8665.7
-8665.61
-8665.49
-8665.36
-8665.21
-8665.05
-8664.87
-8664.68
-8664.49
-8664.28
-8664.07
-8663.85
-8663.63
-8663.41
-8663.19
-8662.97
-8662.76
-8662.55
-8662.35
-8662.16
-8661.99
-8661.82
-8661.68
-8661.54
-8661.43
-8661.34
-8661.27
-8661.23
-8661.2
-8661.2
-8661.23
-8661.28
-8661.36
-8661.46
-8661.58
-8661.72
-8661.89
-8662.07
-8662.27
-8662.48
-8662.71
-8662.94
-8663.18
-8663.42
-8663.66
-8663.89
-8664.11
-8664.32
-8664.52
-8664.69
-8664.85
-8664.97
-8665.07
-8665.14
-8665.18
-8665.19
-8665.16
-8665.1
-8665.02
-8664.9
-8664.76
-8664.59
-8664.41
-8664.21
-8664
-8663.79
-8663.57
-8663.36
-8663.17
-8662.98
-8662.82
-8662.69
-8662.58
-8662.5
-8662.45
-8662.44
-8662.45
-8662.5
-8662.57
-8662.66
-8662.78
-8662.91
-8663.05
-8663.19
-8663.34
-8663.48
-8663.61
-8663.74
-8663.85
-8663.94
-8664.02
-8664.08
-8664.12
-8664.15
-8664.16
-8664.15
-8664.13
-8664.1
-8664.06
-8664.01
-8663.95
-8663.89
-8663.83
-8663.77
-8663.7
-8663.64
-8663.59
-8663.54
-8663.49
-8663.45
-8663.42
-8663.39
-8663.37
-8663.35
-8663.34
-8663.34
-8663.34
-8663.35
-8663.36
-8663.38
-8663.4
-8663.42
-8663.44
-8663.46
-8663.49
-8663.52
-8663.54
-8663.56
-8663.59
-8663.61
-8663.63
-8663.65
-8663.66
-8663.68
-8663.69
-8663.7
-8663.7
-8663.71
-8663.71
-8663.71
-8663.7
-8663.7
-8663.69
-8663.69
-8663.68
-8663.67
-8663.66
-8663.65
-8663.64
-8663.62
-8663.61
-8663.6
-8663.59
-8663.58
-8663.57
-8663.56
-8663.55
-8663.54
-8663.54
-8663.53
-8663.53
-8663.52
-8663.52
-8663.51
-8663.51
-8663.51
-8663.51
-8663.51
-8663.51
-8663.5
-8663.5
-8898.69
-8898.69
-8898.7
-8898.71
-8898.72
-8898.73
-8898.73
-8898.75
-8905.46
-8905.39
-8905.35
-8905.26
-8905.16
-8905.03
-8904.88
-8904.71
-8904.53
-8904.33
-8904.13
-8903.91
-8903.68
-8903.45
-8903.21
-8902.98
-8902.74
-8902.5
-8902.27
-8902.05
-8901.83
-8901.63
-8901.44
-8901.26
-8901.1
-8900.96
-8900.84
-8900.75
-8900.68
-8900.63
-8900.61
-8900.61
-8900.64
-8900.7
-8900.79
-8900.91
-8901.04
-8901.21
-8901.39
-8901.6
-8901.82
-8902.06
-8902.31
-8902.57
-8902.83
-8903.1
-8903.37
-8903.62
-8903.87
-8904.1
-8904.32
-8904.51
-8904.67
-8904.81
-8904.92
-8904.99
-8905.03
-8905.04
-8905.01
-8904.94
-8904.84
-8904.71
-8904.55
-8904.37
-8904.16
-8903.94
-8903.71
-8903.47
-8903.24
-8903.01
-8902.79
-8902.59
-8902.41
-8902.27
-8902.15
-8902.07
-8902.02
-8902.01
-8902.03
-8902.08
-8902.16
-8902.27
-8902.4
-8902.54
-8902.7
-8902.85
-8903.01
-8903.17
-8903.31
-8903.45
-8903.56
-8903.67
-8903.75
-8903.81
-8903.85
-8903.88
-8903.89
-8903.88
-8903.85
-8903.82
-8903.77
-8903.71
-8903.65
-8903.59
-8903.52
-8903.45
-8903.39
-8903.32
-8903.26
-8903.21
-8903.16
-8903.12
-8903.08
-8903.06
-8903.03
-8903.02
-8903.01
-8903.01
-8903.01
-8903.02
-8903.03
-8903.05
-8903.07
-8903.09
-8903.12
-8903.14
-8903.17
-8903.2
-8903.22
-8903.25
-8903.27
-8903.3
-8903.32
-8903.33
-8903.35
-8903.36
-8903.38
-8903.38
-8903.39
-8903.39
-8903.39
-8903.39
-8903.39
-8903.39
-8903.38
-8903.37
-8903.36
-8903.35
-8903.34
-8903.33
-8903.32
-8903.31
-8903.3
-8903.28
-8903.27
-8903.26
-8903.25
-8903.24
-8903.23
-8903.23
-8903.22
-8903.21
-8903.21
-8903.2
-8903.2
-8903.2
-8903.19
-8903.19
-8903.19
-8903.19
-8903.19
-8903.19
-8903.19
-9110.12
-9110.12
-9110.12
-9110.13
-9110.14
-9110.14
-9110.14
-9110.15
-9117.79
-9117.74
-9117.69
-9117.6
-9117.5
-9117.36
-9117.21
-9117.04
-9116.85
-9116.64
-9116.43
-9116.19
-9115.95
-9115.71
-9115.45
-9115.2
-9114.94
-9114.69
-9114.44
-9114.2
-9113.97
-9113.75
-9113.54
-9113.36
-9113.19
-9113.04
-9112.91
-9112.81
-9112.73
-9112.69
-9112.67
-9112.67
-9112.71
-9112.78
-9112.88
-9113.01
-9113.16
-9113.35
-9113.55
-9113.78
-9114.02
-9114.29
-9114.56
-9114.85
-9115.14
-9115.43
-9115.72
-9116
-9116.27
-9116.52
-9116.76
-9116.96
-9117.15
-9117.29
-9117.41
-9117.49
-9117.53
-9117.53
-9117.49
-9117.42
-9117.31
-9117.16
-9116.99
-9116.78
-9116.56
-9116.32
-9116.06
-9115.8
-9115.54
-9115.29
-9115.06
-9114.84
-9114.65
-9114.49
-9114.37
-9114.28
-9114.23
-9114.22
-9114.25
-9114.31
-9114.41
-9114.53
-9114.67
-9114.83
-9114.99
-9115.17
-9115.34
-9115.5
-9115.66
-9115.8
-9115.93
-9116.03
-9116.12
-9116.19
-9116.23
-9116.25
-9116.26
-9116.24
-9116.22
-9116.18
-9116.12
-9116.06
-9116
-9115.93
-9115.86
-9115.78
-9115.71
-9115.65
-9115.59
-9115.53
-9115.48
-9115.44
-9115.4
-9115.37
-9115.35
-9115.33
-9115.33
-9115.32
-9115.33
-9115.34
-9115.35
-9115.37
-9115.39
-9115.42
-9115.44
-9115.47
-9115.5
-9115.52
-9115.55
-9115.58
-9115.6
-9115.63
-9115.65
-9115.67
-9115.68
-9115.7
-9115.71
-9115.72
-9115.72
-9115.73
-9115.73
-9115.73
-9115.72
-9115.72
-9115.71
-9115.7
-9115.69
-9115.68
-9115.67
-9115.66
-9115.65
-9115.64
-9115.62
-9115.61
-9115.6
-9115.59
-9115.58
-9115.57
-9115.56
-9115.55
-9115.55
-9115.54
-9115.53
-9115.53
-9115.53
-9115.52
-9115.52
-9115.52
-9115.52
-9115.52
-9115.51
-9115.51
-9115.51
-9297.41
-9297.41
-9297.42
-9297.42
-9297.42
-9297.43
-9297.43
-9297.43
-9305.92
-9305.87
-9305.82
-9305.74
-9305.62
-9305.49
-9305.33
-9305.15
-9304.95
-9304.73
-9304.5
-9304.26
-9304
-9303.74
-9303.47
-9303.19
-9302.92
-9302.65
-9302.39
-9302.13
-9301.88
-9301.64
-9301.43
-9301.22
-9301.04
-9300.89
-9300.75
-9300.65
-9300.57
-9300.52
-9300.5
-9300.51
-9300.56
-9300.64
-9300.75
-9300.89
-9301.06
-9301.26
-9301.48
-9301.73
-9302
-9302.29
-9302.59
-9302.9
-9303.21
-9303.53
-9303.84
-9304.14
-9304.44
-9304.71
-9304.96
-9305.18
-9305.38
-9305.54
-9305.66
-9305.74
-9305.78
-9305.78
-9305.74
-9305.66
-9305.53
-9305.37
-9305.18
-9304.96
-9304.72
-9304.45
-9304.18
-9303.89
-9303.62
-9303.35
-9303.09
-9302.86
-9302.66
-9302.49
-9302.36
-9302.27
-9302.22
-9302.21
-9302.24
-9302.31
-9302.42
-9302.55
-9302.71
-9302.88
-9303.06
-9303.25
-9303.43
-9303.61
-9303.77
-9303.92
-9304.06
-9304.17
-9304.25
-9304.32
-9304.37
-9304.39
-9304.39
-9304.37
-9304.34
-9304.3
-9304.24
-9304.18
-9304.11
-9304.03
-9303.95
-9303.88
-9303.8
-9303.74
-9303.67
-9303.61
-9303.56
-9303.52
-9303.48
-9303.45
-9303.43
-9303.41
-9303.41
-9303.4
-9303.41
-9303.42
-9303.44
-9303.45
-9303.48
-9303.5
-9303.53
-9303.56
-9303.59
-9303.61
-9303.64
-9303.67
-9303.7
-9303.72
-9303.74
-9303.76
-9303.78
-9303.79
-9303.8
-9303.81
-9303.82
-9303.82
-9303.82
-9303.82
-9303.82
-9303.81
-9303.8
-9303.8
-9303.79
-9303.78
-9303.76
-9303.75
-9303.74
-9303.73
-9303.72
-9303.7
-9303.69
-9303.68
-9303.67
-9303.66
-9303.65
-9303.64
-9303.64
-9303.63
-9303.63
-9303.62
-9303.62
-9303.61
-9303.61
-9303.61
-9303.61
-9303.61
-9303.61
-9303.61
-9303.6
-9463.32
-9463.33
-9463.33
-9463.33
-9463.33
-9463.34
-9463.34
-9463.34
-9472.61
-9472.56
-9472.5
-9472.42
-9472.3
-9472.16