#           v             n
     0.523599             0
     0.648652             0
     0.790112             0
     0.953116             0
      1.13449             0
      1.34047             0
      1.56672             0
      1.82069             0
      2.09677   0.000112416
      2.40376   0.000689743
      2.73462    0.00216473
      3.09966    0.00427075
      3.49026    0.00658482
      3.91837    0.00817816
      4.37366    0.00868456
      4.86986    0.00722547
       5.3948    0.00484155
      5.96412     0.0025141
      6.56366    0.00106659
      7.21112   0.000362545
      7.89023   0.000103846
      8.62085   2.46056e-05
      9.38447   5.04176e-06
      10.2033   8.75633e-07
      11.0564   1.34131e-07
      11.9684   1.77372e-08
      12.9159   2.10027e-09
      13.9262    2.1774e-10
      14.9731   4.65715e-11
