/*--------------------------------*- C++ -*----------------------------------*\
  =========                 |
  \\      /  F ield         | OpenFOAM: The Open Source CFD Toolbox
   \\    /   O peration     | Website:  https://openfoam.org
    \\  /    A nd           | Version:  12
     \\/     M anipulation  |
\*---------------------------------------------------------------------------*/
FoamFile
{
    format      ascii;
    class       volScalarField;
    location    "9.86";
    object      p;
}
// * * * * * * * * * * * * * * * * * * * * * * * * * * * * * * * * * * * * * //

dimensions      [1 -1 -2 0 0 0 0];

internalField   nonuniform List<scalar> 
3829
(
-614.178
-614.178
-614.178
-614.178
-614.178
-614.178
-614.178
-614.178
-614.178
-614.178
-614.177
-614.177
-614.176
-614.176
-614.175
-614.174
-614.172
-614.171
-614.169
-614.167
-614.164
-614.162
-614.159
-614.155
-614.152
-614.148
-614.144
-614.141
-614.137
-614.133
-614.13
-614.127
-614.124
-614.122
-614.12
-614.12
-614.12
-614.122
-614.125
-614.129
-614.135
-614.143
-614.152
-614.164
-614.177
-614.192
-614.209
-614.228
-614.249
-614.272
-614.296
-614.323
-614.35
-614.379
-614.41
-614.441
-614.472
-614.504
-614.536
-614.567
-614.597
-614.627
-614.654
-614.68
-614.703
-614.723
-614.741
-614.754
-614.764
-614.77
-614.771
-614.768
-614.76
-614.747
-614.73
-614.708
-614.682
-614.651
-614.616
-614.578
-614.537
-614.493
-614.448
-614.402
-614.356
-614.31
-614.266
-614.224
-614.185
-614.15
-614.12
-614.095
-614.076
-614.064
-614.058
-614.06
-614.069
-614.085
-614.108
-614.137
-614.172
-614.211
-614.254
-614.3
-614.347
-614.395
-614.441
-614.484
-614.523
-614.556
-614.583
-614.603
-614.614
-614.617
-614.61
-614.595
-614.571
-614.54
-614.503
-614.46
-614.415
-614.367
-614.321
-614.277
-614.237
-614.203
-614.176
-614.159
-614.15
-614.152
-614.164
-614.185
-614.213
-614.247
-614.285
-614.325
-614.364
-614.4
-614.43
-614.454
-614.469
-614.474
-614.469
-614.455
-614.432
-614.402
-614.368
-614.331
-614.294
-614.26
-614.232
-614.211
-614.198
-614.193
-614.197
-614.208
-614.225
-614.246
-614.268
-614.289
-614.307
-614.32
-614.329
-614.331
-614.329
-614.324
-614.316
-614.309
-614.303
-614.3
-614.302
-614.309
-614.321
-614.336
-614.353
-614.37
-614.385
-614.396
-614.402
-614.402
-614.395
-614.382
-614.359
-614.337
-614.314
-614.291
-614.272
-614.258
-614.25
-614.249
-614.255
-614.267
-614.286
-614.308
-614.332
-614.357
-614.38
-614.399
-614.413
-614.421
-1772.55
-1772.55
-1772.55
-1772.55
-1772.55
-1772.55
-1772.55
-1772.55
-1772.55
-1772.55
-1772.55
-1772.56
-1772.56
-1772.56
-1772.56
-1772.56
-1772.56
-1772.56
-1772.55
-1772.55
-1772.55
-1772.54
-1772.54
-1772.53
-1772.53
-1772.52
-1772.51
-1772.51
-1772.5
-1772.49
-1772.48
-1772.48
-1772.47
-1772.46
-1772.45
-1772.45
-1772.44
-1772.44
-1772.44
-1772.44
-1772.45
-1772.45
-1772.46
-1772.47
-1772.49
-1772.5
-1772.52
-1772.55
-1772.57
-1772.6
-1772.63
-1772.66
-1772.69
-1772.73
-1772.76
-1772.8
-1772.84
-1772.88
-1772.92
-1772.96
-1773
-1773.04
-1773.07
-1773.1
-1773.13
-1773.16
-1773.18
-1773.2
-1773.21
-1773.22
-1773.22
-1773.22
-1773.21
-1773.19
-1773.17
-1773.14
-1773.11
-1773.07
-1773.03
-1772.98
-1772.93
-1772.88
-1772.83
-1772.77
-1772.71
-1772.66
-1772.6
-1772.55
-1772.51
-1772.46
-1772.43
-1772.4
-1772.38
-1772.36
-1772.36
-1772.36
-1772.37
-1772.39
-1772.42
-1772.46
-1772.5
-1772.55
-1772.6
-1772.66
-1772.72
-1772.78
-1772.83
-1772.89
-1772.93
-1772.97
-1773.01
-1773.03
-1773.04
-1773.04
-1773.03
-1773.01
-1772.98
-1772.95
-1772.9
-1772.85
-1772.79
-1772.73
-1772.68
-1772.62
-1772.58
-1772.53
-1772.5
-1772.48
-1772.48
-1772.48
-1772.5
-1772.52
-1772.56
-1772.6
-1772.65
-1772.7
-1772.75
-1772.79
-1772.83
-1772.85
-1772.87
-1772.88
-1772.87
-1772.85
-1772.82
-1772.79
-1772.74
-1772.7
-1772.66
-1772.62
-1772.58
-1772.56
-1772.54
-1772.54
-1772.55
-1772.56
-1772.59
-1772.61
-1772.64
-1772.66
-1772.69
-1772.7
-1772.71
-1772.71
-1772.71
-1772.7
-1772.69
-1772.68
-1772.67
-1772.66
-1772.66
-1772.67
-1772.68
-1772.7
-1772.72
-1772.74
-1772.76
-1772.77
-1772.78
-1772.78
-1772.77
-1772.76
-1772.73
-1772.71
-1772.68
-1772.66
-1772.64
-1772.62
-1772.61
-1772.61
-1772.62
-1772.63
-1772.65
-1772.68
-1772.7
-1772.73
-1772.75
-1772.77
-1772.79
-1772.8
-2798.69
-2798.69
-2798.69
-2798.7
-2798.7
-2798.7
-2798.71
-2798.71
-2798.72
-2798.73
-2798.73
-2798.74
-2798.74
-2798.75
-2798.75
-2798.76
-2798.76
-2798.76
-2798.76
-2798.76
-2798.75
-2798.75
-2798.74
-2798.73
-2798.72
-2798.71
-2798.69
-2798.68
-2798.66
-2798.64
-2798.62
-2798.61
-2798.59
-2798.57
-2798.56
-2798.54
-2798.53
-2798.52
-2798.51
-2798.51
-2798.5
-2798.51
-2798.51
-2798.52
-2798.54
-2798.55
-2798.58
-2798.6
-2798.63
-2798.67
-2798.71
-2798.75
-2798.8
-2798.85
-2798.9
-2798.95
-2799
-2799.06
-2799.11
-2799.17
-2799.22
-2799.27
-2799.32
-2799.37
-2799.41
-2799.44
-2799.47
-2799.5
-2799.51
-2799.53
-2799.53
-2799.52
-2799.51
-2799.49
-2799.46
-2799.43
-2799.38
-2799.33
-2799.28
-2799.21
-2799.14
-2799.07
-2799
-2798.92
-2798.85
-2798.77
-2798.7
-2798.64
-2798.57
-2798.52
-2798.47
-2798.43
-2798.41
-2798.39
-2798.38
-2798.39
-2798.41
-2798.44
-2798.48
-2798.53
-2798.59
-2798.66
-2798.73
-2798.81
-2798.89
-2798.97
-2799.04
-2799.11
-2799.17
-2799.23
-2799.27
-2799.3
-2799.31
-2799.31
-2799.3
-2799.27
-2799.23
-2799.17
-2799.11
-2799.04
-2798.96
-2798.88
-2798.81
-2798.74
-2798.68
-2798.62
-2798.59
-2798.56
-2798.55
-2798.56
-2798.59
-2798.62
-2798.67
-2798.73
-2798.8
-2798.87
-2798.93
-2798.99
-2799.04
-2799.07
-2799.09
-2799.1
-2799.09
-2799.06
-2799.02
-2798.97
-2798.91
-2798.86
-2798.8
-2798.75
-2798.71
-2798.68
-2798.66
-2798.66
-2798.67
-2798.7
-2798.73
-2798.77
-2798.81
-2798.84
-2798.87
-2798.88
-2798.89
-2798.89
-2798.88
-2798.86
-2798.85
-2798.83
-2798.82
-2798.81
-2798.81
-2798.82
-2798.83
-2798.86
-2798.88
-2798.91
-2798.93
-2798.95
-2798.96
-2798.96
-2798.95
-2798.93
-2798.9
-2798.87
-2798.84
-2798.81
-2798.79
-2798.77
-2798.76
-2798.76
-2798.76
-2798.78
-2798.8
-2798.83
-2798.86
-2798.89
-2798.92
-2798.94
-2798.96
-2798.97
-3707.67
-3707.68
-3707.68
-3707.69
-3707.7
-3707.71
-3707.72
-3707.74
-3707.76
-3707.77
-3707.79
-3707.81
-3707.83
-3707.84
-3707.86
-3707.87
-3707.88
-3707.89
-3707.89
-3707.89
-3707.89
-3707.88
-3707.87
-3707.85
-3707.83
-3707.81
-3707.78
-3707.75
-3707.71
-3707.68
-3707.64
-3707.6
-3707.56
-3707.53
-3707.49
-3707.46
-3707.43
-3707.41
-3707.39
-3707.37
-3707.36
-3707.36
-3707.36
-3707.37
-3707.39
-3707.41
-3707.44
-3707.48
-3707.52
-3707.57
-3707.62
-3707.68
-3707.75
-3707.82
-3707.89
-3707.96
-3708.04
-3708.12
-3708.2
-3708.27
-3708.35
-3708.42
-3708.49
-3708.55
-3708.61
-3708.66
-3708.71
-3708.74
-3708.76
-3708.78
-3708.78
-3708.78
-3708.76
-3708.73
-3708.69
-3708.64
-3708.58
-3708.51
-3708.43
-3708.35
-3708.25
-3708.16
-3708.06
-3707.95
-3707.85
-3707.75
-3707.65
-3707.56
-3707.48
-3707.4
-3707.34
-3707.29
-3707.26
-3707.24
-3707.23
-3707.24
-3707.27
-3707.31
-3707.37
-3707.44
-3707.53
-3707.62
-3707.72
-3707.83
-3707.94
-3708.05
-3708.15
-3708.24
-3708.33
-3708.4
-3708.45
-3708.49
-3708.51
-3708.5
-3708.48
-3708.44
-3708.38
-3708.3
-3708.21
-3708.12
-3708.01
-3707.91
-3707.8
-3707.71
-3707.63
-3707.56
-3707.51
-3707.48
-3707.47
-3707.49
-3707.52
-3707.58
-3707.65
-3707.74
-3707.83
-3707.92
-3708.01
-3708.08
-3708.15
-3708.2
-3708.22
-3708.22
-3708.21
-3708.17
-3708.11
-3708.04
-3707.97
-3707.89
-3707.81
-3707.74
-3707.69
-3707.66
-3707.64
-3707.64
-3707.67
-3707.7
-3707.75
-3707.8
-3707.85
-3707.9
-3707.93
-3707.95
-3707.96
-3707.96
-3707.94
-3707.91
-3707.88
-3707.86
-3707.84
-3707.83
-3707.83
-3707.84
-3707.86
-3707.89
-3707.92
-3707.96
-3707.99
-3708.01
-3708.02
-3708.02
-3708.01
-3707.98
-3707.95
-3707.91
-3707.87
-3707.84
-3707.81
-3707.79
-3707.78
-3707.78
-3707.79
-3707.81
-3707.83
-3707.87
-3707.9
-3707.94
-3707.97
-3707.99
-3708.01
-3708.02
-4512.81
-4512.82
-4512.83
-4512.85
-4512.87
-4512.9
-4512.94
-4512.98
-4513.02
-4513.06
-4513.11
-4513.15
-4513.2
-4513.24
-4513.28
-4513.31
-4513.34
-4513.37
-4513.38
-4513.39
-4513.38
-4513.37
-4513.35
-4513.32
-4513.28
-4513.23
-4513.18
-4513.12
-4513.05
-4512.99
-4512.91
-4512.84
-4512.77
-4512.71
-4512.64
-4512.58
-4512.53
-4512.48
-4512.45
-4512.42
-4512.39
-4512.38
-4512.38
-4512.39
-4512.41
-4512.44
-4512.48
-4512.53
-4512.59
-4512.66
-4512.74
-4512.82
-4512.91
-4513.01
-4513.11
-4513.22
-4513.33
-4513.44
-4513.55
-4513.65
-4513.76
-4513.86
-4513.95
-4514.04
-4514.12
-4514.19
-4514.25
-4514.3
-4514.33
-4514.35
-4514.36
-4514.35
-4514.33
-4514.29
-4514.23
-4514.16
-4514.08
-4513.98
-4513.88
-4513.76
-4513.63
-4513.5
-4513.36
-4513.22
-4513.08
-4512.95
-4512.82
-4512.7
-4512.58
-4512.49
-4512.4
-4512.34
-4512.3
-4512.27
-4512.27
-4512.29
-4512.33
-4512.39
-4512.47
-4512.57
-4512.69
-4512.82
-4512.96
-4513.1
-4513.25
-4513.39
-4513.53
-4513.66
-4513.77
-4513.86
-4513.93
-4513.98
-4514
-4513.99
-4513.96
-4513.9
-4513.82
-4513.71
-4513.59
-4513.45
-4513.31
-4513.17
-4513.03
-4512.9
-4512.79
-4512.71
-4512.64
-4512.61
-4512.6
-4512.63
-4512.68
-4512.76
-4512.86
-4512.98
-4513.1
-4513.23
-4513.35
-4513.45
-4513.54
-4513.6
-4513.63
-4513.63
-4513.6
-4513.55
-4513.47
-4513.37
-4513.27
-4513.16
-4513.06
-4512.97
-4512.91
-4512.87
-4512.85
-4512.86
-4512.9
-4512.95
-4513.02
-4513.09
-4513.16
-4513.22
-4513.26
-4513.29
-4513.29
-4513.28
-4513.25
-4513.21
-4513.17
-4513.13
-4513.1
-4513.08
-4513.08
-4513.1
-4513.13
-4513.17
-4513.21
-4513.25
-4513.29
-4513.32
-4513.34
-4513.34
-4513.32
-4513.29
-4513.25
-4513.2
-4513.16
-4513.11
-4513.08
-4513.05
-4513.04
-4513.04
-4513.05
-4513.08
-4513.11
-4513.15
-4513.19
-4513.23
-4513.27
-4513.3
-4513.32
-4513.33
-5225.88
-5225.9
-5225.92
-5225.95
-5226
-5226.06
-5226.13
-5226.21
-5226.3
-5226.4
-5226.51
-5226.61
-5226.71
-5226.81
-5226.9
-5226.98
-5227.04
-5227.09
-5227.13
-5227.14
-5227.14
-5227.12
-5227.08
-5227.02
-5226.95
-5226.86
-5226.76
-5226.65
-5226.53
-5226.4
-5226.28
-5226.15
-5226.03
-5225.91
-5225.8
-5225.71
-5225.62
-5225.54
-5225.48
-5225.44
-5225.4
-5225.39
-5225.38
-5225.4
-5225.43
-5225.47
-5225.53
-5225.6
-5225.68
-5225.78
-5225.89
-5226.01
-5226.13
-5226.27
-5226.41
-5226.56
-5226.7
-5226.85
-5227
-5227.15
-5227.29
-5227.43
-5227.55
-5227.67
-5227.78
-5227.87
-5227.95
-5228.01
-5228.06
-5228.09
-5228.09
-5228.08
-5228.05
-5227.99
-5227.92
-5227.83
-5227.72
-5227.59
-5227.44
-5227.29
-5227.12
-5226.94
-5226.76
-5226.58
-5226.39
-5226.21
-5226.04
-5225.88
-5225.74
-5225.61
-5225.51
-5225.42
-5225.37
-5225.34
-5225.34
-5225.37
-5225.42
-5225.51
-5225.62
-5225.76
-5225.91
-5226.09
-5226.27
-5226.46
-5226.66
-5226.85
-5227.03
-5227.19
-5227.34
-5227.46
-5227.55
-5227.61
-5227.64
-5227.62
-5227.57
-5227.49
-5227.37
-5227.23
-5227.07
-5226.89
-5226.7
-5226.51
-5226.33
-5226.16
-5226.02
-5225.91
-5225.83
-5225.79
-5225.79
-5225.83
-5225.9
-5226.01
-5226.15
-5226.3
-5226.47
-5226.64
-5226.79
-5226.93
-5227.04
-5227.11
-5227.15
-5227.15
-5227.11
-5227.03
-5226.93
-5226.8
-5226.66
-5226.52
-5226.39
-5226.28
-5226.2
-5226.15
-5226.13
-5226.15
-5226.2
-5226.28
-5226.37
-5226.47
-5226.56
-5226.63
-5226.69
-5226.72
-5226.72
-5226.7
-5226.66
-5226.6
-5226.55
-5226.49
-5226.45
-5226.43
-5226.42
-5226.44
-5226.48
-5226.53
-5226.59
-5226.65
-5226.7
-5226.73
-5226.75
-5226.75
-5226.73
-5226.69
-5226.65
-5226.58
-5226.53
-5226.48
-5226.44
-5226.41
-5226.39
-5226.39
-5226.41
-5226.44
-5226.48
-5226.52
-5226.57
-5226.62
-5226.66
-5226.69
-5226.71
-5226.73
-5857.26
-5857.29
-5857.35
-5857.44
-5857.55
-5857.69
-5857.86
-5858.03
-5858.22
-5858.42
-5858.62
-5858.83
-5859.02
-5859.2
-5859.36
-5859.5
-5859.61
-5859.69
-5859.75
-5859.77
-5859.76
-5859.71
-5859.63
-5859.52
-5859.38
-5859.22
-5859.03
-5858.83
-5858.62
-5858.41
-5858.19
-5857.99
-5857.79
-5857.61
-5857.45
-5857.3
-5857.18
-5857.07
-5856.98
-5856.92
-5856.87
-5856.85
-5856.86
-5856.88
-5856.92
-5856.99
-5857.07
-5857.17
-5857.29
-5857.43
-5857.57
-5857.73
-5857.91
-5858.09
-5858.28
-5858.47
-5858.67
-5858.86
-5859.06
-5859.25
-5859.44
-5859.62
-5859.78
-5859.94
-5860.08
-5860.2
-5860.3
-5860.38
-5860.43
-5860.47
-5860.48
-5860.46
-5860.41
-5860.34
-5860.24
-5860.12
-5859.98
-5859.81
-5859.62
-5859.42
-5859.2
-5858.97
-5858.74
-5858.5
-5858.27
-5858.04
-5857.82
-5857.61
-5857.43
-5857.27
-5857.14
-5857.03
-5856.97
-5856.93
-5856.94
-5856.98
-5857.05
-5857.17
-5857.32
-5857.49
-5857.7
-5857.92
-5858.16
-5858.41
-5858.66
-5858.9
-5859.13
-5859.35
-5859.53
-5859.68
-5859.79
-5859.86
-5859.89
-5859.87
-5859.8
-5859.69
-5859.54
-5859.35
-5859.14
-5858.91
-5858.66
-5858.42
-5858.19
-5857.98
-5857.8
-5857.66
-5857.57
-5857.52
-5857.52
-5857.58
-5857.68
-5857.83
-5858.01
-5858.21
-5858.42
-5858.64
-5858.84
-5859.01
-5859.15
-5859.24
-5859.28
-5859.28
-5859.22
-5859.12
-5858.98
-5858.81
-5858.63
-5858.45
-5858.29
-5858.15
-5858.05
-5857.99
-5857.98
-5858.01
-5858.08
-5858.18
-5858.3
-5858.43
-5858.55
-5858.65
-5858.71
-5858.75
-5858.75
-5858.71
-5858.65
-5858.58
-5858.5
-5858.43
-5858.37
-5858.34
-5858.34
-5858.37
-5858.41
-5858.48
-5858.55
-5858.62
-5858.68
-5858.73
-5858.75
-5858.75
-5858.72
-5858.68
-5858.62
-5858.55
-5858.48
-5858.42
-5858.37
-5858.34
-5858.32
-5858.33
-5858.35
-5858.38
-5858.43
-5858.48
-5858.53
-5858.58
-5858.63
-5858.67
-5858.69
-5858.71
-6415.95
-6415.99
-6416.09
-6416.22
-6416.4
-6416.62
-6416.89
-6417.2
-6417.55
-6417.92
-6418.29
-6418.65
-6419
-6419.33
-6419.64
-6419.9
-6420.12
-6420.3
-6420.42
-6420.48
-6420.48
-6420.42
-6420.3
-6420.12
-6419.88
-6419.6
-6419.28
-6418.94
-6418.59
-6418.25
-6417.91
-6417.6
-6417.31
-6417.04
-6416.81
-6416.61
-6416.44
-6416.3
-6416.2
-6416.13
-6416.08
-6416.07
-6416.09
-6416.13
-6416.2
-6416.29
-6416.41
-6416.55
-6416.71
-6416.89
-6417.09
-6417.3
-6417.53
-6417.76
-6418.01
-6418.26
-6418.51
-6418.76
-6419.01
-6419.26
-6419.5
-6419.72
-6419.93
-6420.13
-6420.3
-6420.45
-6420.58
-6420.67
-6420.74
-6420.78
-6420.79
-6420.76
-6420.71
-6420.61
-6420.49
-6420.33
-6420.15
-6419.94
-6419.7
-6419.44
-6419.17
-6418.88
-6418.59
-6418.29
-6418
-6417.71
-6417.44
-6417.18
-6416.95
-6416.76
-6416.59
-6416.47
-6416.39
-6416.35
-6416.36
-6416.41
-6416.52
-6416.66
-6416.85
-6417.08
-6417.34
-6417.62
-6417.92
-6418.23
-6418.55
-6418.85
-6419.14
-6419.4
-6419.63
-6419.81
-6419.95
-6420.03
-6420.05
-6420.02
-6419.94
-6419.79
-6419.6
-6419.36
-6419.09
-6418.8
-6418.5
-6418.19
-6417.91
-6417.65
-6417.43
-6417.26
-6417.14
-6417.09
-6417.1
-6417.18
-6417.31
-6417.5
-6417.73
-6417.98
-6418.25
-6418.52
-6418.77
-6418.98
-6419.15
-6419.26
-6419.31
-6419.3
-6419.22
-6419.09
-6418.91
-6418.7
-6418.47
-6418.25
-6418.04
-6417.88
-6417.75
-6417.69
-6417.68
-6417.73
-6417.82
-6417.96
-6418.11
-6418.27
-6418.42
-6418.54
-6418.62
-6418.66
-6418.65
-6418.6
-6418.52
-6418.42
-6418.32
-6418.23
-6418.16
-6418.13
-6418.12
-6418.15
-6418.21
-6418.29
-6418.38
-6418.47
-6418.54
-6418.6
-6418.62
-6418.62
-6418.59
-6418.54
-6418.47
-6418.38
-6418.3
-6418.24
-6418.18
-6418.14
-6418.13
-6418.13
-6418.15
-6418.19
-6418.25
-6418.3
-6418.37
-6418.42
-6418.48
-6418.52
-6418.55
-6418.56
-6910.17
-6910.26
-6910.44
-6910.72
-6911.1
-6911.58
-6912.15
-6912.79
-6913.47
-6914.17
-6914.86
-6915.53
-6916.15
-6916.71
-6917.19
-6917.59
-6917.91
-6918.13
-6918.27
-6918.31
-6918.26
-6918.1
-6917.85
-6917.5
-6917.05
-6916.52
-6915.91
-6915.27
-6914.65
-6914.07
-6913.55
-6913.09
-6912.69
-6912.35
-6912.07
-6911.83
-6911.63
-6911.48
-6911.37
-6911.3
-6911.27
-6911.28
-6911.32
-6911.39
-6911.49
-6911.63
-6911.79
-6911.98
-6912.19
-6912.42
-6912.68
-6912.95
-6913.24
-6913.53
-6913.84
-6914.15
-6914.47
-6914.78
-6915.09
-6915.4
-6915.69
-6915.96
-6916.22
-6916.46
-6916.67
-6916.86
-6917.01
-6917.13
-6917.21
-6917.26
-6917.26
-6917.23
-6917.15
-6917.03
-6916.88
-6916.69
-6916.46
-6916.19
-6915.9
-6915.59
-6915.25
-6914.9
-6914.53
-6914.17
-6913.81
-6913.46
-6913.13
-6912.82
-6912.55
-6912.31
-6912.11
-6911.96
-6911.87
-6911.82
-6911.84
-6911.91
-6912.04
-6912.23
-6912.46
-6912.74
-6913.06
-6913.41
-6913.78
-6914.16
-6914.54
-6914.92
-6915.27
-6915.58
-6915.86
-6916.08
-6916.24
-6916.34
-6916.36
-6916.32
-6916.2
-6916.02
-6915.78
-6915.49
-6915.16
-6914.8
-6914.43
-6914.06
-6913.71
-6913.4
-6913.13
-6912.93
-6912.79
-6912.74
-6912.76
-6912.86
-6913.03
-6913.26
-6913.54
-6913.86
-6914.19
-6914.51
-6914.81
-6915.07
-6915.28
-6915.41
-6915.46
-6915.44
-6915.34
-6915.17
-6914.95
-6914.69
-6914.41
-6914.14
-6913.89
-6913.69
-6913.55
-6913.48
-6913.47
-6913.54
-6913.66
-6913.83
-6914.02
-6914.22
-6914.4
-6914.54
-6914.64
-6914.68
-6914.66
-6914.6
-6914.5
-6914.37
-6914.24
-6914.13
-6914.05
-6914
-6914
-6914.04
-6914.12
-6914.21
-6914.32
-6914.42
-6914.51
-6914.57
-6914.6
-6914.6
-6914.56
-6914.5
-6914.42
-6914.32
-6914.23
-6914.15
-6914.09
-6914.05
-6914.03
-6914.04
-6914.06
-6914.11
-6914.17
-6914.23
-6914.3
-6914.37
-6914.42
-6914.47
-6914.5
-6914.52
-7346.83
-7346.95
-7347.19
-7347.56
-7348.06
-7348.71
-7349.52
-7350.47
-7351.78
-7353.07
-7354.21
-7355.23
-7356.13
-7356.92
-7357.59
-7358.14
-7358.58
-7358.91
-7359.11
-7359.19
-7359.14
-7358.95
-7358.63
-7358.15
-7357.52
-7356.73
-7355.72
-7354.65
-7353.73
-7352.97
-7352.32
-7351.75
-7351.26
-7350.85
-7350.51
-7350.25
-7350.05
-7349.9
-7349.81
-7349.76
-7349.75
-7349.79
-7349.87
-7349.98
-7350.13
-7350.31
-7350.53
-7350.77
-7351.04
-7351.33
-7351.65
-7351.99
-7352.34
-7352.7
-7353.08
-7353.46
-7353.84
-7354.22
-7354.6
-7354.96
-7355.31
-7355.64
-7355.95
-7356.24
-7356.49
-7356.71
-7356.89
-7357.03
-7357.12
-7357.17
-7357.18
-7357.13
-7357.04
-7356.89
-7356.7
-7356.47
-7356.19
-7355.87
-7355.52
-7355.14
-7354.73
-7354.31
-7353.88
-7353.44
-7353.01
-7352.6
-7352.2
-7351.84
-7351.51
-7351.23
-7351
-7350.82
-7350.71
-7350.67
-7350.69
-7350.79
-7350.95
-7351.17
-7351.46
-7351.79
-7352.18
-7352.6
-7353.04
-7353.5
-7353.96
-7354.4
-7354.81
-7355.19
-7355.51
-7355.78
-7355.96
-7356.07
-7356.1
-7356.04
-7355.89
-7355.67
-7355.38
-7355.03
-7354.63
-7354.19
-7353.75
-7353.31
-7352.9
-7352.53
-7352.21
-7351.98
-7351.82
-7351.76
-7351.79
-7351.92
-7352.13
-7352.41
-7352.75
-7353.13
-7353.53
-7353.92
-7354.28
-7354.58
-7354.82
-7354.97
-7355.03
-7354.99
-7354.87
-7354.66
-7354.39
-7354.08
-7353.75
-7353.42
-7353.13
-7352.9
-7352.73
-7352.65
-7352.66
-7352.74
-7352.9
-7353.1
-7353.33
-7353.58
-7353.79
-7353.96
-7354.07
-7354.11
-7354.08
-7354
-7353.87
-7353.72
-7353.56
-7353.43
-7353.33
-7353.28
-7353.28
-7353.33
-7353.42
-7353.53
-7353.66
-7353.78
-7353.88
-7353.95
-7353.99
-7353.98
-7353.94
-7353.86
-7353.77
-7353.65
-7353.55
-7353.47
-7353.4
-7353.35
-7353.33
-7353.34
-7353.38
-7353.43
-7353.49
-7353.57
-7353.64
-7353.71
-7353.77
-7353.82
-7353.86
-7353.88
-7732.5
-7732.65
-7732.96
-7733.45
-7734.19
-7735.25
-7736.77
-7738.99
-7741.41
-7743.5
-7745.24
-7746.73
-7747.99
-7749.05
-7749.92
-7750.62
-7751.15
-7751.52
-7751.73
-7751.78
-7751.66
-7751.35
-7750.85
-7750.14
-7749.18
-7747.94
-7746.27
-7744.14
-7742.39
-7741.2
-7740.34
-7739.69
-7739.2
-7738.82
-7738.53
-7738.32
-7738.16
-7738.05
-7738
-7737.99
-7738.02
-7738.1
-7738.22
-7738.39
-7738.58
-7738.82
-7739.09
-7739.39
-7739.72
-7740.08
-7740.46
-7740.87
-7741.29
-7741.73
-7742.17
-7742.62
-7743.08
-7743.53
-7743.97
-7744.4
-7744.81
-7745.2
-7745.56
-7745.89
-7746.19
-7746.44
-7746.65
-7746.81
-7746.92
-7746.97
-7746.97
-7746.92
-7746.8
-7746.63
-7746.4
-7746.12
-7745.79
-7745.42
-7745
-7744.55
-7744.08
-7743.58
-7743.07
-7742.56
-7742.06
-7741.57
-7741.11
-7740.68
-7740.3
-7739.97
-7739.71
-7739.51
-7739.39
-7739.34
-7739.37
-7739.49
-7739.68
-7739.95
-7740.29
-7740.69
-7741.14
-7741.63
-7742.16
-7742.69
-7743.23
-7743.74
-7744.23
-7744.67
-7745.04
-7745.34
-7745.56
-7745.68
-7745.7
-7745.63
-7745.45
-7745.19
-7744.84
-7744.42
-7743.95
-7743.44
-7742.92
-7742.41
-7741.93
-7741.49
-7741.13
-7740.86
-7740.69
-7740.62
-7740.67
-7740.82
-7741.07
-7741.41
-7741.81
-7742.26
-7742.73
-7743.18
-7743.6
-7743.95
-7744.23
-7744.4
-7744.46
-7744.41
-7744.26
-7744.01
-7743.69
-7743.32
-7742.93
-7742.55
-7742.22
-7741.95
-7741.76
-7741.67
-7741.68
-7741.79
-7741.98
-7742.23
-7742.5
-7742.79
-7743.03
-7743.23
-7743.35
-7743.39
-7743.36
-7743.25
-7743.1
-7742.92
-7742.73
-7742.57
-7742.46
-7742.4
-7742.4
-7742.46
-7742.57
-7742.7
-7742.85
-7742.99
-7743.11
-7743.19
-7743.22
-7743.21
-7743.16
-7743.08
-7742.98
-7742.84
-7742.73
-7742.63
-7742.56
-7742.51
-7742.49
-7742.5
-7742.54
-7742.6
-7742.67
-7742.75
-7742.83
-7742.91
-7742.97
-7743.03
-7743.06
-7743.08
-8073.48
-8073.61
-8073.84
-8074.23
-8074.74
-8075.41
-8076.06
-8076.95
-8084.61
-8084.17
-8083.79
-8083.36
-8082.97
-8082.61
-8082.32
-8082.08
-8081.91
-8081.8
-8081.73
-8081.72
-8081.76
-8081.84
-8081.97
-8082.14
-8082.35
-8082.6
-8082.9
-8083.22
-8083.59
-8083.98
-8084.41
-8084.86
-8085.34
-8085.83
-8086.34
-8086.86
-8087.38
-8087.91
-8088.43
-8088.94
-8089.43
-8089.91
-8090.36
-8090.78
-8091.15
-8091.49
-8091.78
-8092.02
-8092.2
-8092.32
-8092.38
-8092.37
-8092.3
-8092.17
-8091.96
-8091.7
-8091.37
-8090.99
-8090.55
-8090.07
-8089.55
-8089
-8088.42
-8087.84
-8087.25
-8086.67
-8086.11
-8085.58
-8085.09
-8084.66
-8084.28
-8083.98
-8083.76
-8083.62
-8083.57
-8083.62
-8083.75
-8083.98
-8084.29
-8084.69
-8085.15
-8085.68
-8086.25
-8086.85
-8087.47
-8088.09
-8088.68
-8089.24
-8089.74
-8090.16
-8090.51
-8090.75
-8090.88
-8090.9
-8090.81
-8090.6
-8090.29
-8089.88
-8089.4
-8088.85
-8088.27
-8087.67
-8087.08
-8086.53
-8086.03
-8085.62
-8085.31
-8085.12
-8085.05
-8085.11
-8085.29
-8085.59
-8085.99
-8086.45
-8086.97
-8087.51
-8088.03
-8088.51
-8088.91
-8089.22
-8089.41
-8089.48
-8089.42
-8089.23
-8088.94
-8088.57
-8088.14
-8087.69
-8087.26
-8086.88
-8086.57
-8086.36
-8086.27
-8086.29
-8086.42
-8086.64
-8086.93
-8087.25
-8087.58
-8087.87
-8088.09
-8088.22
-8088.27
-8088.22
-8088.09
-8087.91
-8087.7
-8087.48
-8087.3
-8087.17
-8087.1
-8087.11
-8087.18
-8087.3
-8087.45
-8087.62
-8087.78
-8087.91
-8088
-8088.04
-8088.03
-8087.97
-8087.87
-8087.76
-8087.61
-8087.49
-8087.38
-8087.3
-8087.24
-8087.23
-8087.24
-8087.28
-8087.35
-8087.43
-8087.51
-8087.6
-8087.68
-8087.75
-8087.81
-8087.85
-8087.87
-8374.61
-8374.66
-8374.74
-8374.87
-8375.01
-8375.16
-8375.28
-8375.39
-8387.21
-8387.12
-8386.93
-8386.78
-8386.61
-8386.45
-8386.31
-8386.19
-8386.11
-8386.06
-8386.06
-8386.1
-8386.18
-8386.32
-8386.49
-8386.71
-8386.98
-8387.28
-8387.63
-8388.02
-8388.45
-8388.91
-8389.4
-8389.92
-8390.47
-8391.03
-8391.62
-8392.21
-8392.81
-8393.4
-8394
-8394.58
-8395.14
-8395.68
-8396.19
-8396.66
-8397.08
-8397.46
-8397.79
-8398.05
-8398.25
-8398.39
-8398.45
-8398.44
-8398.35
-8398.19
-8397.96
-8397.65
-8397.28
-8396.84
-8396.34
-8395.79
-8395.2
-8394.57
-8393.92
-8393.26
-8392.59
-8391.93
-8391.3
-8390.7
-8390.15
-8389.66
-8389.24
-8388.91
-8388.66
-8388.51
-8388.46
-8388.51
-8388.67
-8388.94
-8389.3
-8389.75
-8390.28
-8390.88
-8391.53
-8392.21
-8392.91
-8393.61
-8394.28
-8394.91
-8395.47
-8395.95
-8396.33
-8396.6
-8396.75
-8396.76
-8396.65
-8396.41
-8396.05
-8395.59
-8395.03
-8394.41
-8393.75
-8393.07
-8392.4
-8391.78
-8391.22
-8390.76
-8390.42
-8390.21
-8390.14
-8390.21
-8390.42
-8390.77
-8391.22
-8391.75
-8392.34
-8392.95
-8393.54
-8394.08
-8394.54
-8394.88
-8395.09
-8395.16
-8395.08
-8394.86
-8394.53
-8394.1
-8393.61
-8393.11
-8392.62
-8392.19
-8391.84
-8391.61
-8391.51
-8391.55
-8391.71
-8391.97
-8392.3
-8392.67
-8393.03
-8393.36
-8393.6
-8393.75
-8393.8
-8393.74
-8393.59
-8393.37
-8393.13
-8392.88
-8392.68
-8392.53
-8392.46
-8392.47
-8392.55
-8392.69
-8392.86
-8393.05
-8393.23
-8393.37
-8393.47
-8393.51
-8393.5
-8393.43
-8393.32
-8393.19
-8393.03
-8392.9
-8392.78
-8392.69
-8392.64
-8392.62
-8392.64
-8392.68
-8392.75
-8392.84
-8392.93
-8393.03
-8393.12
-8393.19
-8393.25
-8393.29
-8393.32
-8641.16
-8641.19
-8641.23
-8641.3
-8641.39
-8641.5
-8641.6
-8641.73
-8656.34
-8656.21
-8656.06
-8655.93
-8655.79
-8655.67
-8655.59
-8655.53
-8655.5
-8655.51
-8655.55
-8655.64
-8655.77
-8655.95
-8656.18
-8656.45
-8656.76
-8657.12
-8657.53
-8657.98
-8658.46
-8658.99
-8659.55
-8660.14
-8660.75
-8661.39
-8662.05
-8662.71
-8663.38
-8664.05
-8664.72
-8665.37
-8665.99
-8666.59
-8667.16
-8667.68
-8668.16
-8668.58
-8668.94
-8669.23
-8669.45
-8669.6
-8669.66
-8669.64
-8669.54
-8669.36
-8669.09
-8668.75
-8668.33
-8667.83
-8667.27
-8666.66
-8665.99
-8665.29
-8664.56
-8663.81
-8663.07
-8662.34
-8661.63
-8660.96
-8660.35
-8659.81
-8659.34
-8658.97
-8658.7
-8658.54
-8658.49
-8658.55
-8658.74
-8659.04
-8659.44
-8659.95
-8660.55
-8661.22
-8661.95
-8662.71
-8663.49
-8664.27
-8665.02
-8665.72
-8666.35
-8666.88
-8667.3
-8667.59
-8667.75
-8667.76
-8667.63
-8667.36
-8666.95
-8666.43
-8665.8
-8665.11
-8664.36
-8663.6
-8662.86
-8662.17
-8661.55
-8661.04
-8660.66
-8660.43
-8660.36
-8660.45
-8660.7
-8661.09
-8661.6
-8662.2
-8662.86
-8663.54
-8664.2
-8664.8
-8665.3
-8665.68
-8665.91
-8665.98
-8665.88
-8665.63
-8665.25
-8664.77
-8664.23
-8663.66
-8663.11
-8662.64
-8662.26
-8662.01
-8661.9
-8661.95
-8662.13
-8662.43
-8662.81
-8663.22
-8663.63
-8663.99
-8664.26
-8664.43
-8664.47
-8664.39
-8664.22
-8663.98
-8663.7
-8663.42
-8663.2
-8663.03
-8662.96
-8662.97
-8663.06
-8663.22
-8663.41
-8663.62
-8663.82
-8663.98
-8664.08
-8664.12
-8664.1
-8664.03
-8663.91
-8663.77
-8663.6
-8663.45
-8663.33
-8663.23
-8663.17
-8663.16
-8663.17
-8663.23
-8663.3
-8663.4
-8663.5
-8663.6
-8663.69
-8663.77
-8663.83
-8663.88
-8663.9
-8877.21
-8877.22
-8877.25
-8877.29
-8877.34
-8877.4
-8877.45
-8877.51
-8894.37
-8894.37
-8894.3
-8894.24
-8894.17
-8894.11
-8894.08
-8894.06
-8894.08
-8894.13
-8894.22
-8894.35
-8894.53
-8894.75
-8895.01
-8895.33
-8895.7
-8896.11
-8896.57
-8897.07
-8897.62
-8898.21
-8898.83
-8899.49
-8900.17
-8900.88
-8901.6
-8902.34
-8903.08
-8903.83
-8904.56
-8905.27
-8905.97
-8906.63
-8907.25
-8907.83
-8908.35
-8908.81
-8909.2
-8909.52
-8909.76
-8909.91
-8909.98
-8909.96
-8909.84
-8909.64
-8909.34
-8908.95
-8908.48
-8907.93
-8907.31
-8906.63
-8905.89
-8905.11
-8904.31
-8903.49
-8902.66
-8901.86
-8901.08
-8900.34
-8899.67
-8899.08
-8898.57
-8898.16
-8897.86
-8897.69
-8897.64
-8897.72
-8897.93
-8898.26
-8898.72
-8899.28
-8899.94
-8900.68
-8901.49
-8902.34
-8903.2
-8904.06
-8904.88
-8905.65
-8906.34
-8906.92
-8907.38
-8907.7
-8907.86
-8907.87
-8907.72
-8907.41
-8906.96
-8906.38
-8905.69
-8904.91
-8904.09
-8903.25
-8902.44
-8901.67
-8901
-8900.44
-8900.03
-8899.78
-8899.71
-8899.82
-8900.09
-8900.53
-8901.1
-8901.76
-8902.49
-8903.24
-8903.97
-8904.63
-8905.18
-8905.59
-8905.84
-8905.91
-8905.8
-8905.52
-8905.09
-8904.56
-8903.95
-8903.33
-8902.73
-8902.2
-8901.79
-8901.52
-8901.41
-8901.47
-8901.68
-8902.01
-8902.43
-8902.9
-8903.35
-8903.74
-8904.04
-8904.21
-8904.25
-8904.17
-8903.97
-8903.7
-8903.39
-8903.08
-8902.83
-8902.66
-8902.57
-8902.59
-8902.69
-8902.86
-8903.08
-8903.31
-8903.52
-8903.69
-8903.81
-8903.85
-8903.83
-8903.75
-8903.62
-8903.46
-8903.28
-8903.13
-8902.99
-8902.89
-8902.83
-8902.81
-8902.83
-8902.89
-8902.97
-8903.07
-8903.18
-8903.28
-8903.38
-8903.46
-8903.53
-8903.57
-8903.6
-9086.27
-9086.28
-9086.3
-9086.32
-9086.35
-9086.38
-9086.41
-9086.43
-9105.4
-9105.42
-9105.38
-9105.35
-9105.33
-9105.31
-9105.31
-9105.33
-9105.39
-9105.47
-9105.6
-9105.76
-9105.97
-9106.23
-9106.54
-9106.9
-9107.31
-9107.77
-9108.28
-9108.84
-9109.45
-9110.09
-9110.78
-9111.5
-9112.25
-9113.03
-9113.82
-9114.63
-9115.44
-9116.25
-9117.05
-9117.83
-9118.58
-9119.3
-9119.98
-9120.61
-9121.17
-9121.67
-9122.1
-9122.44
-9122.7
-9122.86
-9122.93
-9122.9
-9122.77
-9122.54
-9122.21
-9121.78
-9121.27
-9120.66
-9119.98
-9119.23
-9118.43
-9117.58
-9116.7
-9115.8
-9114.9
-9114.02
-9113.17
-9112.38
-9111.65
-9111
-9110.45
-9110.01
-9109.69
-9109.5
-9109.45
-9109.54
-9109.78
-9110.15
-9110.65
-9111.27
-9111.99
-9112.8
-9113.69
-9114.61
-9115.55
-9116.49
-9117.38
-9118.22
-9118.96
-9119.6
-9120.09
-9120.43
-9120.61
-9120.61
-9120.44
-9120.1
-9119.6
-9118.96
-9118.2
-9117.36
-9116.47
-9115.55
-9114.66
-9113.83
-9113.1
-9112.49
-9112.05
-9111.79
-9111.71
-9111.83
-9112.14
-9112.62
-9113.25
-9113.98
-9114.78
-9115.6
-9116.39
-9117.1
-9117.7
-9118.14
-9118.41
-9118.48
-9118.35
-9118.04
-9117.57
-9116.98
-9116.32
-9115.64
-9114.99
-9114.42
-9113.97
-9113.68
-9113.57
-9113.64
-9113.88
-9114.25
-9114.71
-9115.22
-9115.71
-9116.14
-9116.46
-9116.65
-9116.68
-9116.58
-9116.36
-9116.06
-9115.72
-9115.39
-9115.11
-9114.92
-9114.84
-9114.85
-9114.97
-9115.16
-9115.4
-9115.64
-9115.87
-9116.06
-9116.18
-9116.22
-9116.2
-9116.11
-9115.97
-9115.8
-9115.61
-9115.44
-9115.3
-9115.19
-9115.13
-9115.11
-9115.14
-9115.2
-9115.28
-9115.39
-9115.5
-9115.61
-9115.71
-9115.8
-9115.87
-9115.92
-9115.94
-9271.45
-9271.45
-9271.46
-9271.48
-9271.5
-9271.52
-9271.53
-9271.55
-9292.37
-9292.4
-9292.37
-9292.37
-9292.37
-9292.38
-9292.41
-9292.46
-9292.54
-9292.65
-9292.8
-9293
-9293.24
-9293.54
-9293.88
-9294.28
-9294.73
-9295.24
-9295.8
-9296.41
-9297.07
-9297.77
-9298.51
-9299.3
-9300.11
-9300.95
-9301.81
-9302.68
-9303.56
-9304.44
-9305.3
-9306.14
-9306.96
-9307.73
-9308.46
-9309.14
-9309.75
-9310.28
-9310.74
-9311.11
-9311.38
-9311.55
-9311.62
-9311.58
-9311.44
-9311.18
-9310.82
-9310.36
-9309.8
-9309.14
-9308.4
-9307.59
-9306.72
-9305.8
-9304.85
-9303.88
-9302.91
-9301.96
-9301.04
-9300.18
-9299.39
-9298.7
-9298.11
-9297.64
-9297.3
-9297.1
-9297.05
-9297.15
-9297.41
-9297.81
-9298.36
-9299.03
-9299.82
-9300.7
-9301.65
-9302.65
-9303.67
-9304.68
-9305.65
-9306.55
-9307.35
-9308.03
-9308.56
-9308.92
-9309.11
-9309.1
-9308.91
-9308.54
-9307.99
-9307.3
-9306.48
-9305.57
-9304.6
-9303.6
-9302.65
-9301.75
-9300.96
-9300.32
-9299.85
-9299.57
-9299.49
-9299.63
-9299.97
-9300.5
-9301.17
-9301.97
-9302.83
-9303.72
-9304.57
-9305.34
-9305.98
-9306.45
-9306.73
-9306.8
-9306.66
-9306.32
-9305.81
-9305.17
-9304.45
-9303.71
-9303.01
-9302.4
-9301.92
-9301.62
-9301.5
-9301.58
-9301.84
-9302.25
-9302.76
-9303.3
-9303.84
-9304.3
-9304.64
-9304.84
-9304.87
-9304.76
-9304.51
-9304.18
-9303.82
-9303.46
-9303.16
-9302.96
-9302.86
-9302.89
-9303.01
-9303.22
-9303.48
-9303.74
-9303.99
-9304.18
-9304.31
-9304.36
-9304.33
-9304.23
-9304.08
-9303.9
-9303.7
-9303.52
-9303.37
-9303.26
-9303.2
-9303.18
-9303.21
-9303.27
-9303.36
-9303.47
-9303.59
-9303.71
-9303.81
-9303.9
-9303.97
-9304.02
-9304.05
-9435.48
-9435.48
-9435.49
-9435.5
-9435.51
-9435.53
-9435.54
-9435.55
-9457.99
-9458.04
-9458.03
-9458.04
-9458.06
-9458.09
-9458.13
-9458.2
-9458.3