/*--------------------------------*- C++ -*----------------------------------*\
  =========                 |
  \\      /  F ield         | OpenFOAM: The Open Source CFD Toolbox
   \\    /   O peration     | Website:  https://openfoam.org
    \\  /    A nd           | Version:  12
     \\/     M anipulation  |
\*---------------------------------------------------------------------------*/
FoamFile
{
    format      ascii;
    class       volVectorField;
    location    "9.86";
    object      zeta;
}
// * * * * * * * * * * * * * * * * * * * * * * * * * * * * * * * * * * * * * //

dimensions      [0 1 0 0 0 0 0];

internalField   uniform (0 0 0);

boundaryField
{
    freeSurface
    {
        type            calculated;
        value           nonuniform List<vector> 
181
(
(0 0.00408064 0)
(0 0.00408112 0)
(0 0.00408063 0)
(0 0.00407935 0)
(0 0.00407857 0)
(0 0.00407668 0)
(0 0.00407656 0)
(0 0.00407432 0)
(0 0.00143594 0)
(0 0.00143344 0)
(0 0.00143533 0)
(0 0.00143384 0)
(0 0.00143284 0)
(0 0.00142886 0)
(0 0.00142346 0)
(0 0.0014145 0)
(0 0.00140228 0)
(0 0.00138537 0)
(0 0.0013636 0)
(0 0.00133628 0)
(0 0.00130343 0)
(0 0.00126442 0)
(0 0.00121911 0)
(0 0.00116733 0)
(0 0.00110887 0)
(0 0.00104365 0)
(0 0.000971844 0)
(0 0.000893729 0)
(0 0.000809677 0)
(0 0.00072009 0)
(0 0.000625456 0)
(0 0.000526294 0)
(0 0.000423269 0)
(0 0.000317137 0)
(0 0.000208688 0)
(0 9.88341e-05 0)
(0 -1.1482e-05 0)
(0 -0.000121263 0)
(0 -0.000229473 0)
(0 -0.000335 0)
(0 -0.000436823 0)
(0 -0.00053377 0)
(0 -0.000624663 0)
(0 -0.000708431 0)
(0 -0.000783969 0)
(0 -0.000850245 0)
(0 -0.000906216 0)
(0 -0.000950991 0)
(0 -0.000983855 0)
(0 -0.00100412 0)
(0 -0.0010113 0)
(0 -0.00100503 0)
(0 -0.00098514 0)
(0 -0.000951659 0)
(0 -0.00090479 0)
(0 -0.000845002 0)
(0 -0.000772958 0)
(0 -0.000689444 0)
(0 -0.000595513 0)
(0 -0.000492543 0)
(0 -0.000382048 0)
(0 -0.000265747 0)
(0 -0.000145486 0)
(0 -2.33093e-05 0)
(0 9.85231e-05 0)
(0 0.000217816 0)
(0 0.000332227 0)
(0 0.000439627 0)
(0 0.000537581 0)
(0 0.000624059 0)
(0 0.000697062 0)
(0 0.000754921 0)
(0 0.000796058 0)
(0 0.000819247 0)
(0 0.00082371 0)
(0 0.000809014 0)
(0 0.000775246 0)
(0 0.000722893 0)
(0 0.000653016 0)
(0 0.000567101 0)
(0 0.000467033 0)
(0 0.000355504 0)
(0 0.000235145 0)
(0 0.000109266 0)
(0 -1.87446e-05 0)
(0 -0.000145157 0)
(0 -0.00026631 0)
(0 -0.000378425 0)
(0 -0.000477979 0)
(0 -0.000561748 0)
(0 -0.000626809 0)
(0 -0.000670829 0)
(0 -0.000692259 0)
(0 -0.000690044 0)
(0 -0.00066416 0)
(0 -0.000615312 0)
(0 -0.000545216 0)
(0 -0.000456366 0)
(0 -0.000352137 0)
(0 -0.000236574 0)
(0 -0.00011433 0)
(0 9.54617e-06 0)
(0 0.000129835 0)
(0 0.000241318 0)
(0 0.00033907 0)
(0 0.000418677 0)
(0 0.000476368 0)
(0 0.000509514 0)
(0 0.000516446 0)
(0 0.000496964 0)
(0 0.000452198 0)
(0 0.000384627 0)
(0 0.00029802 0)
(0 0.000197148 0)
(0 8.80099e-05 0)
(0 -2.31509e-05 0)
(0 -0.000129837 0)
(0 -0.000225716 0)
(0 -0.000304994 0)
(0 -0.000362882 0)
(0 -0.000395953 0)
(0 -0.000402414 0)
(0 -0.000382255 0)
(0 -0.000337366 0)
(0 -0.000271527 0)
(0 -0.000189978 0)
(0 -9.92036e-05 0)
(0 -6.3868e-06 0)
(0 8.13433e-05 0)
(0 0.000157272 0)
(0 0.000215596 0)
(0 0.000251963 0)
(0 0.000264086 0)
(0 0.000251658 0)
(0 0.000216829 0)
(0 0.000163851 0)
(0 9.87752e-05 0)
(0 2.89106e-05 0)
(0 -3.81854e-05 0)
(0 -9.57373e-05 0)
(0 -0.000137862 0)
(0 -0.00016082 0)
(0 -0.000163281 0)
(0 -0.000146489 0)
(0 -0.000113978 0)
(0 -7.10226e-05 0)
(0 -2.39514e-05 0)
(0 2.07625e-05 0)
(0 5.77794e-05 0)
(0 8.27879e-05 0)
(0 9.34607e-05 0)
(0 8.9578e-05 0)
(0 7.28315e-05 0)
(0 4.64227e-05 0)
(0 1.44832e-05 0)
(0 -1.85288e-05 0)
(0 -4.84634e-05 0)
(0 -7.20413e-05 0)
(0 -8.69551e-05 0)
(0 -9.21651e-05 0)
(0 -8.78514e-05 0)
(0 -7.532e-05 0)
(0 -5.67543e-05 0)
(0 -3.47343e-05 0)
(0 -1.19443e-05 0)
(0 9.32406e-06 0)
(0 2.70473e-05 0)
(0 3.98577e-05 0)
(0 4.70554e-05 0)
(0 4.86015e-05 0)
(0 4.49771e-05 0)
(0 3.70134e-05 0)
(0 2.59755e-05 0)
(0 1.30867e-05 0)
(0 -4.9267e-07 0)
(0 -1.36727e-05 0)
(0 -2.56111e-05 0)
(0 -3.57012e-05 0)
(0 -4.35431e-05 0)
(0 -4.88973e-05 0)
(0 -5.16222e-05 0)
)
;
    }
    walls
    {
        type            calculated;
        value           uniform (0 0 0);
    }
    floatingObject
    {
        type            calculated;
        value           uniform (0 0 0);
    }
    frontAndBack
    {
        type            empty;
    }
}


// ************************************************************************* //
