# time            
# Time            	cpu               	clock             
1                 	8.5021420000e+00	9
