# time            
# Time            	cpu               	clock             
1                 	3.0407500000e+00	3
