/*--------------------------------*- C++ -*----------------------------------*\
  =========                 |
  \\      /  F ield         | OpenFOAM: The Open Source CFD Toolbox
   \\    /   O peration     | Website:  https://openfoam.org
    \\  /    A nd           | Version:  12
     \\/     M anipulation  |
\*---------------------------------------------------------------------------*/
FoamFile
{
    format      ascii;
    class       volScalarField;
    location    "8";
    object      p;
}
// * * * * * * * * * * * * * * * * * * * * * * * * * * * * * * * * * * * * * //

dimensions      [1 -1 -2 0 0 0 0];

internalField   nonuniform List<scalar> 
3829
(
-617.424
-617.423
-617.421
-617.417
-617.413
-617.407
-617.4
-617.392
-617.382
-617.37
-617.357
-617.342
-617.325
-617.307
-617.286
-617.263
-617.238
-617.21
-617.18
-617.148
-617.113
-617.075
-617.034
-616.991
-616.946
-616.897
-616.846
-616.792
-616.736
-616.678
-616.617
-616.555
-616.491
-616.425
-616.358
-616.289
-616.22
-616.151
-616.081
-616.011
-615.942
-615.873
-615.805
-615.739
-615.674
-615.612
-615.552
-615.494
-615.439
-615.388
-615.339
-615.294
-615.252
-615.214
-615.179
-615.147
-615.12
-615.095
-615.075
-615.057
-615.043
-615.031
-615.022
-615.016
-615.011
-615.009
-615.008
-615.007
-615.007
-615.008
-615.008
-615.007
-615.005
-615.001
-614.995
-614.987
-614.976
-614.962
-614.945
-614.925
-614.9
-614.872
-614.84
-614.805
-614.767
-614.727
-614.684
-614.639
-614.593
-614.545
-614.498
-614.452
-614.406
-614.363
-614.323
-614.286
-614.253
-614.226
-614.203
-614.186
-614.175
-614.171
-614.173
-614.181
-614.195
-614.214
-614.238
-614.266
-614.296
-614.328
-614.361
-614.394
-614.426
-614.454
-614.48
-614.501
-614.517
-614.527
-614.531
-614.529
-614.52
-614.507
-614.488
-614.465
-614.439
-614.412
-614.384
-614.357
-614.332
-614.31
-614.292
-614.279
-614.271
-614.269
-614.273
-614.281
-614.293
-614.307
-614.324
-614.34
-614.355
-614.368
-614.377
-614.383
-614.383
-614.379
-614.371
-614.358
-614.343
-614.326
-614.309
-614.293
-614.28
-614.27
-614.263
-614.263
-614.267
-614.275
-614.287
-614.302
-614.317
-614.333
-614.347
-614.359
-614.367
-614.372
-614.372
-614.369
-614.362
-614.352
-614.34
-614.328
-614.316
-614.306
-614.299
-614.295
-614.296
-614.3
-614.308
-614.319
-614.333
-614.348
-614.364
-614.379
-614.392
-614.403
-614.41
-614.413
-614.411
-614.404
-614.393
-614.379
-614.362
-614.342
-614.323
-614.303
-614.286
-614.271
-614.261
-614.255
-1775.89
-1775.89
-1775.89
-1775.89
-1775.88
-1775.88
-1775.87
-1775.87
-1775.86
-1775.85
-1775.84
-1775.83
-1775.81
-1775.79
-1775.77
-1775.75
-1775.73
-1775.7
-1775.67
-1775.64
-1775.6
-1775.56
-1775.51
-1775.47
-1775.42
-1775.36
-1775.3
-1775.24
-1775.18
-1775.11
-1775.04
-1774.97
-1774.89
-1774.82
-1774.74
-1774.66
-1774.58
-1774.5
-1774.42
-1774.34
-1774.26
-1774.18
-1774.11
-1774.03
-1773.96
-1773.89
-1773.83
-1773.76
-1773.71
-1773.65
-1773.6
-1773.56
-1773.52
-1773.48
-1773.45
-1773.42
-1773.4
-1773.38
-1773.36
-1773.35
-1773.34
-1773.34
-1773.34
-1773.34
-1773.34
-1773.35
-1773.36
-1773.36
-1773.37
-1773.38
-1773.39
-1773.39
-1773.4
-1773.4
-1773.4
-1773.4
-1773.39
-1773.38
-1773.36
-1773.34
-1773.31
-1773.28
-1773.25
-1773.21
-1773.17
-1773.12
-1773.07
-1773.02
-1772.97
-1772.91
-1772.86
-1772.8
-1772.75
-1772.7
-1772.65
-1772.61
-1772.57
-1772.54
-1772.52
-1772.5
-1772.49
-1772.49
-1772.49
-1772.51
-1772.52
-1772.55
-1772.58
-1772.61
-1772.65
-1772.69
-1772.73
-1772.77
-1772.81
-1772.85
-1772.88
-1772.9
-1772.92
-1772.93
-1772.94
-1772.93
-1772.92
-1772.9
-1772.88
-1772.85
-1772.82
-1772.78
-1772.75
-1772.72
-1772.69
-1772.66
-1772.64
-1772.63
-1772.62
-1772.62
-1772.62
-1772.64
-1772.65
-1772.67
-1772.69
-1772.71
-1772.73
-1772.75
-1772.76
-1772.77
-1772.77
-1772.76
-1772.75
-1772.74
-1772.72
-1772.7
-1772.68
-1772.66
-1772.64
-1772.63
-1772.62
-1772.62
-1772.63
-1772.64
-1772.65
-1772.67
-1772.69
-1772.71
-1772.72
-1772.74
-1772.74
-1772.75
-1772.75
-1772.74
-1772.74
-1772.72
-1772.71
-1772.7
-1772.68
-1772.67
-1772.66
-1772.66
-1772.66
-1772.66
-1772.67
-1772.69
-1772.7
-1772.72
-1772.73
-1772.75
-1772.77
-1772.78
-1772.78
-1772.79
-1772.79
-1772.78
-1772.77
-1772.75
-1772.73
-1772.71
-1772.69
-1772.67
-1772.65
-1772.64
-1772.63
-1772.62
-2802.2
-2802.2
-2802.2
-2802.2
-2802.2
-2802.2
-2802.2
-2802.2
-2802.2
-2802.2
-2802.2
-2802.19
-2802.18
-2802.17
-2802.16
-2802.14
-2802.12
-2802.1
-2802.07
-2802.03
-2801.99
-2801.95
-2801.9
-2801.84
-2801.78
-2801.72
-2801.64
-2801.57
-2801.48
-2801.4
-2801.31
-2801.22
-2801.12
-2801.02
-2800.92
-2800.82
-2800.72
-2800.62
-2800.52
-2800.42
-2800.32
-2800.23
-2800.14
-2800.05
-2799.96
-2799.89
-2799.81
-2799.74
-2799.68
-2799.62
-2799.57
-2799.52
-2799.48
-2799.45
-2799.42
-2799.4
-2799.38
-2799.37
-2799.37
-2799.37
-2799.38
-2799.39
-2799.4
-2799.42
-2799.44
-2799.46
-2799.49
-2799.51
-2799.53
-2799.56
-2799.58
-2799.6
-2799.61
-2799.62
-2799.63
-2799.64
-2799.63
-2799.62
-2799.61
-2799.59
-2799.56
-2799.52
-2799.48
-2799.44
-2799.38
-2799.33
-2799.27
-2799.2
-2799.13
-2799.06
-2799
-2798.93
-2798.86
-2798.8
-2798.74
-2798.69
-2798.64
-2798.61
-2798.58
-2798.56
-2798.55
-2798.55
-2798.56
-2798.58
-2798.61
-2798.65
-2798.69
-2798.74
-2798.79
-2798.85
-2798.9
-2798.96
-2799.01
-2799.05
-2799.09
-2799.13
-2799.15
-2799.16
-2799.16
-2799.15
-2799.14
-2799.11
-2799.08
-2799.04
-2798.99
-2798.95
-2798.9
-2798.86
-2798.82
-2798.79
-2798.76
-2798.74
-2798.74
-2798.74
-2798.75
-2798.77
-2798.79
-2798.82
-2798.85
-2798.88
-2798.91
-2798.93
-2798.95
-2798.96
-2798.96
-2798.95
-2798.93
-2798.91
-2798.89
-2798.86
-2798.83
-2798.8
-2798.78
-2798.77
-2798.76
-2798.76
-2798.77
-2798.78
-2798.8
-2798.83
-2798.85
-2798.87
-2798.89
-2798.91
-2798.92
-2798.92
-2798.92
-2798.92
-2798.91
-2798.89
-2798.87
-2798.85
-2798.84
-2798.82
-2798.81
-2798.81
-2798.81
-2798.81
-2798.82
-2798.84
-2798.86
-2798.88
-2798.9
-2798.92
-2798.93
-2798.95
-2798.95
-2798.96
-2798.96
-2798.95
-2798.93
-2798.92
-2798.9
-2798.87
-2798.85
-2798.83
-2798.81
-2798.79
-2798.78
-2798.77
-3711.37
-3711.38
-3711.38
-3711.39
-3711.4
-3711.41
-3711.42
-3711.44
-3711.45
-3711.47
-3711.48
-3711.5
-3711.51
-3711.51
-3711.52
-3711.51
-3711.5
-3711.49
-3711.46
-3711.43
-3711.39
-3711.34
-3711.28
-3711.21
-3711.14
-3711.05
-3710.95
-3710.85
-3710.74
-3710.62
-3710.5
-3710.38
-3710.25
-3710.11
-3709.98
-3709.84
-3709.71
-3709.58
-3709.45
-3709.32
-3709.2
-3709.08
-3708.96
-3708.86
-3708.75
-3708.66
-3708.57
-3708.49
-3708.43
-3708.36
-3708.31
-3708.27
-3708.23
-3708.21
-3708.19
-3708.18
-3708.18
-3708.19
-3708.2
-3708.22
-3708.25
-3708.28
-3708.32
-3708.36
-3708.4
-3708.44
-3708.49
-3708.54
-3708.58
-3708.63
-3708.67
-3708.71
-3708.74
-3708.77
-3708.79
-3708.8
-3708.8
-3708.8
-3708.78
-3708.76
-3708.73
-3708.69
-3708.64
-3708.58
-3708.51
-3708.44
-3708.36
-3708.27
-3708.18
-3708.09
-3708
-3707.91
-3707.83
-3707.75
-3707.67
-3707.61
-3707.55
-3707.51
-3707.47
-3707.45
-3707.44
-3707.45
-3707.47
-3707.5
-3707.54
-3707.6
-3707.66
-3707.73
-3707.81
-3707.88
-3707.96
-3708.03
-3708.1
-3708.16
-3708.21
-3708.26
-3708.28
-3708.3
-3708.3
-3708.28
-3708.25
-3708.21
-3708.17
-3708.11
-3708.05
-3707.98
-3707.92
-3707.86
-3707.81
-3707.77
-3707.74
-3707.72
-3707.71
-3707.72
-3707.74
-3707.77
-3707.81
-3707.85
-3707.89
-3707.94
-3707.97
-3708
-3708.03
-3708.04
-3708.03
-3708.02
-3708
-3707.97
-3707.93
-3707.9
-3707.86
-3707.82
-3707.8
-3707.78
-3707.77
-3707.77
-3707.78
-3707.8
-3707.83
-3707.86
-3707.89
-3707.92
-3707.94
-3707.97
-3707.98
-3707.98
-3707.98
-3707.97
-3707.96
-3707.94
-3707.91
-3707.89
-3707.87
-3707.85
-3707.84
-3707.83
-3707.83
-3707.84
-3707.85
-3707.87
-3707.89
-3707.91
-3707.94
-3707.96
-3707.98
-3708
-3708
-3708.01
-3708.01
-3708
-3707.98
-3707.96
-3707.94
-3707.91
-3707.89
-3707.86
-3707.84
-3707.82
-3707.81
-3707.8
-4516.72
-4516.73
-4516.74
-4516.76
-4516.79
-4516.83
-4516.87
-4516.92
-4516.97
-4517.02
-4517.07
-4517.13
-4517.18
-4517.22
-4517.26
-4517.28
-4517.3
-4517.3
-4517.29
-4517.27
-4517.23
-4517.17
-4517.1
-4517
-4516.9
-4516.78
-4516.64
-4516.5
-4516.34
-4516.17
-4516
-4515.82
-4515.64
-4515.46
-4515.27
-4515.09
-4514.91
-4514.73
-4514.56
-4514.4
-4514.24
-4514.09
-4513.95
-4513.82
-4513.7
-4513.59
-4513.49
-4513.4
-4513.33
-4513.27
-4513.22
-4513.18
-4513.15
-4513.14
-4513.13
-4513.14
-4513.16
-4513.19
-4513.23
-4513.27
-4513.33
-4513.39
-4513.46
-4513.53
-4513.6
-4513.68
-4513.75
-4513.83
-4513.91
-4513.98
-4514.04
-4514.1
-4514.16
-4514.2
-4514.24
-4514.26
-4514.27
-4514.27
-4514.26
-4514.23
-4514.19
-4514.14
-4514.08
-4514
-4513.91
-4513.82
-4513.71
-4513.6
-4513.49
-4513.37
-4513.25
-4513.14
-4513.02
-4512.92
-4512.82
-4512.74
-4512.67
-4512.61
-4512.57
-4512.55
-4512.55
-4512.56
-4512.59
-4512.64
-4512.7
-4512.78
-4512.87
-4512.96
-4513.06
-4513.17
-4513.27
-4513.37
-4513.46
-4513.55
-4513.61
-4513.66
-4513.7
-4513.71
-4513.71
-4513.68
-4513.64
-4513.59
-4513.52
-4513.44
-4513.35
-4513.27
-4513.18
-4513.11
-4513.04
-4512.98
-4512.94
-4512.92
-4512.92
-4512.93
-4512.97
-4513.01
-4513.06
-4513.12
-4513.19
-4513.24
-4513.3
-4513.34
-4513.37
-4513.38
-4513.38
-4513.36
-4513.33
-4513.28
-4513.23
-4513.18
-4513.13
-4513.09
-4513.05
-4513.03
-4513.02
-4513.02
-4513.04
-4513.06
-4513.1
-4513.14
-4513.18
-4513.22
-4513.25
-4513.28
-4513.29
-4513.3
-4513.29
-4513.28
-4513.26
-4513.23
-4513.2
-4513.17
-4513.15
-4513.13
-4513.11
-4513.1
-4513.1
-4513.11
-4513.13
-4513.15
-4513.17
-4513.2
-4513.23
-4513.26
-4513.28
-4513.3
-4513.31
-4513.31
-4513.31
-4513.3
-4513.28
-4513.26
-4513.23
-4513.2
-4513.17
-4513.14
-4513.12
-4513.1
-4513.08
-4513.07
-5229.85
-5229.86
-5229.9
-5229.95
-5230.02
-5230.1
-5230.19
-5230.3
-5230.41
-5230.53
-5230.65
-5230.77
-5230.89
-5231
-5231.1
-5231.18
-5231.25
-5231.3
-5231.32
-5231.33
-5231.3
-5231.25
-5231.17
-5231.06
-5230.92
-5230.76
-5230.56
-5230.35
-5230.12
-5229.88
-5229.63
-5229.37
-5229.11
-5228.86
-5228.6
-5228.36
-5228.12
-5227.88
-5227.66
-5227.45
-5227.26
-5227.07
-5226.9
-5226.75
-5226.6
-5226.48
-5226.38
-5226.29
-5226.22
-5226.16
-5226.12
-5226.09
-5226.08
-5226.08
-5226.1
-5226.13
-5226.17
-5226.23
-5226.3
-5226.38
-5226.47
-5226.57
-5226.67
-5226.78
-5226.89
-5227.01
-5227.12
-5227.23
-5227.34
-5227.45
-5227.54
-5227.63
-5227.71
-5227.77
-5227.82
-5227.86
-5227.88
-5227.88
-5227.87
-5227.84
-5227.79
-5227.73
-5227.64
-5227.55
-5227.44
-5227.31
-5227.18
-5227.03
-5226.88
-5226.73
-5226.58
-5226.43
-5226.29
-5226.15
-5226.03
-5225.93
-5225.84
-5225.77
-5225.72
-5225.7
-5225.7
-5225.72
-5225.77
-5225.83
-5225.92
-5226.03
-5226.15
-5226.28
-5226.41
-5226.55
-5226.69
-5226.82
-5226.94
-5227.04
-5227.13
-5227.19
-5227.23
-5227.25
-5227.24
-5227.2
-5227.14
-5227.07
-5226.97
-5226.86
-5226.75
-5226.64
-5226.52
-5226.42
-5226.34
-5226.27
-5226.22
-5226.2
-5226.2
-5226.22
-5226.27
-5226.33
-5226.4
-5226.49
-5226.57
-5226.65
-5226.72
-5226.78
-5226.81
-5226.83
-5226.82
-5226.79
-5226.75
-5226.69
-5226.63
-5226.56
-5226.49
-5226.43
-5226.39
-5226.36
-5226.35
-5226.35
-5226.38
-5226.41
-5226.46
-5226.51
-5226.56
-5226.61
-5226.65
-5226.68
-5226.7
-5226.71
-5226.7
-5226.68
-5226.65
-5226.62
-5226.58
-5226.55
-5226.51
-5226.49
-5226.47
-5226.46
-5226.46
-5226.47
-5226.49
-5226.52
-5226.55
-5226.58
-5226.61
-5226.64
-5226.67
-5226.69
-5226.7
-5226.71
-5226.7
-5226.69
-5226.67
-5226.65
-5226.62
-5226.58
-5226.55
-5226.52
-5226.49
-5226.46
-5226.45
-5226.44
-5861.29
-5861.33
-5861.4
-5861.51
-5861.66
-5861.84
-5862.05
-5862.29
-5862.56
-5862.84
-5863.13
-5863.42
-5863.7
-5863.96
-5864.19
-5864.39
-5864.55
-5864.65
-5864.71
-5864.71
-5864.66
-5864.55
-5864.39
-5864.19
-5863.94
-5863.65
-5863.32
-5862.97
-5862.6
-5862.22
-5861.85
-5861.48
-5861.12
-5860.77
-5860.43
-5860.1
-5859.79
-5859.5
-5859.23
-5858.98
-5858.74
-5858.53
-5858.34
-5858.17
-5858.02
-5857.88
-5857.77
-5857.67
-5857.6
-5857.55
-5857.51
-5857.5
-5857.51
-5857.54
-5857.58
-5857.64
-5857.72
-5857.82
-5857.92
-5858.04
-5858.17
-5858.32
-5858.46
-5858.62
-5858.77
-5858.93
-5859.09
-5859.24
-5859.39
-5859.54
-5859.67
-5859.79
-5859.89
-5859.98
-5860.05
-5860.1
-5860.13
-5860.13
-5860.12
-5860.08
-5860.02
-5859.94
-5859.83
-5859.71
-5859.57
-5859.41
-5859.24
-5859.05
-5858.86
-5858.67
-5858.48
-5858.29
-5858.11
-5857.94
-5857.79
-5857.66
-5857.55
-5857.47
-5857.41
-5857.39
-5857.39
-5857.43
-5857.49
-5857.59
-5857.7
-5857.84
-5858
-5858.17
-5858.35
-5858.53
-5858.7
-5858.87
-5859.02
-5859.15
-5859.26
-5859.34
-5859.38
-5859.4
-5859.38
-5859.33
-5859.25
-5859.14
-5859.02
-5858.88
-5858.73
-5858.58
-5858.44
-5858.31
-5858.2
-5858.11
-5858.06
-5858.03
-5858.04
-5858.08
-5858.14
-5858.22
-5858.32
-5858.43
-5858.55
-5858.65
-5858.74
-5858.81
-5858.85
-5858.87
-5858.86
-5858.82
-5858.76
-5858.69
-5858.6
-5858.51
-5858.43
-5858.35
-5858.3
-5858.26
-5858.25
-5858.26
-5858.29
-5858.34
-5858.4
-5858.47
-5858.53
-5858.59
-5858.64
-5858.68
-5858.7
-5858.7
-5858.69
-5858.67
-5858.63
-5858.59
-5858.54
-5858.5
-5858.46
-5858.43
-5858.41
-5858.4
-5858.4
-5858.41
-5858.44
-5858.47
-5858.5
-5858.54
-5858.58
-5858.61
-5858.64
-5858.66
-5858.68
-5858.68
-5858.68
-5858.66
-5858.64
-5858.61
-5858.58
-5858.54
-5858.51
-5858.47
-5858.44
-5858.41
-5858.39
-5858.38
-6419.72
-6419.78
-6419.91
-6420.11
-6420.38
-6420.71
-6421.1
-6421.54
-6422.03
-6422.52
-6423.01
-6423.47
-6423.9
-6424.29
-6424.63
-6424.91
-6425.14
-6425.31
-6425.42
-6425.48
-6425.46
-6425.39
-6425.24
-6425.01
-6424.71
-6424.33
-6423.89
-6423.38
-6422.86
-6422.34
-6421.83
-6421.33
-6420.85
-6420.4
-6419.96
-6419.56
-6419.18
-6418.83
-6418.51
-6418.22
-6417.95
-6417.72
-6417.5
-6417.32
-6417.16
-6417.02
-6416.91
-6416.82
-6416.76
-6416.73
-6416.71
-6416.72
-6416.76
-6416.81
-6416.89
-6416.99
-6417.11
-6417.24
-6417.39
-6417.56
-6417.74
-6417.93
-6418.13
-6418.33
-6418.54
-6418.75
-6418.95
-6419.15
-6419.35
-6419.53
-6419.7
-6419.85
-6419.99
-6420.1
-6420.19
-6420.26
-6420.29
-6420.3
-6420.29
-6420.24
-6420.16
-6420.06
-6419.93
-6419.77
-6419.59
-6419.4
-6419.18
-6418.95
-6418.72
-6418.48
-6418.24
-6418.01
-6417.78
-6417.58
-6417.39
-6417.24
-6417.1
-6417.01
-6416.94
-6416.92
-6416.93
-6416.98
-6417.07
-6417.19
-6417.34
-6417.51
-6417.71
-6417.93
-6418.15
-6418.38
-6418.6
-6418.81
-6418.99
-6419.15
-6419.28
-6419.37
-6419.43
-6419.44
-6419.41
-6419.34
-6419.24
-6419.1
-6418.94
-6418.76
-6418.57
-6418.39
-6418.21
-6418.05
-6417.92
-6417.81
-6417.75
-6417.72
-6417.74
-6417.79
-6417.87
-6417.98
-6418.11
-6418.26
-6418.4
-6418.53
-6418.64
-6418.72
-6418.78
-6418.8
-6418.78
-6418.73
-6418.65
-6418.56
-6418.45
-6418.33
-6418.23
-6418.14
-6418.07
-6418.03
-6418.02
-6418.04
-6418.08
-6418.14
-6418.21
-6418.29
-6418.37
-6418.44
-6418.5
-6418.55
-6418.57
-6418.57
-6418.56
-6418.52
-6418.48
-6418.43
-6418.37
-6418.32
-6418.28
-6418.24
-6418.22
-6418.21
-6418.21
-6418.22
-6418.25
-6418.29
-6418.33
-6418.37
-6418.41
-6418.45
-6418.49
-6418.51
-6418.53
-6418.53
-6418.53
-6418.51
-6418.49
-6418.46
-6418.42
-6418.38
-6418.34
-6418.3
-6418.26
-6418.23
-6418.21
-6418.2
-6913.44
-6913.55
-6913.79
-6914.14
-6914.62
-6915.23
-6915.97
-6916.8
-6917.72
-6918.64
-6919.55
-6920.42
-6921.25
-6922.03
-6922.8
-6923.44
-6923.94
-6924.29
-6924.49
-6924.54
-6924.45
-6924.21
-6923.84
-6923.35
-6922.75
-6922.04
-6921.23
-6920.28
-6919.4
-6918.59
-6917.83
-6917.14
-6916.5
-6915.92
-6915.39
-6914.92
-6914.49
-6914.1
-6913.74
-6913.43
-6913.14
-6912.89
-6912.67
-6912.48
-6912.32
-6912.19
-6912.09
-6912.02
-6911.97
-6911.95
-6911.96
-6912
-6912.07
-6912.16
-6912.27
-6912.41
-6912.57
-6912.75
-6912.95
-6913.17
-6913.4
-6913.65
-6913.9
-6914.16
-6914.42
-6914.68
-6914.94
-6915.19
-6915.43
-6915.66
-6915.87
-6916.06
-6916.23
-6916.37
-6916.48
-6916.56
-6916.61
-6916.62
-6916.6
-6916.54
-6916.44
-6916.32
-6916.15
-6915.96
-6915.74
-6915.5
-6915.24
-6914.96
-6914.67
-6914.38
-6914.09
-6913.81
-6913.54
-6913.3
-6913.07
-6912.88
-6912.73
-6912.62
-6912.55
-6912.52
-6912.54
-6912.61
-6912.72
-6912.87
-6913.06
-6913.28
-6913.53
-6913.79
-6914.07
-6914.34
-6914.61
-6914.86
-6915.09
-6915.28
-6915.43
-6915.54
-6915.6
-6915.61
-6915.56
-6915.47
-6915.34
-6915.17
-6914.97
-6914.75
-6914.52
-6914.29
-6914.07
-6913.88
-6913.72
-6913.6
-6913.53
-6913.5
-6913.52
-6913.59
-6913.7
-6913.84
-6914.01
-6914.18
-6914.36
-6914.52
-6914.65
-6914.76
-6914.82
-6914.84
-6914.81
-6914.75
-6914.65
-6914.53
-6914.39
-6914.25
-6914.13
-6914.02
-6913.94
-6913.9
-6913.88
-6913.91
-6913.96
-6914.03
-6914.13
-6914.22
-6914.32
-6914.4
-6914.47
-6914.52
-6914.55
-6914.55
-6914.53
-6914.49
-6914.43
-6914.37
-6914.31
-6914.25
-6914.19
-6914.15
-6914.13
-6914.11
-6914.12
-6914.14
-6914.17
-6914.21
-6914.26
-6914.31
-6914.35
-6914.4
-6914.44
-6914.46
-6914.48
-6914.49
-6914.48
-6914.46
-6914.43
-6914.4
-6914.36
-6914.31
-6914.27
-6914.22
-6914.19
-6914.15
-6914.13
-6914.12
-7349.33
-7349.47
-7349.76
-7350.22
-7350.87
-7351.78
-7353.2
-7354.91
-7358.15
-7360.04
-7361.49
-7362.81
-7363.94
-7364.83
-7365.44
-7365.9
-7366.22
-7366.39
-7366.46
-7366.45
-7366.37
-7366.16
-7365.82
-7365.27
-7364.5
-7363.6
-7362.34
-7359.92
-7358.65
-7357.58
-7356.66
-7355.85
-7355.15
-7354.52
-7353.96
-7353.46
-7353.01
-7352.6
-7352.24
-7351.92
-7351.63
-7351.38
-7351.16
-7350.98
-7350.83
-7350.71
-7350.62
-7350.56
-7350.54
-7350.54
-7350.58
-7350.65
-7350.75
-7350.88
-7351.03
-7351.22
-7351.42
-7351.65
-7351.91
-7352.18
-7352.47
-7352.77
-7353.08
-7353.4
-7353.72
-7354.04
-7354.35
-7354.66
-7354.95
-7355.23
-7355.48
-7355.71
-7355.91
-7356.08
-7356.21
-7356.3
-7356.36
-7356.37
-7356.34
-7356.27
-7356.15
-7356
-7355.8
-7355.57
-7355.31
-7355.02
-7354.7
-7354.37
-7354.03
-7353.68
-7353.34
-7353
-7352.69
-7352.4
-7352.14
-7351.91
-7351.73
-7351.6
-7351.53
-7351.5
-7351.53
-7351.62
-7351.75
-7351.94
-7352.17
-7352.44
-7352.74
-7353.06
-7353.39
-7353.72
-7354.04
-7354.33
-7354.6
-7354.82
-7355
-7355.13
-7355.19
-7355.19
-7355.14
-7355.02
-7354.86
-7354.65
-7354.4
-7354.14
-7353.86
-7353.59
-7353.33
-7353.1
-7352.91
-7352.77
-7352.69
-7352.67
-7352.7
-7352.79
-7352.92
-7353.1
-7353.3
-7353.51
-7353.72
-7353.91
-7354.08
-7354.2
-7354.27
-7354.29
-7354.25
-7354.17
-7354.05
-7353.9
-7353.74
-7353.57
-7353.42
-7353.3
-7353.21
-7353.16
-7353.15
-7353.18
-7353.24
-7353.33
-7353.44
-7353.56
-7353.67
-7353.77
-7353.85
-7353.9
-7353.93
-7353.92
-7353.9
-7353.85
-7353.79
-7353.72
-7353.64
-7353.57
-7353.51
-7353.47
-7353.44
-7353.42
-7353.43
-7353.45
-7353.49
-7353.53
-7353.59
-7353.64
-7353.7
-7353.75
-7353.79
-7353.82
-7353.84
-7353.84
-7353.83
-7353.81
-7353.78
-7353.74
-7353.7
-7353.65
-7353.6
-7353.55
-7353.51
-7353.48
-7353.45
-7353.44
-7733.82
-7734.04
-7734.49
-7735.21
-7736.23
-7737.48
-7738.65
-7740.37
-7744.55
-7746.59
-7748.58
-7750.32
-7751.82
-7753.12
-7754.24
-7755.2
-7756.01
-7756.65
-7757.08
-7757.26
-7757.18
-7756.83
-7756.24
-7755.39
-7754.29
-7752.9
-7751.27
-7748.81
-7747.24
-7745.99
-7744.92
-7744.06
-7743.32
-7742.69
-7742.15
-7741.66
-7741.23
-7740.85
-7740.5
-7740.19
-7739.92
-7739.68
-7739.47
-7739.3
-7739.16
-7739.05
-7738.98
-7738.94
-7738.94
-7738.97
-7739.04
-7739.14
-7739.27
-7739.44
-7739.64
-7739.87
-7740.12
-7740.41
-7740.71
-7741.04
-7741.39
-7741.75
-7742.12
-7742.5
-7742.88
-7743.26
-7743.64
-7744
-7744.34
-7744.67
-7744.96
-7745.23
-7745.47
-7745.66
-7745.82
-7745.92
-7745.99
-7746
-7745.96
-7745.87
-7745.74
-7745.55
-7745.32
-7745.05
-7744.74
-7744.39
-7744.03
-7743.64
-7743.23
-7742.83
-7742.43
-7742.04
-7741.67
-7741.33
-7741.03
-7740.78
-7740.57
-7740.42
-7740.34
-7740.32
-7740.36
-7740.46
-7740.63
-7740.85
-7741.13
-7741.45
-7741.8
-7742.18
-7742.56
-7742.95
-7743.32
-7743.67
-7743.98
-7744.24
-7744.44
-7744.58
-7744.65
-7744.64
-7744.57
-7744.43
-7744.23
-7743.98
-7743.69
-7743.37
-7743.05
-7742.73
-7742.43
-7742.16
-7741.95
-7741.79
-7741.7
-7741.67
-7741.72
-7741.83
-7741.99
-7742.2
-7742.44
-7742.69
-7742.94
-7743.17
-7743.36
-7743.5
-7743.58
-7743.59
-7743.55
-7743.45
-7743.31
-7743.13
-7742.94
-7742.74
-7742.57
-7742.42
-7742.32
-7742.26
-7742.26
-7742.3
-7742.37
-7742.48
-7742.61
-7742.74
-7742.87
-7742.98
-7743.07
-7743.13
-7743.16
-7743.15
-7743.12
-7743.07
-7742.99
-7742.91
-7742.83
-7742.75
-7742.68
-7742.63
-7742.6
-7742.58
-7742.59
-7742.62
-7742.66
-7742.71
-7742.77
-7742.83
-7742.89
-7742.94
-7742.99
-7743.02
-7743.04
-7743.05
-7743.04
-7743.02
-7742.98
-7742.94
-7742.89
-7742.84
-7742.78
-7742.73
-7742.69
-7742.65
-7742.63
-7742.61
-8072.91
-8072.96
-8073.07
-8073.2
-8073.36
-8073.53
-8073.81
-8074.23
-8088.76
-8088.33
-8088.05
-8087.62
-8087.18
-8086.62
-8086.19
-8085.76
-8085.36
-8084.98
-8084.63
-8084.31
-8084.02
-8083.76
-8083.54
-8083.34
-8083.18
-8083.06
-8082.97
-8082.92
-8082.9
-8082.92
-8082.98
-8083.07
-8083.21
-8083.38
-8083.58
-8083.83
-8084.1
-8084.41
-8084.75
-8085.11
-8085.5
-8085.9
-8086.33
-8086.76
-8087.2
-8087.64
-8088.08
-8088.51
-8088.93
-8089.33
-8089.7
-8090.05
-8090.36
-8090.62
-8090.85
-8091.02
-8091.14
-8091.21
-8091.22
-8091.18
-8091.07
-8090.91
-8090.7
-8090.43
-8090.11
-8089.75
-8089.36
-8088.93
-8088.48
-8088.02
-8087.55
-8087.09
-8086.65
-8086.22
-8085.84
-8085.5
-8085.21
-8084.98
-8084.81
-8084.72
-8084.7
-8084.76
-8084.88
-8085.08
-8085.34
-8085.67
-8086.04
-8086.44
-8086.88
-8087.32
-8087.77
-8088.19
-8088.59
-8088.94
-8089.24
-8089.46
-8089.62
-8089.69
-8089.68
-8089.59
-8089.42
-8089.19
-8088.89
-8088.55
-8088.19
-8087.81
-8087.44
-8087.1
-8086.8
-8086.55
-8086.37
-8086.27
-8086.25
-8086.31
-8086.45
-8086.64
-8086.89
-8087.17
-8087.46
-8087.75
-8088.01
-8088.22
-8088.38
-8088.47
-8088.49
-8088.43
-8088.31
-8088.14
-8087.94
-8087.71
-8087.49
-8087.29
-8087.13
-8087.01
-8086.95
-8086.94
-8086.99
-8087.09
-8087.21
-8087.36
-8087.51
-8087.66
-8087.78
-8087.88
-8087.94
-8087.97
-8087.97
-8087.93
-8087.86
-8087.78
-8087.69
-8087.59
-8087.5
-8087.43
-8087.37
-8087.34
-8087.33
-8087.33
-8087.36
-8087.41
-8087.47
-8087.53
-8087.6
-8087.66
-8087.72
-8087.77
-8087.81
-8087.83
-8087.83
-8087.82
-8087.8
-8087.76
-8087.72
-8087.66
-8087.61
-8087.55
-8087.5
-8087.45
-8087.41
-8087.38
-8087.37
-8371.91
-8371.89
-8371.85
-8371.83
-8372.01
-8372.47
-8372.75
-8373.02
-8392.39
-8392.11
-8391.87
-8391.56
-8391.2
-8390.82
-8390.45
-8390.09
-8389.74
-8389.41
-8389.09
-8388.8
-8388.53
-8388.29
-8388.07
-8387.89
-8387.75
-8387.64
-8387.56
-8387.52
-8387.52
-8387.57
-8387.65
-8387.78
-8387.94
-8388.15
-8388.4
-8388.68
-8389
-8389.36
-8389.75
-8390.17
-8390.62
-8391.08
-8391.57
-8392.06
-8392.57
-8393.07
-8393.57
-8394.06
-8394.54
-8394.99
-8395.41
-8395.8
-8396.15
-8396.45
-8396.7
-8396.9
-8397.03
-8397.11
-8397.12
-8397.06
-8396.94
-8396.75
-8396.5
-8396.2
-8395.83
-8395.42
-8394.97
-8394.49
-8393.98
-8393.46
-8392.93
-8392.41
-8391.9
-8391.43
-8391
-8390.61
-8390.29
-8390.04
-8389.86
-8389.76
-8389.74
-8389.81
-8389.96
-8390.19
-8390.49
-8390.86
-8391.28
-8391.75
-8392.24
-8392.75
-8393.25
-8393.73
-8394.18
-8394.57
-8394.9
-8395.15
-8395.32
-8395.4
-8395.38
-8395.27
-8395.07
-8394.8
-8394.46
-8394.07
-8393.66
-8393.23
-8392.81
-8392.42
-8392.08
-8391.81
-8391.61
-8391.51
-8391.49
-8391.56
-8391.72
-8391.95
-8392.23
-8392.55
-8392.89
-8393.21
-8393.51
-8393.75
-8393.93
-8394.02
-8394.04
-8393.97
-8393.83
-8393.63
-8393.4
-8393.14
-8392.89
-8392.67
-8392.48
-8392.36
-8392.29
-8392.29
-8392.35
-8392.46
-8392.6
-8392.77
-8392.94
-8393.1
-8393.24
-8393.35
-8393.41
-8393.44
-8393.43
-8393.39
-8393.31
-8393.22
-8393.12
-8393.01
-8392.92
-8392.84
-8392.77
-8392.74
-8392.72
-8392.74
-8392.77
-8392.82
-8392.88
-8392.95
-8393.02
-8393.09
-8393.16
-8393.21
-8393.25
-8393.27
-8393.27
-8393.26
-8393.24
-8393.2
-8393.15
-8393.09
-8393.03
-8392.97
-8392.91
-8392.86
-8392.82
-8392.79
-8392.78
-8637.88
-8637.96
-8638.12
-8638.32
-8638.39
-8638.28
-8638.25
-8638.32
-8661.4
-8661.23
-8661.08
-8660.85
-8660.58
-8660.28
-8659.97
-8659.66
-8659.35
-8659.04
-8658.75
-8658.47
-8658.22
-8657.99
-8657.79
-8657.62
-8657.48
-8657.38
-8657.32
-8657.3
-8657.32
-8657.38
-8657.49
-8657.64
-8657.84
-8658.08
-8658.37
-8658.7
-8659.07
-8659.47
-8659.92
-8660.39
-8660.89
-8661.42
-8661.96
-8662.52
-8663.09
-8663.65
-8664.22
-8664.76
-8665.29
-8665.8
-8666.27
-8666.7
-8667.09
-8667.42
-8667.7
-8667.91
-8668.06
-8668.14
-8668.15
-8668.08
-8667.94
-8667.73
-8667.45
-8667.1
-8666.7
-8666.23
-8665.73
-8665.19
-8664.62
-8664.03
-8663.44
-8662.86
-8662.3
-8661.78
-8661.3
-8660.87
-8660.52
-8660.24
-8660.04
-8659.93
-8659.92
-8660
-8660.18
-8660.44
-8660.78
-8661.2
-8661.67
-8662.2
-8662.75
-8663.31
-8663.87
-8664.41
-8664.91
-8665.34
-8665.71
-8665.98
-8666.16
-8666.24
-8666.22
-8666.09
-8665.86
-8665.55
-8665.17
-8664.73
-8664.26
-8663.78
-8663.32
-8662.88
-8662.51
-8662.21
-8661.99
-8661.88
-8661.87
-8661.95
-8662.14
-8662.4
-8662.72
-8663.08
-8663.46
-8663.82
-8664.15
-8664.42
-8664.61
-8664.72
-8664.73
-8664.65
-8664.49
-8664.26
-8664
-8663.71
-8663.43
-8663.18
-8662.98
-8662.84
-8662.77
-8662.78
-8662.84
-8662.97
-8663.13
-8663.31
-8663.51
-8663.68
-8663.84
-8663.95
-8664.02
-8664.05
-8664.04
-8663.99
-8663.9
-8663.8
-8663.69
-8663.57
-8663.47
-8663.38
-8663.32
-8663.28
-8663.26
-8663.28
-8663.31
-8663.37
-8663.44
-8663.51
-8663.59
-8663.66
-8663.73
-8663.79
-8663.83
-8663.85
-8663.85
-8663.84
-8663.81
-8663.77
-8663.72
-8663.66
-8663.6
-8663.53
-8663.47
-8663.42
-8663.38
-8663.35
-8663.33
-8873.02
-8873.05
-8873.1
-8873.15
-8873.18
-8873.19
-8873.19
-8873.21
-8899.9
-8899.77
-8899.64
-8899.47
-8899.25
-8899
-8898.73
-8898.45
-8898.16
-8897.87
-8897.6
-8897.33
-8897.09
-8896.86
-8896.67
-8896.5
-8896.37
-8896.28
-8896.23
-8896.22
-8896.26
-8896.34
-8896.47
-8896.65
-8896.88
-8897.16
-8897.48
-8897.85
-8898.26
-8898.72
-8899.22
-8899.74
-8900.3
-8900.89
-8901.49
-8902.11
-8902.74
-8903.36
-8903.98
-8904.59
-8905.17
-8905.73
-8906.25
-8906.72
-8907.15
-8907.51
-8907.81
-8908.05
-8908.21
-8908.29
-8908.29
-8908.22
-8908.06
-8907.82
-8907.51
-8907.12
-8906.67
-8906.16
-8905.6
-8905
-8904.37
-8903.72
-8903.07
-8902.43
-8901.82
-8901.24
-8900.71
-8900.25
-8899.86
-8899.56
-8899.35
-8899.24
-8899.23
-8899.32
-8899.52
-8899.81
-8900.2
-8900.66
-8901.19
-8901.77
-8902.38
-8903
-8903.62
-8904.21
-8904.75
-8905.23
-8905.63
-8905.93
-8906.12
-8906.2
-8906.17
-8906.02
-8905.76
-8905.41
-8904.99
-8904.5
-8903.98
-8903.45
-8902.94
-8902.46
-8902.05
-8901.72
-8901.49
-8901.37
-8901.36
-8901.47
-8901.67
-8901.97
-8902.33
-8902.73
-8903.15
-8903.55
-8903.91
-8904.21
-8904.42
-8904.53
-8904.54
-8904.44
-8904.26
-8904.01
-8903.71
-8903.4
-8903.09
-8902.81
-8902.59
-8902.45
-8902.38
-8902.38
-8902.46
-8902.6
-8902.78
-8902.98
-8903.19
-8903.39
-8903.55
-8903.67
-8903.75
-8903.78
-8903.76
-8903.7
-8903.61
-8903.5
-8903.37
-8903.25
-8903.14
-8903.05
-8902.98
-8902.94
-8902.92
-8902.94
-8902.98
-8903.04
-8903.11
-8903.19
-8903.27
-8903.35
-8903.42
-8903.48
-8903.52
-8903.55
-8903.55
-8903.54
-8903.51
-8903.46
-8903.41
-8903.35
-8903.28
-8903.21
-8903.15
-8903.09
-8903.05
-8903.02
-8903
-9081.29
-9081.3
-9081.32
-9081.35
-9081.37
-9081.38
-9081.39
-9081.41
-9111.28
-9111.2
-9111.08
-9110.93
-9110.73
-9110.5
-9110.25
-9109.99
-9109.71
-9109.44
-9109.16
-9108.9
-9108.66
-9108.44
-9108.25
-9108.09
-9107.96
-9107.87
-9107.83
-9107.83
-9107.88
-9107.98
-9108.13
-9108.34
-9108.6
-9108.9
-9109.27
-9109.68
-9110.13
-9110.64
-9111.18
-9111.76
-9112.37
-9113.02
-9113.68
-9114.35
-9115.04
-9115.72
-9116.4
-9117.06
-9117.7
-9118.3
-9118.87
-9119.38
-9119.84
-9120.24
-9120.56
-9120.82
-9120.99
-9121.07
-9121.07
-9120.98
-9120.81
-9120.54
-9120.2
-9119.77
-9119.28
-9118.72
-9118.1
-9117.45
-9116.76
-9116.06
-9115.35
-9114.65
-9113.98
-9113.35
-9112.78
-9112.28
-9111.86
-9111.53
-9111.31
-9111.19
-9111.19
-9111.3
-9111.52
-9111.85
-9112.27
-9112.78
-9113.36
-9113.99
-9114.66
-9115.34
-9116.01
-9116.66
-9117.25
-9117.76
-9118.19
-9118.51
-9118.72
-9118.8
-9118.75
-9118.59
-9118.3
-9117.92
-9117.45
-9116.92
-9116.35
-9115.77
-9115.21
-9114.69
-9114.24
-9113.89
-9113.64
-9113.51
-9113.51
-9113.63
-9113.86
-9114.18
-9114.58
-9115.02
-9115.48
-9115.92
-9116.32
-9116.64
-9116.87
-9116.98
-9116.99
-9116.88
-9116.68
-9116.4
-9116.07
-9115.73
-9115.39
-9115.09
-9114.86
-9114.7
-9114.62
-9114.64
-9114.73
-9114.88
-9115.08
-9115.3
-9115.52
-9115.73
-9115.91
-9116.04
-9116.12
-9116.15
-9116.13
-9116.06
-9115.96
-9115.84
-9115.71
-9115.57
-9115.46
-9115.36
-9115.28
-9115.24
-9115.23
-9115.24
-9115.29
-9115.35
-9115.43
-9115.51
-9115.6
-9115.69
-9115.76
-9115.82
-9115.86
-9115.89
-9115.89
-9115.88
-9115.85
-9115.8
-9115.74
-9115.68
-9115.61
-9115.54
-9115.47
-9115.41
-9115.37
-9115.33
-9115.32
-9265.75
-9265.76
-9265.77
-9265.78
-9265.8
-9265.81
-9265.81
-9265.83
-9298.61
-9298.55
-9298.44
-9298.3
-9298.11
-9297.89
-9297.65
-9297.39
-9297.11
-9296.84
-9296.57
-9296.31
-9296.06
-9295.84
-9295.64
-9295.48
-9295.36
-9295.27
-9295.24
-9295.25
-9295.31
-9295.43
-9295.6
-9295.83
-9296.11
-9296.45
-9296.85
-9297.29
-9297.79
-9298.34
-9298.93
-9299.56
-9300.23
-9300.92
-9301.64
-9302.37
-9303.11
-9303.85
-9304.58
-9305.3
-9305.98
-9306.64
-9307.24
-9307.8
-9308.29
-9308.72
-9309.07
-9309.33
-9309.51
-9309.6
-9309.6
-9309.5
-9309.3
-9309.02
-9308.64
-9308.18
-9307.64
-9307.03
-9306.37
-9305.66
-9304.91
-9304.15
-9303.39
-9302.64
-9301.91
-9301.24
-9300.62
-9300.09
-9299.64
-9299.29
-9299.05
-9298.93
-9298.93
-9299.05
-9299.3
-9299.65
-9300.12
-9300.67
-9301.3
-9301.98
-9302.71
-9303.44
-9304.17
-9304.86
-9305.5
-9306.05
-9306.51
-9306.85
-9307.07
-9307.15
-9307.1
-9306.91
-9306.6
-9306.18
-9305.66
-9305.09
-9304.47
-9303.84
-9303.24
-9302.68
-9302.2
-9301.82
-9301.56
-9301.43
-9301.43
-9301.56
-9301.82
-9302.17
-9302.61
-9303.09
-9303.58
-9304.06
-9304.49
-9304.83
-9305.08
-9305.2
-9305.2
-9305.08
-9304.85
-9304.55
-9304.19
-9303.82
-9303.45
-9303.13
-9302.88
-9302.72
-9302.64
-9302.66
-9302.76
-9302.93
-9303.14
-9303.38
-9303.62
-9303.84
-9304.03
-9304.17
-9304.25
-9304.28
-9304.25
-9304.18
-9304.07
-9303.94
-9303.8
-9303.66
-9303.54
-9303.43
-9303.36
-9303.31
-9303.3
-9303.32
-9303.36
-9303.43
-9303.51
-9303.6
-9303.7
-9303.78
-9303.86
-9303.92
-9303.97
-9303.99
-9304
-9303.98
-9303.95
-9303.9
-9303.84
-9303.77
-9303.7
-9303.63
-9303.56
-9303.5
-9303.45
-9303.42
-9303.4
-9429.15
-9429.16
-9429.16
-9429.17
-9429.18
-9429.19
-9429.19
-9429.2
-9464.61
-9464.56
-9464.45
-9464.31
-9464.13
-9463.91
-9463.67
-9463.4
-9463.13
-9462.85