/*--------------------------------*- C++ -*----------------------------------*\
  =========                 |
  \\      /  F ield         | OpenFOAM: The Open Source CFD Toolbox
   \\    /   O peration     | Website:  https://openfoam.org
    \\  /    A nd           | Version:  12
     \\/     M anipulation  |
\*---------------------------------------------------------------------------*/
FoamFile
{
    format      ascii;
    class       volScalarField;
    location    "8";
    object      p_rgh;
}
// * * * * * * * * * * * * * * * * * * * * * * * * * * * * * * * * * * * * * //

dimensions      [1 -1 -2 0 0 0 0];

internalField   nonuniform List<scalar> 
3829
(
-3.18551
-3.18446
-3.18231
-3.17901
-3.17451
-3.16875
-3.16166
-3.15317
-3.1432
-3.13168
-3.11851
-3.1036
-3.08684
-3.06814
-3.04739
-3.02448
-2.99931
-2.97178
-2.9418
-2.9093
-2.8742
-2.83645
-2.79602
-2.75289
-2.70707
-2.65858
-2.60748
-2.55385
-2.49779
-2.43942
-2.37891
-2.31641
-2.25214
-2.18631
-2.11916
-2.05094
-1.98191
-1.91236
-1.84256
-1.77282
-1.70344
-1.63473
-1.56697
-1.50049
-1.4359
-1.37341
-1.31326
-1.2557
-1.20094
-1.14918
-1.10059
-1.05531
-1.01345
-0.975073
-0.940234
-0.908942
-0.881186
-0.85692
-0.836067
-0.818504
-0.804072
-0.792567
-0.783744
-0.777316
-0.772965
-0.770342
-0.769067
-0.768739
-0.768939
-0.769229
-0.769195
-0.768325
-0.76623
-0.762494
-0.756721
-0.748554
-0.737678
-0.72382
-0.706787
-0.686458
-0.6618
-0.633543
-0.601873
-0.566967
-0.52904
-0.488375
-0.445348
-0.400419
-0.354111
-0.306815
-0.259656
-0.213098
-0.167874
-0.124725
-0.0843866
-0.0475739
-0.0149409
0.0129216
0.0355175
0.0524773
0.0635721
0.0675233
0.0652187
0.0569564
0.043065
0.0239905
0.000342513
-0.0271197
-0.0574964
-0.0897794
-0.122893
-0.155715
-0.187119
-0.216016
-0.2414
-0.262391
-0.278277
-0.288549
-0.292961
-0.290409
-0.281965
-0.268088
-0.249375
-0.226664
-0.201003
-0.173579
-0.145571
-0.118444
-0.0933432
-0.0713836
-0.05349
-0.040318
-0.0321844
-0.0307715
-0.0343724
-0.0424821
-0.054365
-0.0689935
-0.0851515
-0.101532
-0.116743
-0.12961
-0.139064
-0.144314
-0.144913
-0.140788
-0.132189
-0.119843
-0.104707
-0.087975
-0.0709619
-0.0550502
-0.041464
-0.0311963
-0.0249446
-0.0246308
-0.0287928
-0.0370521
-0.048983
-0.0634191
-0.079003
-0.0944822
-0.108666
-0.120432
-0.128906
-0.133523
-0.133831
-0.130198
-0.123078
-0.11324
-0.101697
-0.0896048
-0.0775421
-0.0677846
-0.0606641
-0.0569416
-0.0570798
-0.0612115
-0.0691453
-0.0803812
-0.0941626
-0.109522
-0.125357
-0.140515
-0.153874
-0.164471
-0.171382
-0.174069
-0.172208
-0.165777
-0.155051
-0.140595
-0.123233
-0.103999
-0.0840722
-0.064712
-0.0471902
-0.0327134
-0.0223261
-0.0168595
-3.28307
-3.28232
-3.28078
-3.2784
-3.27511
-3.27083
-3.26547
-3.25889
-3.25096
-3.24152
-3.23041
-3.21747
-3.20253
-3.18544
-3.16602
-3.14409
-3.11946
-3.09195
-3.06139
-3.02762
-2.99051
-2.94998
-2.90594
-2.85837
-2.80728
-2.7527
-2.69473
-2.63351
-2.56918
-2.50196
-2.43205
-2.3597
-2.28515
-2.20873
-2.13076
-2.05161
-1.97168
-1.89135
-1.81102
-1.73107
-1.65189
-1.57384
-1.49728
-1.42246
-1.35087
-1.28245
-1.21737
-1.15586
-1.0981
-1.04428
-0.994557
-0.949056
-0.907876
-0.87108
-0.838704
-0.810739
-0.787145
-0.767832
-0.752668
-0.741465
-0.733989
-0.729954
-0.729019
-0.730807
-0.734904
-0.740851
-0.748155
-0.75631
-0.764779
-0.773009
-0.780457
-0.786577
-0.790832
-0.792706
-0.791714
-0.787409
-0.779392
-0.767341
-0.750986
-0.730153
-0.704733
-0.674706
-0.640214
-0.601454
-0.558718
-0.512403
-0.46302
-0.411176
-0.357552
-0.302893
-0.248112
-0.194047
-0.141613
-0.0917273
-0.0453002
-0.00320997
0.0337279
0.0647897
0.0893857
0.106994
0.117252
0.119853
0.114972
0.102867
0.0839347
0.0587877
0.028239
-0.00673326
-0.0449978
-0.0853
-0.126308
-0.166635
-0.20491
-0.239807
-0.270106
-0.294742
-0.312847
-0.323796
-0.32722
-0.323188
-0.311864
-0.29381
-0.2699
-0.241268
-0.209267
-0.175409
-0.141196
-0.108423
-0.0785108
-0.0528316
-0.0325292
-0.0184439
-0.0110797
-0.0104516
-0.0162551
-0.0277861
-0.0439399
-0.063335
-0.0843963
-0.105508
-0.12488
-0.141094
-0.152885
-0.159336
-0.159921
-0.154369
-0.143411
-0.127911
-0.109133
-0.0885724
-0.0678377
-0.0487247
-0.0326291
-0.0207564
-0.0138349
-0.0136899
-0.0188412
-0.0289274
-0.043274
-0.0607908
-0.0792683
-0.0974015
-0.113831
-0.127261
-0.136687
-0.141488
-0.141402
-0.136706
-0.128001
-0.116237
-0.102616
-0.088462
-0.0746855
-0.063417
-0.0552332
-0.0509519
-0.0510478
-0.0556309
-0.0644452
-0.0769025
-0.0921304
-0.109044
-0.126421
-0.143002
-0.157578
-0.169058
-0.17656
-0.179467
-0.177461
-0.170544
-0.159038
-0.143563
-0.125017
-0.104507
-0.0832873
-0.0626974
-0.0440865
-0.0287212
-0.0177045
-0.0119088
-3.43441
-3.4346
-3.43495
-3.43539
-3.43585
-3.43617
-3.43617
-3.43564
-3.4343
-3.43185
-3.42795
-3.42229
-3.4145
-3.40415
-3.39079
-3.374
-3.35338
-3.32853
-3.29912
-3.26483
-3.2254
-3.18064
-3.1304
-3.07464
-3.01337
-2.94669
-2.87477
-2.79787
-2.71631
-2.63047
-2.54081
-2.44786
-2.35216
-2.25427
-2.15472
-2.05408
-1.95295
-1.85193
-1.75159
-1.65252
-1.55528
-1.46041
-1.36844
-1.27996
-1.19646
-1.11722
-1.04273
-0.973407
-0.909569
-0.851477
-0.799329
-0.753269
-0.713391
-0.679733
-0.652281
-0.630968
-0.615669
-0.606181
-0.602228
-0.603457
-0.609473
-0.619827
-0.634006
-0.65144
-0.671526
-0.693615
-0.717018
-0.741023
-0.764879
-0.787857
-0.809202
-0.828178
-0.844062
-0.856175
-0.863877
-0.866581
-0.863777
-0.855
-0.839945
-0.818288
-0.790414
-0.75606
-0.715371
-0.668627
-0.61627
-0.558898
-0.497248
-0.432184
-0.364664
-0.295743
-0.226604
-0.158434
-0.0924859
-0.0300038
0.0277802
0.0796933
0.124655
0.161674
0.189948
0.20888
0.218056
0.217456
0.207081
0.187225
0.158456
0.12168
0.0780457
0.0289212
-0.0241336
-0.0794043
-0.135083
-0.189303
-0.240229
-0.286114
-0.325354
-0.356597
-0.378728
-0.390955
-0.392883
-0.38503
-0.367474
-0.341029
-0.307001
-0.267021
-0.222996
-0.177004
-0.131276
-0.0879622
-0.049119
-0.016564
0.0082125
0.0241751
0.0306872
0.0286447
0.0178296
-0.000659073
-0.0251698
-0.0536906
-0.0839934
-0.114101
-0.14111
-0.163387
-0.179278
-0.187743
-0.188533
-0.179671
-0.164012
-0.142505
-0.116844
-0.0891114
-0.0614177
-0.0363794
-0.0157574
-0.00119775
0.0061615
0.00644684
-0.000597584
-0.0141164
-0.0329313
-0.0566265
-0.0802457
-0.103131
-0.123572
-0.139935
-0.151015
-0.156082
-0.155101
-0.148346
-0.136697
-0.121419
-0.10404
-0.0861809
-0.0694128
-0.0554675
-0.0454493
-0.0402489
-0.0403495
-0.0457916
-0.0562114
-0.0708552
-0.0886436
-0.108289
-0.128363
-0.147413
-0.16407
-0.177113
-0.185591
-0.188845
-0.186561
-0.178781
-0.165903
-0.148661
-0.128061
-0.105348
-0.081902
-0.0592073
-0.0387297
-0.0218412
-0.00974703
-0.00339205
-3.56574
-3.56827
-3.57336
-3.58092
-3.59081
-3.60276
-3.61643
-3.63136
-3.64697
-3.66256
-3.67728
-3.69012
-3.70017
-3.70667
-3.70882
-3.70579
-3.69671
-3.68079
-3.65729
-3.62554
-3.58502
-3.53532
-3.47622
-3.40764
-3.32971
-3.24274
-3.14724
-3.04386
-2.93342
-2.81679
-2.69479
-2.56825
-2.43813
-2.30544
-2.17125
-2.03654
-1.9023
-1.76944
-1.63886
-1.5114
-1.38788
-1.26906
-1.15557
-1.04797
-0.944436
-0.850191
-0.764471
-0.68712
-0.618144
-0.557605
-0.50558
-0.462136
-0.42731
-0.401069
-0.383326
-0.37391
-0.37256
-0.378912
-0.392529
-0.412888
-0.439379
-0.471317
-0.507964
-0.548503
-0.592057
-0.63771
-0.684495
-0.731402
-0.777421
-0.821512
-0.862661
-0.89986
-0.93213
-0.958571
-0.978352
-0.990712
-0.995002
-0.99068
-0.977192
-0.953734
-0.921143
-0.879379
-0.828678
-0.769475
-0.702443
-0.628432
-0.548492
-0.463838
-0.37582
-0.285927
-0.195793
-0.107079
-0.0215179
0.0591855
0.133325
0.199294
0.255656
0.301133
0.334618
0.355275
0.362481
0.356845
0.338022
0.306447
0.26304
0.209118
0.14632
0.0765788
0.00208115
-0.0747938
-0.151552
-0.225625
-0.294538
-0.355926
-0.407647
-0.447899
-0.475318
-0.488965
-0.488331
-0.474186
-0.446835
-0.407632
-0.358493
-0.301747
-0.240099
-0.176472
-0.113994
-0.0555862
-0.00406579
0.0381443
0.0691309
0.087542
0.0928522
0.085885
0.0669393
0.0377395
0.00065852
-0.0414454
-0.0854658
-0.128123
-0.1662
-0.197
-0.218302
-0.228542
-0.226819
-0.215189
-0.193081
-0.162797
-0.127066
-0.0889137
-0.0511621
-0.0176746
0.00938373
0.0278616
0.03633
0.0356955
0.0252554
0.00654279
-0.018004
-0.0522795
-0.0822966
-0.111748
-0.137743
-0.158086
-0.171293
-0.176599
-0.174103
-0.164294
-0.148434
-0.128227
-0.105668
-0.0828129
-0.061762
-0.0443217
-0.0319407
-0.0256157
-0.0258325
-0.0325465
-0.0452102
-0.0628454
-0.0841079
-0.10742
-0.131081
-0.153392
-0.172775
-0.187852
-0.19757
-0.201233
-0.198538
-0.189583
-0.174868
-0.155295
-0.131994
-0.106393
-0.080049
-0.0546121
-0.0317082
-0.0128527
0.000635223
0.0077158
-3.62382
-3.63106
-3.64564
-3.66747
-3.69632
-3.73181
-3.7734
-3.82016
-3.87078
-3.92377
-3.9775
-4.03017
-4.07979
-4.12411
-4.161
-4.18846
-4.20472
-4.20826
-4.19778
-4.17227
-4.13101
-4.07352
-3.99962
-3.90942
-3.80343
-3.68251
-3.54791
-3.40117
-3.24402
-3.07804
-2.90482
-2.72621
-2.54403
-2.36003
-2.17581
-1.9929
-1.8127
-1.63648
-1.46541
-1.30056
-1.1429
-0.993394
-0.852994
-0.722544
-0.602243
-0.493554
-0.395866
-0.309584
-0.235
-0.172326
-0.121678
-0.0830861
-0.0564864
-0.0417115
-0.0384949
-0.0464484
-0.065051
-0.0936877
-0.131671
-0.178217
-0.232452
-0.293402
-0.360018
-0.431156
-0.50561
-0.582111
-0.659332
-0.735931
-0.81051
-0.881661
-0.948031
-1.00829
-1.06114
-1.1054
-1.14001
-1.16402
-1.17679
-1.17798
-1.1678
-1.13865
-1.09816
-1.04555
-0.980852
-0.904599
-0.817686
-0.72128
-0.616838
-0.506066
-0.390842
-0.27322
-0.155419
-0.0397271
0.0714775
0.175888
0.271257
0.355394
0.426341
0.482376
0.522152
0.544636
0.549275
0.536319
0.505719
0.458228
0.395208
0.318504
0.230402
0.133574
0.0310324
-0.0739608
-0.178001
-0.277661
-0.369592
-0.45063
-0.518013
-0.56937
-0.602898
-0.617487
-0.612797
-0.589506
-0.548568
-0.492027
-0.422593
-0.343555
-0.25865
-0.171906
-0.0876145
-0.00975468
0.0579336
0.112281
0.150767
0.171787
0.174712
0.160524
0.130234
0.0864056
0.032403
-0.0277712
-0.0898286
-0.149077
-0.201403
-0.24307
-0.271181
-0.283879
-0.280463
-0.262396
-0.230696
-0.188353
-0.139101
-0.0870501
-0.0366936
0.00781061
0.0430459
0.0663829
0.076232
0.0735114
0.0578852
0.0313847
-0.00333324
-0.0442557
-0.0849788
-0.123319
-0.156327
-0.181496
-0.197133
-0.202461
-0.197745
-0.183876
-0.162602
-0.136178
-0.107183
-0.0782092
-0.0518815
-0.0302937
-0.0151762
-0.00763966
-0.00815347
-0.0165466
-0.0320336
-0.0533584
-0.0788445
-0.106572
-0.134512
-0.16068
-0.183257
-0.200686
-0.211808
-0.215886
-0.212643
-0.20226
-0.18538
-0.163014
-0.13653
-0.107541
-0.0778194
-0.0491947
-0.0234777
-0.00234387
0.0127529
0.0206754
-3.37187
-3.38884
-3.42299
-3.47403
-3.5413
-3.62347
-3.71874
-3.82469
-3.93895
-4.05848
-4.18025
-4.30075
-4.41679
-4.52515
-4.62275
-4.70668
-4.77423
-4.82284
-4.85004
-4.85342
-4.83067
-4.77972
-4.69912
-4.58846
-4.44863
-4.28142
-4.08973
-3.87698
-3.64701
-3.40404
-3.15262
-2.89648
-2.63876
-2.3822
-2.12918
-1.88178
-1.64183
-1.41091
-1.19034
-0.98128
-0.784655
-0.601058
-0.431019
-0.274462
-0.130599
-0.010936
0.0933108
0.182572
0.256648
0.31529
0.358344
0.385828
0.397871
0.394777
0.376999
0.345118
0.299852
0.242035
0.172621
0.0926784
0.00338649
-0.0939356
-0.197881
-0.306917
-0.419445
-0.533785
-0.648204
-0.760908
-0.87006
-0.973827
-1.07043
-1.1581
-1.23512
-1.29994
-1.35113
-1.3873
-1.40723
-1.4097
-1.39326
-1.36516
-1.31817
-1.25319
-1.17125
-1.07354
-0.961521
-0.836897
-0.701698
-0.558246
-0.409095
-0.257029
-0.105012
0.0439367
0.186657
0.320062
0.441184
0.547242
0.63571
0.704363
0.75143
0.775613
0.776099
0.753426
0.707675
0.640036
0.55239
0.44726
0.327751
0.197463
0.0604305
-0.079006
-0.216318
-0.346987
-0.466603
-0.571086
-0.656835
-0.720923
-0.761154
-0.776167
-0.765165
-0.729569
-0.671067
-0.592477
-0.497521
-0.390656
-0.27694
-0.161567
-0.0506681
0.05075
0.137803
0.206338
0.253221
0.276584
0.275695
0.251737
0.206745
0.14425
0.0689131
-0.0138671
-0.0983075
-0.177994
-0.247556
-0.302137
-0.338091
-0.353142
-0.346734
-0.320256
-0.276144
-0.218485
-0.152298
-0.0831798
-0.0172297
0.0404194
0.0852688
0.114083
0.125147
0.119207
0.0967937
0.060704
0.0146611
-0.0374251
-0.0897052
-0.138283
-0.179346
-0.209908
-0.228053
-0.233057
-0.225379
-0.206463
-0.178641
-0.144837
-0.108308
-0.0722823
-0.0399117
-0.0136929
0.0043912
0.0131284
0.0120938
0.0016324
-0.0172044
-0.0428076
-0.0731237
-0.105852
-0.138596
-0.169049
-0.195143
-0.215124
-0.22773
-0.232192
-0.228268
-0.21624
-0.196902
-0.171444
-0.14144
-0.108724
-0.0752916
-0.0431828
-0.014401
0.00921201
0.0260589
0.0348934
-2.85876
-2.89457
-2.96706
-3.07647
-3.22242
-3.40334
-3.6172
-3.85943
-4.12473
-4.40567
-4.69484
-4.98362
-5.26336
-5.52472
-5.75856
-5.95656
-6.1118
-6.21895
-6.2743
-6.27579
-6.22299
-6.11682
-5.9596
-5.7538
-5.50316
-5.21169
-4.88539
-4.53262
-4.16468
-3.79095
-3.41696
-3.04672
-2.68399
-2.33179
-1.99252
-1.66802
-1.35975
-1.06884
-0.796276
-0.542747
-0.308972
-0.0957733
0.0962634
0.265923
0.411615
0.549743
0.666391
0.761333
0.834856
0.887365
0.919312
0.931136
0.923399
0.89676
0.851974
0.789901
0.711507
0.617906
0.510355
0.390235
0.259068
0.118559
-0.0294839
-0.183099
-0.34024
-0.498759
-0.65644
-0.810993
-0.960071
-1.10135
-1.23256
-1.35151
-1.45603
-1.54419
-1.61414
-1.66434
-1.69337
-1.7002
-1.68443
-1.64705
-1.58684
-1.50409
-1.39979
-1.27535
-1.13261
-0.973811
-0.801624
-0.619114
-0.429581
-0.236639
-0.0441611
0.143917
0.323593
0.490917
0.642041
0.773385
0.881777
0.964477
1.01932
1.04476
1.03989
1.00502
0.940752
0.848777
0.731607
0.592588
0.435805
0.265974
0.0883431
-0.0914733
-0.267601
-0.43423
-0.585758
-0.716989
-0.823369
-0.901311
-0.948318
-0.963481
-0.943255
-0.892181
-0.81218
-0.706915
-0.581316
-0.4413
-0.293603
-0.144225
-0.00233472
0.126359
0.235545
0.320014
0.375898
0.400922
0.394588
0.358281
0.295155
0.209987
0.109009
-0.000669374
-0.111799
-0.215413
-0.304923
-0.374205
-0.418653
-0.435664
-0.424818
-0.387826
-0.328492
-0.252341
-0.166002
-0.0766464
0.00753844
0.0801917
0.135736
0.170342
0.182208
0.171886
0.141095
0.0935965
0.0343541
-0.0314054
-0.0967267
-0.156718
-0.206625
-0.24292
-0.263476
-0.267681
-0.256305
-0.231401
-0.196004
-0.153816
-0.108855
-0.0650077
-0.0260458
0.00512704
0.0262843
0.0361343
0.0343297
0.0214321
-0.00119844
-0.0315592
-0.0671801
-0.105342
-0.14326
-0.178288
-0.208085
-0.230727
-0.244838
-0.249624
-0.244897
-0.231054
-0.209056
-0.180287
-0.146539
-0.109882
-0.0725394
-0.0367734
-0.00477883
0.021423
0.0400984
0.0498823
-1.45221
-1.51735
-1.64793
-1.84637
-2.11137
-2.44127
-2.83605
-3.27786
-3.76356
-4.25478
-4.74127
-5.2019
-5.63258
-6.0203
-6.35993
-6.64521
-6.87359
-7.04432
-7.15672
-7.20912
-7.19854
-7.12091
-6.97172
-6.74683
-6.44563
-6.06697
-5.61991
-5.11604
-4.59593
-4.07207
-3.55915
-3.06146
-2.58403
-2.12906
-1.69844
-1.29389
-0.916746
-0.56765
-0.246695
0.0463892
0.312015
0.550484
0.762411
0.948424
1.10937
1.2464
1.35612
1.44157
1.50277
1.53972
1.55264
1.5419
1.50812
1.45197
1.37434
1.27624
1.15888
1.02362
0.871993
0.705724
0.526707
0.337049
0.138994
-0.0650169
-0.272445
-0.480628
-0.6868
-0.888127
-1.08171
-1.26466
-1.4342
-1.58759
-1.7222
-1.83567
-1.9258
-1.99064
-2.02872
-2.03883
-2.02022
-1.97308
-1.89718
-1.79316
-1.6623
-1.50638
-1.32776
-1.1293
-0.914389
-0.686913
-0.451093
-0.211461
0.0271246
0.259675
0.481127
0.686613
0.871367
1.03094
1.1614
1.25937
1.32222
1.34811
1.33634
1.2869
1.2009
1.08063
0.929342
0.751367
0.551923
0.337004
0.113259
-0.11228
-0.332141
-0.539088
-0.726156
-0.886908
-1.01572
-1.1081
-1.16071
-1.17116
-1.14303
-1.07436
-0.969278
-0.832968
-0.671912
-0.493716
-0.306833
-0.11987
0.0573268
0.21665
0.350377
0.452151
0.517307
0.543222
0.529599
0.478356
0.393762
0.282121
0.151501
0.0109877
-0.130853
-0.261457
-0.373235
-0.458614
-0.512012
-0.530395
-0.513536
-0.463887
-0.386625
-0.288989
-0.179479
-0.067066
0.037621
0.126808
0.19385
0.234301
0.246266
0.23045
0.189737
0.129069
0.0548128
-0.0263507
-0.106109
-0.178483
-0.237792
-0.279965
-0.302712
-0.305573
-0.289775
-0.258032
-0.214184
-0.162792
-0.108705
-0.056428
-0.0105343
0.0257652
0.0500025
0.0608239
0.0579985
0.0423357
0.01555
-0.0199361
-0.0612043
-0.105092
-0.148414
-0.188178
-0.221774
-0.247101
-0.262686
-0.267725
-0.262089
-0.246303
-0.221511
-0.189296
-0.151683
-0.110975
-0.0696291
-0.0301343
0.00513104
0.033969
0.0544953
0.0652422
0.762887
0.646877
0.412967
0.0594175
-0.421787
-1.02766
-1.7652
-2.6006
-3.51977
-4.4371
-5.3511
-6.21454
-7.04629
-7.83229
-8.60022
-9.23851
-9.73741
-10.0908
-10.2927
-10.3429
-10.2454
-10.0073
-9.63939
-9.14979
-8.54948
-7.84288
-7.02932
-6.08021
-5.20272
-4.38974
-3.63209
-2.93467
-2.29714
-1.71775
-1.19263
-0.716886
-0.285803
0.104534
0.457212
0.774403
1.05783
1.30904
1.52888
1.71795
1.87675
2.00595
2.10959
2.18427
2.23013
2.2476
2.23715
2.19937
2.13494
2.04468
1.92959
1.79083
1.62981
1.44816
1.24769
1.03047
0.798776
0.555154
0.302312
0.0432088
-0.219086
-0.48135
-0.740222
-0.992275
-1.234
-1.4619
-1.67263
-1.86289
-2.02952
-2.16965
-2.28073
-2.36047
-2.40706
-2.4192
-2.39586
-2.33704
-2.24296
-2.11454
-1.95342
-1.76186
-1.54282
-1.29987
-1.03722
-0.759677
-0.472432
-0.181103
0.10836
0.389876
0.657254
0.904492
1.12583
1.31591
1.47001
1.5841
1.6551
1.68095
1.66041
1.59402
1.48332
1.33116
1.14169
0.920286
0.673472
0.408672
0.134101
-0.141734
-0.409433
-0.660323
-0.885913
-1.07841
-1.23108
-1.3386
-1.39724
-1.40514
-1.36339
-1.27337
-1.13945
-0.96805
-0.767274
-0.546556
-0.316371
-0.0878201
0.127967
0.320584
0.480714
0.600748
0.675181
0.701065
0.678366
0.609708
0.500575
0.358986
0.19519
0.0211364
-0.156255
-0.315708
-0.451626
-0.554194
-0.616735
-0.635768
-0.611356
-0.546949
-0.44926
-0.327518
-0.192348
-0.0540331
0.0728251
0.179656
0.258679
0.304809
0.316082
0.293676
0.241605
0.166201
0.0754113
-0.0225473
-0.117811
-0.203264
-0.2723
-0.32033
-0.344951
-0.345929
-0.325032
-0.285722
-0.232716
-0.17149
-0.107776
-0.0466991
0.00631328
0.0477943
0.0750353
0.0866544
0.0825656
0.0638692
0.0326498
-0.00821557
-0.0553456
-0.105125
-0.153958
-0.19851
-0.235912
-0.263891
-0.280889
-0.286101
-0.27947
-0.261657
-0.233996
-0.198278
-0.156761
-0.111979
-0.0666259
-0.0234021
0.0151192
0.0465758
0.0689418
0.080643
4.2079
4.06663
3.7741
3.32078
2.66705
1.75928
0.34028
-1.36926
-4.61054
-6.49847
-7.95817
-9.26838
-10.4038
-11.2901
-11.9077
-12.3654
-12.6788
-12.8539
-12.9239
-12.9164
-12.8284
-12.6281
-12.2804
-11.7327
-10.9613
-10.0594
-8.80277
-6.37826
-5.10906
-4.041
-3.12354
-2.31799
-1.61178
-0.984214
-0.423075
0.079405
0.530047
0.934201
1.29598
1.61855
1.90438
2.15527
2.37238
2.55663
2.70848
2.82845
2.91655
2.97321
2.99837
2.99208
2.95458
2.88633
2.78795
2.66029
2.50441
2.32162
2.11353
1.88199
1.62914
1.35739
1.0694
0.768197
0.456974
0.139239
-0.181374
-0.501031
-0.815749
-1.12146
-1.414
-1.68922
-1.94318
-2.17197
-2.37186
-2.53951
-2.6719
-2.76638
-2.82082
-2.83375
-2.80411
-2.73178
-2.61721
-2.46162
-2.26707
-2.03637
-1.77314
-1.4817
-1.16719
-0.835416
-0.49262
-0.145533
0.19865
0.532656
0.849115
1.14088
1.4011
1.62342
1.80226
1.93289
2.01175
2.0365
2.0059
1.92063
1.78267
1.5956
1.36451
1.09599
0.797942
0.479355
0.150121
-0.17944
-0.498265
-0.795898
-1.06224
-1.28809
-1.46552
-1.58837
-1.65243
-1.65577
-1.59908
-1.48514
-1.31932
-1.10944
-0.865397
-0.59861
-0.321783
-0.048394
0.20854
0.436446
0.624289
0.76314
0.846647
0.871565
0.838114
0.749783
0.613438
0.438907
0.23862
0.0264131
-0.184836
-0.376946
-0.538734
-0.659288
-0.730932
-0.749817
-0.716427
-0.635337
-0.515021
-0.366982
-0.204457
-0.037256
0.112644
0.237822
0.329054
0.380543
0.390341
0.360286
0.295587
0.204137
0.0955972
-0.0201421
-0.131668
-0.230616
-0.309484
-0.363213
-0.389336
-0.38792
-0.361343
-0.313883
-0.251195
-0.179699
-0.106013
-0.0360679
0.0241565
0.0707723
0.100883
0.113111
0.107548
0.0856038
0.0497631
0.00337338
-0.0497172
-0.105438
-0.159786
-0.20909
-0.250235
-0.280784
-0.299109
-0.304416
-0.296728
-0.276842
-0.246294
-0.207077
-0.161686
-0.112882
-0.0635835
-0.0166991
0.0250105
0.059024
0.0831893
0.0958199
8.90001
8.68299
8.23791
7.50983
6.48989
5.23962
4.07593
2.3508
-1.8274
-3.86832
-5.85709
-7.5987
-9.09914
-10.3955
-11.5189
-12.4804
-13.2832
-13.9214
-14.3546
-14.5381
-14.454
-14.1083
-13.5123
-12.6664
-11.5618
-10.1806
-8.55021
-6.08547
-4.51773
-3.26687
-2.19873
-1.3398
-0.596146
0.0321078
0.578384
1.06047
1.49113
1.87737
2.22396
2.53378
2.80845
3.04886
3.25552
3.42838
3.56749
3.67261
3.74472
3.78228
3.78514
3.75332
3.68695
3.58638
3.45218
3.28519
3.08654
2.85766
2.60034
2.3167
2.00917
1.68053
1.33386
0.972666
0.60067
0.221941
-0.159283
-0.538531
-0.911158
-1.27243
-1.61749
-1.94152
-2.23994
-2.50822
-2.74203
-2.93752
-3.0912
-3.20003
-3.2616
-3.27417
-3.23689
-3.1494
-3.01237
-2.82735
-2.59684
-2.32424
-2.01388
-1.67092
-1.30143
-0.912295
-0.510891
-0.105071
0.296607
0.685656
1.05344
1.39163
1.69222
1.94785
2.15204
2.29936
2.38569
2.40826
2.36656
2.26075
2.09345
1.86906
1.5937
1.27524
0.92306
0.547795
0.1611
-0.224677
-0.596931
-0.943204
-1.25177
-1.5119
-1.71452
-1.85256
-1.92129
-1.91864
-1.84551
-1.70557
-1.50544
-1.25445
-0.964406
-0.648925
-0.322868
-0.00237959
0.297496
0.562021
0.778364
0.936231
1.02842
1.05145
1.00577
0.895917
0.730189
0.520418
0.281362
0.029325
-0.218742
-0.444431
-0.633017
-0.771936
-0.852433
-0.870362
-0.826723
-0.727313
-0.58252
-0.406392
-0.21616
-0.0162998
0.156233
0.300196
0.40365
0.46007
0.467641
0.42898
0.350635
0.242137
0.11495
-0.0192032
-0.147416
-0.260007
-0.348622
-0.407783
-0.435013
-0.430745
-0.398022
-0.341996
-0.269282
-0.187281
-0.103465
-0.0247483
0.0426574
0.0942728
0.127076
0.139723
0.132505
0.107169
0.0666107
0.0146475
-0.0443987
-0.106011
-0.165789
-0.219737
-0.264507
-0.297513
-0.317065
-0.322393
-0.313608
-0.291656
-0.258232
-0.215576
-0.166394
-0.113678
-0.0605508
-0.0101251
0.0346637
0.0711419
0.0970393
0.110564
14.5857
14.5317
14.4258
14.2881
14.1363
13.9573
13.6863
13.2596
-1.27338
-0.83664
-0.554012
-0.12879
0.308698
0.871326
1.29984
1.72688
2.13154
2.5108
2.86082
3.1808
3.46997
3.72787
3.95384
4.14712
4.30684
4.43211
4.52213
4.5762
4.59346
4.5733
4.51536
4.41954
4.28602
4.11529
3.90817
3.66587
3.38993
3.08234
2.74548
2.3821
1.99534
1.58873
1.16628
0.732235
0.291266
-0.151775
-0.591752
-1.02334
-1.4411
-1.83949
-2.213
-2.55636
-2.86443
-3.13227
-3.35549
-3.53015
-3.65281
-3.72078
-3.73213
-3.68591
-3.58185
-3.42081
-3.20465
-2.93634
-2.6199
-2.26038
-1.86382
-1.43728
-0.988738
-0.526771
-0.0603005
0.400558
0.846175
1.2666
1.65227
1.99402
2.28343
2.51315
2.67703
2.77046
2.7905
2.73622
2.60845
2.41026
2.14684
1.82537
1.45507
1.04686
0.613066
0.167185
-0.276417
-0.703395
-1.09934
-1.45082
-1.74562
-1.97341
-2.12624
-2.19887
-2.18912
-2.09822
-1.93072
-1.69448
-1.40056
-1.06266
-0.696694
-0.319848
0.0491479
0.393017
0.694844
0.939971
1.11673
1.21709
1.23732
1.17826
1.04545
0.848755
0.602129
0.322784
0.0295986
-0.256921
-0.516871
-0.732694
-0.890006
-0.978982
-0.995212
-0.940216
-0.821171
-0.650474
-0.444593
-0.2222
0.00337586
0.202362
0.365591
0.481092
0.541946
0.546584
0.498543
0.405762
0.279552
0.133277
-0.0197781
-0.164718
-0.290858
-0.388984
-0.453233
-0.481176
-0.473669
-0.434464
-0.369614
-0.286723
-0.194165
-0.100301
-0.0128845
0.0614946
0.117902
0.153193
0.166078
0.157071
0.128259
0.0829663
0.0254679
-0.0394408
-0.106813
-0.171867
-0.230291
-0.27853
-0.313855
-0.334529
-0.339813
-0.329907
-0.305922
-0.269678
-0.223687
-0.170846
-0.114368
-0.0575727
-0.00375595
0.0439699
0.0827967
0.110343
0.124718
21.0107
21.0285
21.0675
21.084
20.9069
20.4439
20.1702
19.9008
0.524149
0.809724
1.04571
1.35978
1.71719
2.09727
2.46544
2.82727
3.17644
3.51031
3.82532
4.11865
4.38739
4.62896
4.84109
5.02171
5.16893
5.281
5.35632
5.39352
5.39134
5.34881
5.26528
5.14042
4.97425
4.76719
4.52008
4.23416
3.91113
3.55317
3.16294
2.7435
2.2984
1.83161
1.34764
0.851296
0.347849
-0.157217
-0.658089
-1.14875
-1.62307
-2.07477
-2.49765
-2.88577
-3.23334
-3.53482
-3.7853
-3.98037
-4.11619
-4.1898
-4.19911
-4.14299
-4.02135
-3.83524
-3.58683
-3.27959
-2.91816
-2.50835
-2.05706
-1.5724
-1.06343
-0.539909
-0.0121483
0.508662
1.01143
1.48493
1.91834
2.30136
2.6245
2.87953
3.05958
3.15958
3.17629
3.10874
2.95813
2.72807
2.42459
2.056
1.63286
1.16767
0.674496
0.168703
-0.333348
-0.815458
-1.26131
-1.65573
-1.98501
-2.23759
-2.40464
-2.48042
-2.46267
-2.35302
-2.15691
-1.88349
-1.54552
-1.15878
-0.741401
-0.313106
0.104984
0.493171
0.832374
1.10613
1.3014
1.40934
1.426
1.35265
1.19588
0.967238
0.682792
0.362302
0.0273494
-0.298357
-0.592826
-0.835894
-1.01136
-1.10834
-1.1222
-1.05496
-0.915359
-0.717855
-0.48143
-0.227117
0.025805
0.250557
0.43288
0.560036
0.624782
0.625878
0.56785
0.460145
0.31583
0.150262
-0.0216366
-0.183187
-0.322595
-0.429868
-0.498816
-0.527105
-0.516053
-0.470157
-0.39638
-0.303324
-0.200325
-0.0966172
-0.000708866
0.0803651
0.141309
0.178868
0.19183
0.18094
0.14863
0.0986536
0.0357368
-0.0348703
-0.107806
-0.177926
-0.240618
-0.29214
-0.329632
-0.351322
-0.356506
-0.345479
-0.319485
-0.280542
-0.231349
-0.175017
-0.114956
-0.0546815
0.00234669
0.0528484
0.0938916
0.122997
0.138163
25.6024
25.5206
25.3605
25.16
25.0938
25.1962
25.2304
25.1561
2.07987
2.24854
2.40474
2.62926
2.89671
3.19795
3.50662
3.8219
4.13432
4.43901
4.73097
5.00603
5.2602
5.48982
5.69157
5.8624
5.99954
6.10045
6.1629
6.1849
6.16478
6.10121
5.99327
5.84042
5.64256
5.40006
5.11374
4.78495
4.41552
4.00787
3.56491
3.09007
2.58726
2.06092
1.51606
0.958064
0.392784
-0.173643
-0.734724
-1.28376
-1.8139
-2.31817
-2.78965
-3.22176
-3.60805
-3.94239
-4.21934
-4.43402
-4.58224
-4.66075
-4.66727
-4.6006
-4.46075
-4.24898
-3.96781
-3.62119
-3.21438
-2.75398
-2.24775
-1.70482
-1.13538
-0.550367
0.0385607
0.619092
1.17872
1.70491
2.18564
2.60943
2.96577
3.24554
3.4412
3.54717
3.56
3.47866
3.30471
3.04236
2.69848
2.2825
1.80637
1.28415
0.731671
0.166147
-0.394079
-0.930923
-1.42618
-1.86298
-2.2261
-2.50279
-2.68335
-2.76159
-2.73514
-2.60611
-2.38085
-2.06978
-1.68746
-1.25164
-0.782861
-0.303034
0.163884
0.596045
0.972168
1.27399
1.48715
1.60204
1.61448
1.52625
1.34499
1.08398
0.761377
0.399528
0.0228535
-0.342092
-0.670856
-0.940812
-1.13396
-1.23838
-1.24923
-1.1692
-1.00851
-0.783778
-0.516582
-0.230738
0.0502502
0.30005
0.500963
0.639229
0.707307
0.704357
0.635952
0.513058
0.350597
0.165811
-0.024647
-0.202433
-0.354669
-0.470636
-0.54387
-0.572174
-0.557357
-0.504678
-0.422019
-0.318953
-0.205765
-0.0925255
0.01156
0.0989974
0.164194
0.203801
0.216698
0.203872
0.168095
0.113547
0.0453887
-0.0306965
-0.108947
-0.183885
-0.250604
-0.305209
-0.344708
-0.36731
-0.372351
-0.360216
-0.332283
-0.29076
-0.238528
-0.178892
-0.115456
-0.0519017
0.00813881
0.0612425
0.104373
0.13491
0.15083
30.1418
30.1143
30.0655
30.011
29.9821
29.9783
29.9757
29.9515
3.26729
3.38953
3.51923
3.69052
3.90975
4.16259
4.43238
4.71568
5.00315
5.28872
5.56627
5.8304
6.07612
6.29887
6.49444
6.65899
6.78904
6.88141
6.93328
6.94215
6.90593
6.82299
6.69216
6.51276
6.28457
6.00794
5.68371
5.31334
4.89879
4.44273
3.94835
3.41942
2.86026
2.27573
1.67137
1.05311
0.42741
-0.198968
-0.818846
-1.42484
-2.00943
-2.56491
-3.08368
-3.55851
-3.98233
-4.34839
-4.65076
-4.88413
-5.04392
-5.12664
-5.1298
-5.05215
-4.8938
-4.65623
-4.34231
-3.95648
-3.50461
-2.99405
-2.43346
-1.83296
-1.20386
-0.55827
0.0908865
0.730099
1.34552
1.92335
2.45036
2.91394
3.30254
3.60623
3.81676
3.92813
3.93663
3.84124
3.64385
3.34927
2.96526
2.50233
1.97379
1.39529
0.784384
0.160107
-0.457244
-1.04772
-1.59128
-2.06936
-2.46531
-2.76516
-2.95845
-3.03852
-3.00289
-2.85421
-2.59972
-2.25117
-1.82478
-1.34042
-0.820779
-0.290347
0.224611
0.699836
1.11197
1.441
1.67128
1.79244
1.80018
1.69674
1.49091
1.19758
0.83708
0.434305
0.0163478
-0.387218
-0.749608
-1.04577
-1.25594
-1.36723
-1.37458
-1.2814
-1.09944
-0.847508
-0.549814
-0.232951
0.075994
0.350024
0.568811
0.717547
0.788419
0.781028
0.702036
0.563966
0.383524
0.179995
-0.0287065
-0.222082
-0.38658
-0.510727
-0.58783
-0.615868
-0.59715
-0.537709
-0.446329
-0.33353
-0.210512
-0.0881425
0.0237293
0.117163
0.186311
0.227752
0.240466
0.225687
0.186524
0.127562
0.0543853
-0.026913
-0.110196
-0.189664
-0.260176
-0.317641
-0.358987
-0.382402
-0.387266
-0.374052
-0.344266
-0.3003
-0.245206
-0.182471
-0.115871
-0.0492565
0.0135914
0.0691169
0.114185
0.146055
0.162672
34.2035
34.1913
34.1701
34.1452
34.1251
34.1098
34.102
34.0822
4.20752
4.28896
4.40863
4.56051
4.7564
4.98649
5.23724
5.50447
5.77953
6.05602
6.32734
6.58737
6.83037
7.05104
7.24446
7.40617
7.53208
7.61851
7.66211
7.65997
7.60953
7.50896
7.35693
7.15261
6.89571
6.58657
6.22607
5.81577
5.35782
4.85511
4.31113
3.72998
3.11638
2.47563
1.81376
1.13726
0.453148
-0.231164
-0.907836
-1.56883
-2.20594
-2.81078
-3.37509
-3.89098
-4.35078
-4.74719
-5.07376
-5.32476
-5.49528
-5.58157
-5.58095
-5.4921
-5.31529
-5.05218
-4.70598
-4.28162
-3.7856
-3.22598
-2.61228
-1.95561
-1.26838
-0.563824
0.143901
0.840096
1.50963
2.13748
2.70924
3.2112
3.63083
3.95737
4.18196
4.29817
4.30204
4.19254
3.97195
3.64567
3.22229
2.71343
2.13374
1.50037
0.832595
0.151218
-0.521567
-1.16399
-1.75424
-2.27212
-2.69956
-3.02147
-3.22665
-3.308
-3.2629
-3.09461
-2.81123
-2.42583
-1.9563
-1.42447
-0.855339
-0.275495
0.286027
0.802938
1.24981
1.60493
1.85142
1.97823
1.98089
1.86221
1.63202
1.30692
0.909256
0.466435
0.00833314
-0.432882
-0.827864
-1.14929
-1.37569
-1.49325
-1.49675
-1.39029
-1.18721
-0.908464
-0.580878
-0.233897
0.102424
0.399718
0.635522
0.794031
0.867192
0.85508
0.765481
0.612434
0.414444
0.192671
-0.0334727
-0.241786
-0.4179
-0.549677
-0.630242
-0.65778
-0.635104
-0.569017
-0.469179
-0.347021
-0.214612
-0.0835806
0.0356371
0.134676
0.20747
0.250542
0.262981
0.246266
0.203829
0.14065
0.0627132
-0.0235041
-0.111514
-0.195219
-0.269258
-0.329369
-0.372405
-0.396541
-0.401204
-0.386952
-0.355411
-0.30915
-0.251378
-0.185754
-0.116214
-0.0467605
0.0186884
0.0764621
0.123302
0.156413
0.173673
37.8299
37.8236
37.8125
37.7987
37.786
37.7741
37.7693
37.7555
4.97366
5.03096
5.14542
5.28774
5.47285
5.69266
5.93566
6.19713
6.46885
6.7441
7.01584
7.27743
7.52252
7.74518
7.93991
8.10173
8.22607
8.30885
8.34634
8.3352
8.27227
8.15579
7.98425
7.75671
7.47286
7.133
6.7381
6.28982
5.7905
5.24326
4.65189
4.02082
3.35515
2.6606
1.94368
1.21142
0.471399
-0.268357
-0.999356
-1.71292
-2.40023
-3.05221
-3.65993
-4.21492
-4.70895
-5.13412
-5.48352
-5.75104