/*--------------------------------*- C++ -*----------------------------------*\
  =========                 |
  \\      /  F ield         | OpenFOAM: The Open Source CFD Toolbox
   \\    /   O peration     | Website:  https://openfoam.org
    \\  /    A nd           | Version:  12
     \\/     M anipulation  |
\*---------------------------------------------------------------------------*/
FoamFile
{
    format      ascii;
    class       volVectorField;
    location    "8";
    object      U;
}
// * * * * * * * * * * * * * * * * * * * * * * * * * * * * * * * * * * * * * //

dimensions      [0 1 -1 0 0 0 0];

internalField   nonuniform List<vector> 
3829
(
(5.81344e-06 -0.000128458 0)
(1.73823e-05 -0.000130148 0)
(2.91979e-05 -0.000129985 0)
(4.1132e-05 -0.000129714 0)
(5.32332e-05 -0.000129349 0)
(6.55217e-05 -0.000128885 0)
(7.79865e-05 -0.000128323 0)
(9.06378e-05 -0.000127673 0)
(0.000103507 -0.000126922 0)
(0.000116549 -0.000126082 0)
(0.000129811 -0.000125146 0)
(0.000143267 -0.000124126 0)
(0.000156878 -0.000122992 0)
(0.000170617 -0.000121755 0)
(0.000184487 -0.000120383 0)
(0.000198496 -0.000118886 0)
(0.000212581 -0.000117246 0)
(0.000226733 -0.000115466 0)
(0.000240933 -0.000113534 0)
(0.00025516 -0.000111448 0)
(0.000269384 -0.000109204 0)
(0.000283577 -0.000106795 0)
(0.000297706 -0.000104224 0)
(0.000311738 -0.000101484 0)
(0.000325599 -9.85775e-05 0)
(0.000339287 -9.54961e-05 0)
(0.000352799 -9.22448e-05 0)
(0.000366042 -8.88337e-05 0)
(0.000378951 -8.52606e-05 0)
(0.000391485 -8.1539e-05 0)
(0.000403526 -7.76833e-05 0)
(0.00041508 -7.36869e-05 0)
(0.000426121 -6.95715e-05 0)
(0.000436473 -6.53621e-05 0)
(0.000446105 -6.10145e-05 0)
(0.000454955 -5.65573e-05 0)
(0.000462906 -5.19573e-05 0)
(0.000469994 -4.7206e-05 0)
(0.000476178 -4.23219e-05 0)
(0.000481406 -3.73015e-05 0)
(0.000485571 -3.21612e-05 0)
(0.000488608 -2.69091e-05 0)
(0.000490485 -2.15605e-05 0)
(0.000491015 -1.61173e-05 0)
(0.000490067 -1.06146e-05 0)
(0.00048756 -5.08803e-06 0)
(0.000483461 4.25511e-07 0)
(0.000477711 5.89503e-06 0)
(0.000470283 1.12798e-05 0)
(0.00046117 1.65752e-05 0)
(0.000450327 2.17304e-05 0)
(0.000437809 2.67329e-05 0)
(0.000423531 3.15271e-05 0)
(0.000407524 3.61233e-05 0)
(0.000390028 4.04446e-05 0)
(0.0003711 4.44722e-05 0)
(0.000350526 4.81642e-05 0)
(0.000328592 5.14993e-05 0)
(0.000305437 5.44248e-05 0)
(0.000281062 5.69347e-05 0)
(0.000255635 5.89456e-05 0)
(0.000229265 6.0485e-05 0)
(0.000202452 6.1504e-05 0)
(0.000175211 6.19909e-05 0)
(0.000147556 6.18657e-05 0)
(0.000119912 6.11897e-05 0)
(9.2596e-05 5.99626e-05 0)
(6.56499e-05 5.81166e-05 0)
(3.9557e-05 5.57434e-05 0)
(1.45919e-05 5.28119e-05 0)
(-9.09079e-06 4.93591e-05 0)
(-3.12947e-05 4.53789e-05 0)
(-5.15997e-05 4.09714e-05 0)
(-6.98379e-05 3.61041e-05 0)
(-8.57329e-05 3.09272e-05 0)
(-9.92356e-05 2.53865e-05 0)
(-0.000109948 1.97077e-05 0)
(-0.000117777 1.38115e-05 0)
(-0.000122929 7.86721e-06 0)
(-0.000124887 1.97406e-06 0)
(-0.000123732 -3.78011e-06 0)
(-0.000119385 -9.31929e-06 0)
(-0.000112082 -1.45853e-05 0)
(-0.000101924 -1.9456e-05 0)
(-8.9191e-05 -2.38812e-05 0)
(-7.42074e-05 -2.77333e-05 0)
(-5.69947e-05 -3.09495e-05 0)
(-3.80066e-05 -3.34698e-05 0)
(-1.76708e-05 -3.52419e-05 0)
(3.62457e-06 -3.62493e-05 0)
(2.5342e-05 -3.64302e-05 0)
(4.71077e-05 -3.57914e-05 0)
(6.84098e-05 -3.43429e-05 0)
(8.8755e-05 -3.21101e-05 0)
(0.000107649 -2.9146e-05 0)
(0.000124611 -2.55068e-05 0)
(0.000139222 -2.12843e-05 0)
(0.000151093 -1.65689e-05 0)
(0.000159905 -1.14788e-05 0)
(0.000165375 -6.14936e-06 0)
(0.000167321 -7.2747e-07 0)
(0.000165461 4.6249e-06 0)
(0.000159865 9.81348e-06 0)
(0.000150716 1.46617e-05 0)
(0.000138341 1.90932e-05 0)
(0.000123083 2.28914e-05 0)
(0.000105219 2.59982e-05 0)
(8.53073e-05 2.82901e-05 0)
(6.39434e-05 2.97086e-05 0)
(4.17609e-05 3.0191e-05 0)
(1.93726e-05 2.97296e-05 0)
(-2.46536e-06 2.83498e-05 0)
(-2.30326e-05 2.6092e-05 0)
(-4.17268e-05 2.3034e-05 0)
(-5.79021e-05 1.92987e-05 0)
(-7.10418e-05 1.50188e-05 0)
(-8.07377e-05 1.03679e-05 0)
(-8.66566e-05 5.50607e-06 0)
(-8.87015e-05 6.33096e-07 0)
(-8.66441e-05 -4.00659e-06 0)
(-8.07589e-05 -8.30502e-06 0)
(-7.15046e-05 -1.20539e-05 0)
(-5.93166e-05 -1.51228e-05 0)
(-4.48135e-05 -1.73542e-05 0)
(-2.87025e-05 -1.86874e-05 0)
(-1.17596e-05 -1.90543e-05 0)
(5.233e-06 -1.84738e-05 0)
(2.13035e-05 -1.70074e-05 0)
(3.57129e-05 -1.47198e-05 0)
(4.77751e-05 -1.17801e-05 0)
(5.68895e-05 -8.32483e-06 0)
(6.26605e-05 -4.59171e-06 0)
(6.48731e-05 -7.58333e-07 0)
(6.3368e-05 2.86151e-06 0)
(5.83289e-05 6.16254e-06 0)
(5.0304e-05 8.91242e-06 0)
(3.98636e-05 1.09928e-05 0)
(2.77182e-05 1.22441e-05 0)
(1.46826e-05 1.26691e-05 0)
(1.61413e-06 1.22145e-05 0)
(-1.06064e-05 1.09797e-05 0)
(-2.11393e-05 9.06782e-06 0)
(-2.93581e-05 6.65028e-06 0)
(-3.48059e-05 3.93616e-06 0)
(-3.72692e-05 1.13367e-06 0)
(-3.65922e-05 -1.50359e-06 0)
(-3.30426e-05 -3.83716e-06 0)
(-2.71912e-05 -5.61751e-06 0)
(-1.96295e-05 -6.78216e-06 0)
(-1.11644e-05 -7.21072e-06 0)
(-2.59675e-06 -6.90322e-06 0)
(5.19769e-06 -5.925e-06 0)
(1.14163e-05 -4.38126e-06 0)
(1.55234e-05 -2.42441e-06 0)
(1.71174e-05 -2.62984e-07 0)
(1.59164e-05 1.91062e-06 0)
(1.19968e-05 3.89224e-06 0)
(5.74852e-06 5.54605e-06 0)
(-2.62865e-06 6.69298e-06 0)
(-1.21909e-05 7.27135e-06 0)
(-2.18412e-05 7.20105e-06 0)
(-3.10048e-05 6.53613e-06 0)
(-3.8937e-05 5.32139e-06 0)
(-4.4995e-05 3.68233e-06 0)
(-4.8634e-05 1.7801e-06 0)
(-4.95103e-05 -2.553e-07 0)
(-4.75224e-05 -2.23317e-06 0)
(-4.28214e-05 -4.03299e-06 0)
(-3.57636e-05 -5.508e-06 0)
(-2.6834e-05 -6.56283e-06 0)
(-1.66778e-05 -7.15017e-06 0)
(-5.96677e-06 -7.24418e-06 0)
(4.66811e-06 -6.84678e-06 0)
(1.4448e-05 -6.0624e-06 0)
(2.27855e-05 -4.94606e-06 0)
(2.92561e-05 -3.60074e-06 0)
(3.35632e-05 -2.1272e-06 0)
(3.55999e-05 -6.59492e-07 0)
(3.53503e-05 7.21367e-07 0)
(3.30188e-05 1.92874e-06 0)
(2.89139e-05 2.89079e-06 0)
(2.34265e-05 3.57301e-06 0)
(1.70269e-05 3.96299e-06 0)
(1.01836e-05 4.06191e-06 0)
(3.36749e-06 3.89847e-06 0)
(-3.02157e-06 3.51573e-06 0)
(-8.64405e-06 2.96866e-06 0)
(-1.32376e-05 2.32006e-06 0)
(-1.66608e-05 1.61999e-06 0)
(-1.88537e-05 9.36252e-07 0)
(-1.98493e-05 2.97638e-07 0)
(-1.97698e-05 -2.49324e-07 0)
(-1.87906e-05 -6.94534e-07 0)
(-1.70925e-05 -1.02306e-06 0)
(-1.48853e-05 -1.24325e-06 0)
(-1.23491e-05 -1.36164e-06 0)
(-9.65181e-06 -1.41921e-06 0)
(-6.89452e-06 -1.4246e-06 0)
(-4.1234e-06 -1.41454e-06 0)
(-1.37471e-06 -1.40004e-06 0)
(6.5059e-06 -0.000105649 0)
(1.97892e-05 -0.000104805 0)
(3.32218e-05 -0.000104749 0)
(4.67828e-05 -0.000104679 0)
(6.05069e-05 -0.000104595 0)
(7.44292e-05 -0.000104501 0)
(8.83877e-05 -0.000104388 0)
(0.000102516 -0.000104279 0)
(0.000116849 -0.000104162 0)
(0.000131273 -0.000104046 0)
(0.000145845 -0.000103909 0)
(0.000160727 -0.000103728 0)
(0.000175873 -0.000103508 0)
(0.000191282 -0.000103235 0)
(0.000206969 -0.000102927 0)
(0.000222799 -0.000102551 0)
(0.000238771 -0.00010211 0)
(0.000254845 -0.000101605 0)
(0.000271027 -0.000101027 0)
(0.000287227 -0.000100348 0)
(0.000303453 -9.95484e-05 0)
(0.000319629 -9.86129e-05 0)
(0.000335724 -9.75227e-05 0)
(0.000351703 -9.62292e-05 0)
(0.000367504 -9.47432e-05 0)
(0.000383105 -9.29942e-05 0)
(0.000398379 -9.09631e-05 0)
(0.000413284 -8.86305e-05 0)
(0.000427733 -8.59348e-05 0)
(0.000441584 -8.28564e-05 0)
(0.000454853 -7.93268e-05 0)
(0.000467501 -7.53522e-05 0)
(0.000479308 -7.08396e-05 0)
(0.000490515 -6.58175e-05 0)
(0.000501074 -6.02866e-05 0)
(0.000510846 -5.41841e-05 0)
(0.000519942 -4.75767e-05 0)
(0.000528079 -4.04262e-05 0)
(0.000535192 -3.2649e-05 0)
(0.000541245 -2.432e-05 0)
(0.000546067 -1.5439e-05 0)
(0.000549604 -5.99812e-06 0)
(0.000551864 3.95759e-06 0)
(0.000552554 1.43804e-05 0)
(0.000551362 2.52653e-05 0)
(0.000548211 3.65475e-05 0)
(0.000543106 4.81513e-05 0)
(0.000535979 6.003e-05 0)
(0.000526958 7.20762e-05 0)
(0.00051599 8.42019e-05 0)
(0.000502998 9.63012e-05 0)
(0.000488026 0.000108274 0)
(0.000471111 0.000119982 0)
(0.000452191 0.000131276 0)
(0.000431365 0.000142129 0)
(0.000408884 0.00015229 0)
(0.000384528 0.00016165 0)
(0.000358541 0.000170192 0)
(0.000331139 0.000177542 0)
(0.000302195 0.000183855 0)
(0.000272042 0.0001888 0)
(0.000240956 0.000192376 0)
(0.000209257 0.000194429 0)
(0.000176836 0.000194944 0)
(0.000144032 0.000193801 0)
(0.000111624 0.000190974 0)
(7.9364e-05 0.000186454 0)
(4.76854e-05 0.000180223 0)
(1.72262e-05 0.000172327 0)
(-1.19769e-05 0.000162743 0)
(-3.96652e-05 0.000151577 0)
(-6.54071e-05 0.000138897 0)
(-8.88888e-05 0.000124858 0)
(-0.000109755 0.000109583 0)
(-0.000127833 9.32123e-05 0)
(-0.000142808 7.5991e-05 0)
(-0.000154381 5.81595e-05 0)
(-0.000162706 3.98697e-05 0)
(-0.000167335 2.14702e-05 0)
(-0.00016808 3.1653e-06 0)
(-0.00016513 -1.46678e-05 0)
(-0.000158538 -3.18229e-05 0)
(-0.000148394 -4.80364e-05 0)
(-0.000134844 -6.30148e-05 0)
(-0.000118168 -7.6516e-05 0)
(-9.86685e-05 -8.82634e-05 0)
(-7.6623e-05 -9.79976e-05 0)
(-5.253e-05 -0.000105602 0)
(-2.69717e-05 -0.000110855 0)
(-3.1468e-07 -0.000113676 0)
(2.68224e-05 -0.00011395 0)
(5.38298e-05 -0.000111682 0)
(8.01401e-05 -0.000106903 0)
(0.00010513 -9.97024e-05 0)
(0.000128221 -9.02399e-05 0)
(0.000148825 -7.87129e-05 0)
(0.000166438 -6.53899e-05 0)
(0.00018061 -5.05978e-05 0)
(0.00019091 -3.46911e-05 0)
(0.000197001 -1.80632e-05 0)
(0.000198653 -1.13258e-06 0)
(0.000195763 1.55807e-05 0)
(0.000188389 3.1686e-05 0)
(0.000176785 4.6743e-05 0)
(0.000161198 6.03404e-05 0)
(0.000142043 7.20269e-05 0)
(0.000119876 8.14628e-05 0)
(9.52681e-05 8.83671e-05 0)
(6.89934e-05 9.25069e-05 0)
(4.18262e-05 9.37503e-05 0)
(1.4613e-05 9.20593e-05 0)
(-1.17703e-05 8.74989e-05 0)
(-3.6479e-05 8.02407e-05 0)
(-5.87178e-05 7.05164e-05 0)
(-7.7722e-05 5.87288e-05 0)
(-9.28726e-05 4.52575e-05 0)
(-0.000103724 3.06847e-05 0)
(-0.000109913 1.55361e-05 0)
(-0.00011117 4.27547e-07 0)
(-0.000107513 -1.39991e-05 0)
(-9.93339e-05 -2.72555e-05 0)
(-8.7064e-05 -3.88004e-05 0)
(-7.12776e-05 -4.8107e-05 0)
(-5.27684e-05 -5.4843e-05 0)
(-3.24595e-05 -5.87199e-05 0)
(-1.13059e-05 -5.96151e-05 0)
(9.62909e-06 -5.75388e-05 0)
(2.92822e-05 -5.26951e-05 0)
(4.67003e-05 -4.53403e-05 0)
(6.10651e-05 -3.59738e-05 0)
(7.16607e-05 -2.5081e-05 0)
(7.80321e-05 -1.33672e-05 0)
(7.98435e-05 -1.43257e-06 0)
(7.71101e-05 9.8702e-06 0)
(7.02076e-05 2.00822e-05 0)
(5.96796e-05 2.85565e-05 0)
(4.62599e-05 3.4817e-05 0)
(3.09032e-05 3.85633e-05 0)
(1.46355e-05 3.9614e-05 0)
(-1.50727e-06 3.79823e-05 0)
(-1.63608e-05 3.38836e-05 0)
(-2.89693e-05 2.7744e-05 0)
(-3.85347e-05 2.00488e-05 0)
(-4.45599e-05 1.14763e-05 0)
(-4.67793e-05 2.67309e-06 0)
(-4.51834e-05 -5.56039e-06 0)
(-4.00737e-05 -1.27138e-05 0)
(-3.21686e-05 -1.82143e-05 0)
(-2.22948e-05 -2.1654e-05 0)
(-1.13705e-05 -2.28343e-05 0)
(-5.05943e-07 -2.17316e-05 0)
(9.25789e-06 -1.85367e-05 0)
(1.69903e-05 -1.36208e-05 0)
(2.20079e-05 -7.47208e-06 0)
(2.38662e-05 -7.03388e-07 0)
(2.23126e-05 6.02907e-06 0)
(1.75295e-05 1.21634e-05 0)
(9.96358e-06 1.7192e-05 0)
(-6.02136e-08 2.06721e-05 0)
(-1.144e-05 2.23813e-05 0)
(-2.29052e-05 2.20808e-05 0)
(-3.37001e-05 1.99579e-05 0)
(-4.29847e-05 1.61841e-05 0)
(-4.9962e-05 1.11561e-05 0)
(-5.40945e-05 5.29609e-06 0)
(-5.50128e-05 -8.68272e-07 0)
(-5.26429e-05 -6.87747e-06 0)
(-4.72107e-05 -1.22694e-05 0)
(-3.91166e-05 -1.66729e-05 0)
(-2.89868e-05 -1.97936e-05 0)
(-1.75629e-05 -2.14777e-05 0)
(-5.58231e-06 -2.16757e-05 0)
(6.15928e-06 -2.04282e-05 0)
(1.68207e-05 -1.80009e-05 0)
(2.58244e-05 -1.45868e-05 0)
(3.26968e-05 -1.0519e-05 0)
(3.71128e-05 -6.12499e-06 0)
(3.89983e-05 -1.7231e-06 0)
(3.8403e-05 2.36913e-06 0)
(3.55485e-05 5.91411e-06 0)
(3.08095e-05 8.74236e-06 0)
(2.46487e-05 1.07157e-05 0)
(1.75782e-05 1.18072e-05 0)
(1.01125e-05 1.20422e-05 0)
(2.76714e-06 1.1501e-05 0)
(-4.03239e-06 1.03271e-05 0)
(-9.92923e-06 8.67471e-06 0)
(-1.46706e-05 6.72574e-06 0)
(-1.81144e-05 4.64814e-06 0)
(-2.02267e-05 2.61707e-06 0)
(-2.10661e-05 7.45301e-07 0)
(-2.07762e-05 -8.52966e-07 0)
(-1.95663e-05 -2.12668e-06 0)
(-1.76361e-05 -3.06654e-06 0)
(-1.52167e-05 -3.66569e-06 0)
(-1.25189e-05 -3.99935e-06 0)
(-9.71158e-06 -4.12739e-06 0)
(-6.88959e-06 -4.11752e-06 0)
(-4.1001e-06 -4.06362e-06 0)
(-1.36118e-06 -4.02104e-06 0)
(6.08144e-06 -0.000355995 0)
(1.8301e-05 -0.000359045 0)
(3.06546e-05 -0.000358763 0)
(4.30837e-05 -0.000358278 0)
(5.5573e-05 -0.000357604 0)
(6.827e-05 -0.000356723 0)
(8.10235e-05 -0.000355624 0)
(9.38759e-05 -0.000354282 0)
(0.000106961 -0.000352668 0)
(0.000120303 -0.000350794 0)
(0.000134171 -0.000348649 0)
(0.000148365 -0.000346231 0)
(0.000162779 -0.000343547 0)
(0.000177278 -0.000340558 0)
(0.000192015 -0.000337267 0)
(0.000207086 -0.000333736 0)
(0.000222177 -0.000329908 0)
(0.000237382 -0.000325788 0)
(0.000252862 -0.000321416 0)
(0.000268655 -0.000316753 0)
(0.000284647 -0.000311811 0)
(0.000300778 -0.000306545 0)
(0.000317232 -0.000300915 0)
(0.000333777 -0.00029483 0)
(0.000350464 -0.000288232 0)
(0.000367461 -0.000281077 0)
(0.00038443 -0.000273248 0)
(0.000401525 -0.000264709 0)
(0.000418666 -0.000255457 0)
(0.000435825 -0.000245464 0)
(0.000452744 -0.000234683 0)
(0.000469544 -0.000223221 0)
(0.000486043 -0.000210944 0)
(0.000501577 -0.000197831 0)
(0.000516625 -0.000183819 0)
(0.000530755 -0.000168751 0)
(0.000543738 -0.000152753 0)
(0.00055637 -0.000135752 0)
(0.000567991 -0.000117734 0)
(0.000578109 -9.88042e-05 0)
(0.000587059 -7.8958e-05 0)
(0.000594548 -5.82396e-05 0)
(0.000600281 -3.67169e-05 0)
(0.000604272 -1.44643e-05 0)
(0.000606302 8.43941e-06 0)
(0.000605962 3.18623e-05 0)
(0.000603331 5.56181e-05 0)
(0.000598223 7.95728e-05 0)
(0.00059046 0.000103575 0)
(0.000580068 0.00012746 0)
(0.000566975 0.000151053 0)
(0.000551127 0.000174174 0)
(0.000532261 0.000196617 0)
(0.000510929 0.000218188 0)
(0.000486949 0.000238702 0)
(0.000460083 0.000257819 0)
(0.000431159 0.000275451 0)
(0.00039937 0.000291293 0)
(0.000365609 0.000305175 0)
(0.0003301 0.000316755 0)
(0.000292393 0.000326026 0)
(0.000253387 0.000332738 0)
(0.000213514 0.000336721 0)
(0.000172935 0.000337721 0)
(0.000131658 0.000335872 0)
(9.06027e-05 0.000330925 0)
(5.00567e-05 0.000322891 0)
(1.03051e-05 0.000311779 0)
(-2.81849e-05 0.000297618 0)
(-6.49486e-05 0.000280458 0)
(-9.94878e-05 0.000260457 0)
(-0.000131455 0.000237809 0)
(-0.000160272 0.000212738 0)
(-0.000185807 0.000185508 0)
(-0.00020744 0.000156418 0)
(-0.000224805 0.000125837 0)
(-0.00023786 9.41531e-05 0)
(-0.00024624 6.17681e-05 0)
(-0.000249975 2.92073e-05 0)
(-0.000248542 -3.07703e-06 0)
(-0.00024208 -3.45928e-05 0)
(-0.000230975 -6.48386e-05 0)
(-0.00021522 -9.33192e-05 0)
(-0.000195037 -0.00011952 0)
(-0.000170809 -0.000142979 0)
(-0.000142865 -0.000163272 0)
(-0.000111798 -0.000179992 0)
(-7.82127e-05 -0.00019281 0)
(-4.26773e-05 -0.00020143 0)
(-5.92763e-06 -0.000205644 0)
(3.12287e-05 -0.000205361 0)
(6.79779e-05 -0.000200539 0)
(0.000103561 -0.000191269 0)
(0.000137129 -0.000177704 0)
(0.000167919 -0.000160154 0)
(0.000195173 -0.000138992 0)
(0.000218164 -0.000114695 0)
(0.000236324 -8.78251e-05 0)
(0.000249203 -5.90748e-05 0)
(0.000256429 -2.91736e-05 0)
(0.000257568 1.0845e-06 0)
(0.000252497 3.09274e-05 0)
(0.000241575 5.95909e-05 0)
(0.000225006 8.62528e-05 0)
(0.000203158 0.000110148 0)
(0.00017663 0.00013056 0)
(0.000146194 0.000146862 0)
(0.000112714 0.000158557 0)
(7.71942e-05 0.000165284 0)
(4.07619e-05 0.000166809 0)
(4.5155e-06 0.000163097 0)
(-3.03061e-05 0.000154293 0)
(-6.26185e-05 0.000140687 0)
(-9.13264e-05 0.00012278 0)
(-0.000115492 0.000101246 0)
(-0.000134259 7.68879e-05 0)
(-0.000146981 5.06062e-05 0)
(-0.000153344 2.34348e-05 0)
(-0.000153063 -3.47856e-06 0)
(-0.000146284 -2.91789e-05 0)
(-0.000133593 -5.25667e-05 0)
(-0.000115439 -7.27102e-05 0)
(-9.27548e-05 -8.88136e-05 0)
(-6.67072e-05 -0.000100157 0)
(-3.84785e-05 -0.000106381 0)
(-9.46341e-06 -0.000107229 0)
(1.88993e-05 -0.000102783 0)
(4.51805e-05 -9.34002e-05 0)
(6.81003e-05 -7.96551e-05 0)
(8.65877e-05 -6.23724e-05 0)
(9.97256e-05 -4.25548e-05 0)
(0.000106974 -2.13528e-05 0)
(0.000107927 -1.23943e-08 0)
(0.000102781 2.03024e-05 0)
(9.21822e-05 3.83379e-05 0)
(7.67127e-05 5.31667e-05 0)
(5.76142e-05 6.38869e-05 0)
(3.61607e-05 7.00107e-05 0)
(1.37371e-05 7.12478e-05 0)
(-8.12142e-06 6.76817e-05 0)
(-2.78495e-05 5.97831e-05 0)
(-4.41977e-05 4.82714e-05 0)
(-5.61752e-05 3.41248e-05 0)
(-6.31348e-05 1.84733e-05 0)
(-6.47403e-05 2.62036e-06 0)
(-6.11327e-05 -1.21567e-05 0)
(-5.3004e-05 -2.47957e-05 0)
(-4.11478e-05 -3.43536e-05 0)
(-2.6783e-05 -4.01445e-05 0)
(-1.13203e-05 -4.18733e-05 0)
(3.83268e-06 -3.94698e-05 0)
(1.72282e-05 -3.34047e-05 0)
(2.76596e-05 -2.43236e-05 0)
(3.4281e-05 -1.31481e-05 0)
(3.6508e-05 -9.996e-07 0)
(3.41927e-05 1.09904e-05 0)
(2.76798e-05 2.18187e-05 0)
(1.7575e-05 3.05497e-05 0)
(4.51023e-06 3.64568e-05 0)
(-1.02575e-05 3.93043e-05 0)
(-2.50683e-05 3.85494e-05 0)
(-3.88012e-05 3.46063e-05 0)
(-5.04567e-05 2.78793e-05 0)
(-5.90885e-05 1.90328e-05 0)
(-6.40282e-05 8.85802e-06 0)
(-6.4923e-05 -1.7922e-06 0)
(-6.17968e-05 -1.2055e-05 0)
(-5.49526e-05 -2.11919e-05 0)
(-4.49807e-05 -2.85309e-05 0)
(-3.26603e-05 -3.36364e-05 0)
(-1.89458e-05 -3.6265e-05 0)
(-4.74342e-06 -3.63682e-05 0)
(8.94586e-06 -3.40912e-05 0)
(2.11786e-05 -2.97976e-05 0)
(3.1315e-05 -2.39229e-05 0)
(3.87994e-05 -1.69984e-05 0)
(4.33727e-05 -9.59453e-06 0)
(4.49664e-05 -2.24521e-06 0)
(4.36801e-05 4.52713e-06 0)
(3.98928e-05 1.03427e-05 0)
(3.40361e-05 1.49024e-05 0)
(2.66629e-05 1.80327e-05 0)
(1.8417e-05 1.96808e-05 0)
(9.87713e-06 1.99101e-05 0)
(1.63016e-06 1.8876e-05 0)
(-5.85787e-06 1.68115e-05 0)
(-1.22194e-05 1.39914e-05 0)
(-1.71913e-05 1.07138e-05 0)
(-2.06503e-05 7.26129e-06 0)
(-2.26011e-05 3.91702e-06 0)
(-2.31445e-05 8.84954e-07 0)
(-2.24671e-05 -1.69486e-06 0)
(-2.08468e-05 -3.70243e-06 0)
(-1.85071e-05 -5.14821e-06 0)
(-1.57335e-05 -6.04241e-06 0)
(-1.2765e-05 -6.49682e-06 0)
(-9.75892e-06 -6.61721e-06 0)
(-6.84023e-06 -6.53752e-06 0)
(-4.04029e-06 -6.39552e-06 0)
(-1.3379e-06 -6.30012e-06 0)
(7.54014e-06 -0.000321999 0)
(2.28668e-05 -0.000321059 0)
(3.84589e-05 -0.000320245 0)
(5.43457e-05 -0.000319071 0)
(7.05253e-05 -0.00031752 0)
(8.70384e-05 -0.000315709 0)
(0.000103751 -0.000313552 0)
(0.000120901 -0.00031113 0)
(0.000138312 -0.000308359 0)
(0.000155746 -0.000305471 0)
(0.000173387 -0.000302494 0)
(0.000191248 -0.000299718 0)
(0.000209513 -0.000297188 0)
(0.000228192 -0.000295062 0)
(0.000246669 -0.000293329 0)
(0.000265224 -0.000292019 0)
(0.000284161 -0.000291032 0)
(0.000302862 -0.00029038 0)
(0.000321621 -0.000289832 0)
(0.000340532 -0.000289301 0)
(0.000359624 -0.000288704 0)
(0.000379091 -0.000287982 0)
(0.000399173 -0.000287056 0)
(0.000419894 -0.000285714 0)
(0.000440915 -0.000283876 0)
(0.000462542 -0.000281506 0)
(0.000484549 -0.000278207 0)
(0.00050629 -0.000274101 0)
(0.000527638 -0.000268973 0)
(0.000548661 -0.000262977 0)
(0.000568677 -0.000255894 0)
(0.000588094 -0.000247623 0)
(0.000607332 -0.000237868 0)
(0.000626171 -0.000226659 0)
(0.000645235 -0.000213829 0)
(0.000663449 -0.000199221 0)
(0.000680474 -0.000182716 0)
(0.000696822 -0.00016425 0)
(0.000711544 -0.000143826 0)
(0.000724518 -0.000121395 0)
(0.00073592 -9.69827e-05 0)
(0.000745353 -7.0717e-05 0)
(0.000752671 -4.27216e-05 0)
(0.000757589 -1.31128e-05 0)
(0.000759586 1.78438e-05 0)
(0.000758117 5.013e-05 0)
(0.00075323 8.34308e-05 0)
(0.000745039 0.00011761 0)
(0.000733554 0.000152293 0)
(0.000718681 0.000187211 0)
(0.000700328 0.000222027 0)
(0.000678452 0.000256528 0)
(0.00065305 0.000289997 0)
(0.000624265 0.000322606 0)
(0.000591649 0.000353491 0)
(0.000555832 0.000382567 0)
(0.000516909 0.000409225 0)
(0.000474733 0.000433259 0)
(0.00042952 0.000454303 0)
(0.000381825 0.000471915 0)
(0.00033229 0.000485912 0)
(0.00028069 0.000495969 0)
(0.000227394 0.000501875 0)
(0.000173417 0.000503286 0)
(0.000119101 0.00050018 0)
(6.48196e-05 0.000492408 0)
(1.12826e-05 0.000479877 0)
(-4.10557e-05 0.000462606 0)
(-9.1454e-05 0.000440671 0)
(-0.000139409 0.000414212 0)
(-0.000184197 0.000383459 0)
(-0.000225259 0.000348632 0)
(-0.000262074 0.000310144 0)
(-0.000294098 0.000268361 0)
(-0.000320887 0.000223879 0)
(-0.000341942 0.000177134 0)
(-0.000356934 0.000128793 0)
(-0.000365652 7.95316e-05 0)
(-0.000367677 3.00741e-05 0)
(-0.000362953 -1.88689e-05 0)
(-0.000351599 -6.65631e-05 0)
(-0.000333825 -0.00011222 0)
(-0.000309769 -0.000155049 0)
(-0.000279753 -0.000194311 0)
(-0.000244402 -0.000229279 0)
(-0.000204259 -0.000259277 0)
(-0.000159978 -0.000283731 0)
(-0.000112413 -0.000302127 0)
(-6.25027e-05 -0.000314056 0)
(-1.12295e-05 -0.000319246 0)
(4.03188e-05 -0.000317514 0)
(9.10528e-05 -0.000308858 0)
(0.000139902 -0.000293424 0)
(0.000185705 -0.000271507 0)
(0.000227381 -0.000243512 0)
(0.000263979 -0.000210137 0)
(0.000294599 -0.000172109 0)
(0.000318356 -0.00013036 0)
(0.000334516 -8.58292e-05 0)
(0.00034265 -3.96762e-05 0)
(0.000342531 6.93465e-06 0)
(0.000334228 5.27153e-05 0)
(0.000317849 9.6483e-05 0)
(0.000293755 0.000136955 0)
(0.000262559 0.000172993 0)
(0.000225112 0.000203509 0)
(0.000182539 0.000227591 0)
(0.000136083 0.000244487 0)
(8.71499e-05 0.000253673 0)
(3.72609e-05 0.000254864 0)
(-1.19291e-05 0.000248015 0)
(-5.88674e-05 0.000233372 0)
(-0.000102012 0.000211426 0)
(-0.000139848 0.000183049 0)
(-0.000171083 0.000149193 0)
(-0.000194732 0.000111221 0)
(-0.000210021 7.05521e-05 0)
(-0.000216267 2.87665e-05 0)
(-0.000213472 -1.2523e-05 0)
(-0.000201885 -5.16418e-05 0)
(-0.000182102 -8.703e-05 0)
(-0.000155227 -0.000117181 0)
(-0.000122345 -0.000140901 0)
(-8.51386e-05 -0.000157258 0)
(-4.54297e-05 -0.000165562 0)
(-5.00274e-06 -0.000165658 0)
(3.39948e-05 -0.00015756 0)
(6.96705e-05 -0.000141993 0)
(0.000100319 -0.000119831 0)
(0.000124482 -9.23772e-05 0)
(0.000141008 -6.12434e-05 0)
(0.000149159 -2.82736e-05 0)
(0.000148704 4.62488e-06 0)
(0.000139802 3.57305e-05 0)
(0.000123348 6.3067e-05 0)
(0.000100547 8.52141e-05 0)
(7.29394e-05 0.000100877 0)
(4.24924e-05 0.000109324 0)
(1.11481e-05 0.000110172 0)
(-1.88893e-05 0.000103605 0)
(-4.55293e-05 9.04426e-05 0)
(-6.71239e-05 7.18485e-05 0)
(-8.23641e-05 4.93864e-05 0)
(-9.03951e-05 2.49033e-05 0)
(-9.08538e-05 3.63509e-07 0)
(-8.41933e-05 -2.23466e-05 0)
(-7.13236e-05 -4.15015e-05 0)
(-5.35585e-05 -5.56852e-05 0)
(-3.26866e-05 -6.39805e-05 0)
(-1.05229e-05 -6.58644e-05 0)
(1.07984e-05 -6.14566e-05 0)
(2.93033e-05 -5.15128e-05 0)
(4.35203e-05 -3.71247e-05 0)
(5.22291e-05 -1.97083e-05 0)
(5.48012e-05 -1.00152e-06 0)
(5.12349e-05 1.73375e-05 0)
(4.20526e-05 3.36658e-05 0)
(2.81251e-05 4.6623e-05 0)
(1.0694e-05 5.52047e-05 0)
(-8.8685e-06 5.90086e-05 0)
(-2.84864e-05 5.7497e-05 0)
(-4.62863e-05 5.12416e-05 0)
(-6.11688e-05 4.09425e-05 0)
(-7.19371e-05 2.7608e-05 0)
(-7.78898e-05 1.24761e-05 0)
(-7.86437e-05 -3.18273e-06 0)
(-7.43233e-05 -1.81342e-05 0)
(-6.54242e-05 -3.12551e-05 0)
(-5.27304e-05 -4.16573e-05 0)
(-3.73647e-05 -4.87044e-05 0)
(-2.05094e-05 -5.2133e-05 0)
(-3.31891e-06 -5.18871e-05 0)
(1.2984e-05 -4.82767e-05 0)
(2.72803e-05 -4.1802e-05 0)
(3.88519e-05 -3.31664e-05 0)
(4.71203e-05 -2.31404e-05 0)
(5.18018e-05 -1.25231e-05 0)
(5.29042e-05 -2.1362e-06 0)
(5.06604e-05 7.37709e-06 0)
(4.5543e-05 1.54284e-05 0)
(3.81396e-05 2.16299e-05 0)
(2.91578e-05 2.57871e-05 0)
(1.93402e-05 2.78434e-05 0)
(9.38901e-06 2.78959e-05 0)
(-3.30147e-08 2.62103e-05 0)
(-8.40619e-06 2.31157e-05 0)
(-1.5333e-05 1.90172e-05 0)
(-2.05703e-05 1.43385e-05 0)
(-2.40075e-05 9.47969e-06 0)
(-2.56954e-05 4.82784e-06 0)
(-2.58261e-05 6.59906e-07 0)
(-2.46246e-05 -2.82387e-06 0)
(-2.24332e-05 -5.49679e-06 0)
(-1.95587e-05 -7.3342e-06 0)
(-1.63149e-05 -8.44306e-06 0)
(-1.29855e-05 -8.90803e-06 0)
(-9.74853e-06 -8.9363e-06 0)
(-6.71963e-06 -8.71945e-06 0)
(-3.91858e-06 -8.44618e-06 0)
(-1.28867e-06 -8.26277e-06 0)
(8.87516e-06 -0.00058926 0)
(2.6517e-05 -0.000593488 0)
(4.40682e-05 -0.000594001 0)
(6.14893e-05 -0.000594641 0)
(7.83038e-05 -0.000594975 0)
(9.50815e-05 -0.000595358 0)
(0.000111901 -0.000594497 0)
(0.000128757 -0.000593602 0)
(0.000144915 -0.000590224 0)
(0.000159722 -0.000586088 0)
(0.000173161 -0.000579576 0)
(0.000184968 -0.000571796 0)
(0.000195843 -0.000562435 0)
(0.000206055 -0.00055232 0)
(0.000216434 -0.000541732 0)
(0.000227597 -0.000531223 0)
(0.000239371 -0.000521274 0)
(0.000252448 -0.000512284 0)
(0.000267497 -0.000504695 0)
(0.000283685 -0.000498437 0)
(0.000300798 -0.00049344 0)
(0.000318773 -0.000489737 0)
(0.000338495 -0.000486764 0)
(0.00035975 -0.000484467 0)
(0.000381655 -0.000481868 0)
(0.000405846 -0.000479031 0)
(0.000431238 -0.000474246 0)
(0.000456948 -0.000469268 0)
(0.000482762 -0.000461114 0)
(0.000508684 -0.000451568 0)
(0.000535532 -0.00043942 0)
(0.000563823 -0.000425034 0)
(0.000592759 -0.000408014 0)
(0.000621185 -0.000388371 0)
(0.000650356 -0.00036608 0)
(0.000679485 -0.000341146 0)
(0.000707854 -0.000313414 0)
(0.000735674 -0.000282965 0)
(0.000762208 -0.000249874 0)
(0.000786928 -0.000214131 0)
(0.000809448 -0.000175889 0)
(0.000829109 -0.000135339 0)
(0.000845717 -9.25274e-05 0)
(0.00085874 -4.7849e-05 0)
(0.000868355 -1.3457e-06 0)
(0.000874012 4.6868e-05 0)
(0.000875363 9.61899e-05 0)
(0.000872113 0.000146143 0)
(0.000863674 0.000196868 0)
(0.000850291 0.00024735 0)
(0.000832147 0.000297793 0)
(0.000807941 0.00034734 0)
(0.000778854 0.000395672 0)
(0.000745 0.000442091 0)
(0.000705311 0.000486285 0)
(0.00066067 0.000527606 0)
(0.000611469 0.000565606 0)
(0.00055787 0.000599728 0)
(0.000499972 0.000629442 0)
(0.000438703 0.000654443 0)
(0.000374207 0.000674025 0)
(0.000307189 0.000688 0)
(0.000238078 0.000695853 0)
(0.000167749 0.000697613 0)
(9.68851e-05 0.000692653 0)
(2.61391e-05 0.000681175 0)
(-4.36342e-05 0.000662844 0)
(-0.000111642 0.000637883 0)
(-0.000177067 0.000606261 0)
(-0.000239009 0.000568293 0)
(-0.000296738 0.00052423 0)
(-0.000349476 0.000474511 0)
(-0.000396291 0.000419656 0)
(-0.000436528 0.000360258 0)
(-0.000469553 0.000296951 0)
(-0.00049492 0.000230657 0)
(-0.000511956 0.000162181 0)
(-0.000520317 9.25056e-05 0)
(-0.000520057 2.27046e-05 0)
(-0.000510773 -4.6024e-05 0)
(-0.000492509 -0.000112859 0)
(-0.000465661 -0.000176695 0)
(-0.000430492 -0.000236364 0)
(-0.000387505 -0.000290837 0)
(-0.00033737 -0.000339085 0)
(-0.000280926 -0.000380253 0)
(-0.000219276 -0.00041336 0)
(-0.000153501 -0.000437771 0)
(-8.48308e-05 -0.000452936 0)
(-1.45973e-05 -0.000458509 0)
(5.57202e-05 -0.000454248 0)
(0.000124541 -0.000440165 0)
(0.000190431 -0.000416488 0)
(0.000251982 -0.000383752 0)
(0.000307599 -0.000342533 0)
(0.000355894 -0.000293725 0)
(0.000395748 -0.000238459 0)
(0.000426231 -0.000178106 0)
(0.000446517 -0.000114146 0)
(0.000455955 -4.81682e-05 0)
(0.000454041 1.81006e-05 0)
(0.000440785 8.30179e-05 0)
(0.000416711 0.00014479 0)
(0.000382284 0.000201618 0)
(0.000338442 0.000251892 0)
(0.000286395 0.000294088 0)
(0.000227696 0.000326966 0)
(0.000164077 0.00034947 0)
(9.75262e-05 0.000360915 0)
(3.01253e-05 0.000360914 0)
(-3.59952e-05 0.0003495 0)
(-9.86327e-05 0.000327015 0)
(-0.000155607 0.000294343 0)
(-0.000205071 0.000252619 0)
(-0.000245312 0.000203378 0)
(-0.000274797 0.000148471 0)
(-0.000292689 9.00474e-05 0)
(-0.000298501 3.04203e-05 0)
(-0.000291992 -2.81089e-05 0)
(-0.000273576 -8.32581e-05 0)
(-0.00024431 -0.000132752 0)
(-0.000205466 -0.000174505 0)
(-0.000159023 -0.000206859 0)
(-0.000107098 -0.000228489 0)
(-5.22161e-05 -0.000238555 0)
(3.08021e-06 -0.000236866 0)
(5.59644e-05 -0.000223603 0)
(0.000103725 -0.000199757 0)
(0.000144275 -0.000166659 0)
(0.000175555 -0.000126364 0)
(0.000196008 -8.11755e-05 0)
(0.000204816 -3.35857e-05 0)
(0.000201949 1.34219e-05 0)
(0.000187685 5.74033e-05 0)
(0.000163277 9.58006e-05 0)
(0.000130463 0.00012633 0)
(9.15534e-05 0.000147452 0)
(4.9186e-05 0.000157983 0)
(6.04616e-06 0.000157684 0)
(-3.47043e-05 0.000146773 0)
(-7.02453e-05 0.000126593 0)
(-9.84372e-05 9.88556e-05 0)
(-0.000117527 6.58186e-05 0)
(-0.000126508 3.03499e-05 0)
(-0.00012515 -4.89492e-06 0)
(-0.000114075 -3.71071e-05 0)
(-9.47126e-05 -6.39157e-05 0)
(-6.89885e-05 -8.33711e-05 0)
(-3.93108e-05 -9.41107e-05 0)
(-8.37782e-06 -9.57836e-05 0)
(2.08593e-05 -8.84721e-05 0)
(4.58413e-05 -7.33616e-05 0)
(6.46778e-05 -5.21328e-05 0)
(7.5872e-05 -2.69861e-05 0)
(7.86927e-05 -3.06456e-07 0)
(7.32401e-05 2.55712e-05 0)
(6.03118e-05 4.83203e-05 0)
(4.13212e-05 6.60506e-05 0)
(1.80429e-05 7.75287e-05 0)
(-7.72656e-06 8.20042e-05 0)
(-3.32737e-05 7.93554e-05 0)
(-5.61555e-05 7.01387e-05 0)
(-7.49798e-05 5.55268e-05 0)
(-8.83087e-05 3.69143e-05 0)
(-9.52932e-05 1.60452e-05 0)
(-9.56639e-05 -5.25851e-06 0)
(-8.96804e-05 -2.53806e-05 0)
(-7.80671e-05 -4.27797e-05 0)
(-6.19454e-05 -5.63497e-05 0)
(-4.27482e-05 -6.52982e-05 0)
(-2.20062e-05 -6.93008e-05 0)
(-1.17e-06 -6.84383e-05 0)
(1.8255e-05 -6.31204e-05 0)
(3.49904e-05 -5.41162e-05 0)
(4.81931e-05 -4.23502e-05 0)
(5.72693e-05 -2.89132e-05 0)
(6.19604e-05 -1.48843e-05 0)
(6.2382e-05 -1.29625e-06 0)
(5.88842e-05 1.09949e-05 0)
(5.20976e-05 2.12587e-05 0)
(4.28125e-05 2.90378e-05 0)
(3.18777e-05 3.40766e-05 0)
(2.01822e-05 3.6359e-05 0)
(8.56541e-06 3.60695e-05 0)
(-2.20986e-06 3.35556e-05 0)
(-1.15831e-05 2.928e-05 0)
(-1.91325e-05 2.37846e-05 0)
(-2.46225e-05 1.76145e-05 0)
(-2.79799e-05 1.13188e-05 0)
(-2.93234e-05 5.34438e-06 0)
(-2.89137e-05 5.99289e-08 0)
(-2.70595e-05 -4.26365e-06 0)
(-2.41762e-05 -7.51988e-06 0)
(-2.06609e-05 -9.67031e-06 0)
(-1.68747e-05 -1.08652e-05 0)
(-1.31241e-05 -1.12593e-05 0)
(-9.63323e-06 -1.11088e-05 0)
(-6.50425e-06 -1.06748e-05 0)
(-3.72876e-06 -1.02141e-05 0)
(-1.21339e-06 -9.91618e-06 0)
(6.58035e-06 -0.000508791 0)
(2.01528e-05 -0.000504034 0)
(3.44515e-05 -0.000496524 0)
(5.16844e-05 -0.000485451 0)
(6.9704e-05 -0.000470071 0)
(9.26109e-05 -0.000452019 0)
(0.000115817 -0.000428635 0)
(0.0001451 -0.000405802 0)
(0.00017717 -0.000376808 0)
(0.000208434 -0.000353203 0)
(0.00024235 -0.000332185 0)
(0.000272302 -0.00031746 0)
(0.000299933 -0.000307791 0)
(0.000322475 -0.000304243 0)
(0.000340935 -0.000306047 0)
(0.000354753 -0.000312669 0)
(0.000364923 -0.000323309 0)
(0.000371594 -0.00033699 0)
(0.000377615 -0.000352953 0)
(0.000383938 -0.000370037 0)
(0.000390782 -0.000388247 0)