/*--------------------------------*- C++ -*----------------------------------*\
  =========                 |
  \\      /  F ield         | OpenFOAM: The Open Source CFD Toolbox
   \\    /   O peration     | Website:  https://openfoam.org
    \\  /    A nd           | Version:  12
     \\/     M anipulation  |
\*---------------------------------------------------------------------------*/
FoamFile
{
    format      ascii;
    class       volVectorField;
    location    "8";
    object      zeta;
}
// * * * * * * * * * * * * * * * * * * * * * * * * * * * * * * * * * * * * * //

dimensions      [0 1 0 0 0 0 0];

internalField   uniform (0 0 0);

boundaryField
{
    freeSurface
    {
        type            calculated;
        value           nonuniform List<vector> 
181
(
(0 0.00485711 0)
(0 0.00485681 0)
(0 0.00485636 0)
(0 0.00485546 0)
(0 0.00485487 0)
(0 0.00485382 0)
(0 0.00485358 0)
(0 0.0048527 0)
(0 0.000683007 0)
(0 0.000687892 0)
(0 0.000700474 0)
(0 0.000716065 0)
(0 0.000736426 0)
(0 0.000760702 0)
(0 0.000787729 0)
(0 0.000817117 0)
(0 0.000847881 0)
(0 0.000879455 0)
(0 0.000910721 0)
(0 0.000940968 0)
(0 0.000969258 0)
(0 0.000994825 0)
(0 0.00101697 0)
(0 0.00103508 0)
(0 0.00104861 0)
(0 0.00105712 0)
(0 0.00106002 0)
(0 0.00105685 0)
(0 0.00104723 0)
(0 0.00103089 0)
(0 0.00100767 0)
(0 0.000977468 0)
(0 0.000940302 0)
(0 0.000896151 0)
(0 0.000845162 0)
(0 0.000787567 0)
(0 0.000723641 0)
(0 0.000653806 0)
(0 0.000578543 0)
(0 0.000498435 0)
(0 0.000414116 0)
(0 0.00032627 0)
(0 0.000235735 0)
(0 0.000143413 0)
(0 5.02605e-05 0)
(0 -4.27376e-05 0)
(0 -0.00013443 0)
(0 -0.000223761 0)
(0 -0.000309721 0)
(0 -0.000391014 0)
(0 -0.000466649 0)
(0 -0.000535494 0)
(0 -0.000596559 0)
(0 -0.000648863 0)
(0 -0.000691514 0)
(0 -0.000723796 0)
(0 -0.000745078 0)
(0 -0.000754879 0)
(0 -0.000752859 0)
(0 -0.000738874 0)
(0 -0.00071299 0)
(0 -0.000675451 0)
(0 -0.000626712 0)
(0 -0.000567505 0)
(0 -0.000498752 0)
(0 -0.000421538 0)
(0 -0.000337242 0)
(0 -0.000247335 0)
(0 -0.000153579 0)
(0 -5.78078e-05 0)
(0 3.80703e-05 0)
(0 0.000132102 0)
(0 0.000222178 0)
(0 0.000306279 0)
(0 0.000382501 0)
(0 0.000448978 0)
(0 0.000504042 0)
(0 0.000546257 0)
(0 0.000574475 0)
(0 0.000587919 0)
(0 0.00058605 0)
(0 0.000568793 0)
(0 0.000536579 0)
(0 0.000490127 0)
(0 0.000430744 0)
(0 0.000359991 0)
(0 0.000279974 0)
(0 0.00019304 0)
(0 0.000101834 0)
(0 9.26218e-06 0)
(0 -8.1715e-05 0)
(0 -0.000168109 0)
(0 -0.000246975 0)
(0 -0.000315596 0)
(0 -0.000371607 0)
(0 -0.000412938 0)
(0 -0.000438264 0)
(0 -0.00044659 0)
(0 -0.000437746 0)
(0 -0.000412242 0)
(0 -0.000371266 0)
(0 -0.000316696 0)
(0 -0.000251054 0)
(0 -0.000177385 0)
(0 -9.91076e-05 0)
(0 -2.00444e-05 0)
(0 5.60845e-05 0)
(0 0.000125529 0)
(0 0.000184926 0)
(0 0.000231396 0)
(0 0.000262724 0)
(0 0.000277524 0)
(0 0.000275306 0)
(0 0.00025665 0)
(0 0.000222949 0)
(0 0.000176619 0)
(0 0.00012075 0)
(0 5.91581e-05 0)
(0 -3.8979e-06 0)
(0 -6.41697e-05 0)
(0 -0.000117575 0)
(0 -0.000160413 0)
(0 -0.000189789 0)
(0 -0.000203974 0)
(0 -0.000202353 0)
(0 -0.000185714 0)
(0 -0.000156055 0)
(0 -0.000116443 0)
(0 -7.07199e-05 0)
(0 -2.30693e-05 0)
(0 2.2337e-05 0)
(0 6.18602e-05 0)
(0 9.24868e-05 0)
(0 0.000112245 0)
(0 0.000120247 0)
(0 0.000116753 0)
(0 0.000103041 0)
(0 8.11923e-05 0)
(0 5.38064e-05 0)
(0 2.37912e-05 0)
(0 -6.01129e-06 0)
(0 -3.31369e-05 0)
(0 -5.55394e-05 0)
(0 -7.17873e-05 0)
(0 -8.1146e-05 0)
(0 -8.35429e-05 0)
(0 -7.94939e-05 0)
(0 -7.00074e-05 0)
(0 -5.64238e-05 0)
(0 -4.02683e-05 0)
(0 -2.31099e-05 0)
(0 -6.42098e-06 0)
(0 8.51679e-06 0)
(0 2.06966e-05 0)
(0 2.94317e-05 0)
(0 3.43581e-05 0)
(0 3.54341e-05 0)
(0 3.29151e-05 0)
(0 2.7284e-05 0)
(0 1.91992e-05 0)
(0 9.42407e-06 0)
(0 -1.23396e-06 0)
(0 -1.19842e-05 0)
(0 -2.2096e-05 0)
(0 -3.09431e-05 0)
(0 -3.80329e-05 0)
(0 -4.30192e-05 0)
(0 -4.57163e-05 0)
(0 -4.60875e-05 0)
(0 -4.42228e-05 0)
(0 -4.03371e-05 0)
(0 -3.47566e-05 0)
(0 -2.78693e-05 0)
(0 -2.01098e-05 0)
(0 -1.19377e-05 0)
(0 -3.81713e-06 0)
(0 3.80525e-06 0)
(0 1.05111e-05 0)
(0 1.59316e-05 0)
(0 1.9756e-05 0)
(0 2.17473e-05 0)
)
;
    }
    walls
    {
        type            calculated;
        value           uniform (0 0 0);
    }
    floatingObject
    {
        type            calculated;
        value           uniform (0 0 0);
    }
    frontAndBack
    {
        type            empty;
    }
}


// ************************************************************************* //
