/*--------------------------------*- C++ -*----------------------------------*\
  =========                 |
  \\      /  F ield         | OpenFOAM: The Open Source CFD Toolbox
   \\    /   O peration     | Website:  https://openfoam.org
    \\  /    A nd           | Version:  12
     \\/     M anipulation  |
\*---------------------------------------------------------------------------*/
FoamFile
{
    format      ascii;
    class       surfaceScalarField;
    location    "8.06";
    object      phi;
}
// * * * * * * * * * * * * * * * * * * * * * * * * * * * * * * * * * * * * * //

dimensions      [1 0 -1 0 0 0 0];

internalField   nonuniform List<scalar> 
7429
(
7.92938e-05
-7.92939e-05
0.00015986
-8.05667e-05
0.000240882
-8.10218e-05
0.00032213
-8.12478e-05
0.00040342
-8.12904e-05
0.000484649
-8.12297e-05
0.000565866
-8.12169e-05
0.000647372
-8.15067e-05
0.000728709
-8.13363e-05
0.000809325
-8.06171e-05
0.000888806
-7.94806e-05
0.000966852
-7.80463e-05
0.00104326
-7.64078e-05
0.00111789
-7.46277e-05
0.00119071
-7.28185e-05
0.00126176
-7.10545e-05
0.00133119
-6.94277e-05
0.00139924
-6.80538e-05
0.00146625
-6.70076e-05
0.0015326
-6.63512e-05
0.00159874
-6.61401e-05
0.00166516
-6.6422e-05
0.0017324
-6.72353e-05
0.00180095
-6.85524e-05
0.00187136
-7.04085e-05
0.00194406
-7.27063e-05
0.00201948
-7.54181e-05
0.00209795
-7.84705e-05
0.0021797
-8.17472e-05
0.00226483
-8.51328e-05
0.00235331
-8.84765e-05
0.00244497
-9.16648e-05
0.00253948
-9.4509e-05
0.00263636
-9.68749e-05
0.00273481
-9.84553e-05
0.00283357
-9.87623e-05
0.0029326
-9.90229e-05
0.00303179
-9.91957e-05
0.00313039
-9.86013e-05
0.00322755
-9.716e-05
0.0033222
-9.46405e-05
0.00341311
-9.09103e-05
0.00349898
-8.58713e-05
0.00357837
-7.93889e-05
0.00364991
-7.15411e-05
0.00371178
-6.18737e-05
0.0037631
-5.1322e-05
0.00380213
-3.90316e-05
0.00382746
-2.53249e-05
0.00383769
-1.02348e-05
0.00382741
1.02825e-05
0.00379748
2.99363e-05
0.00374727
5.02081e-05
0.00367622
7.10515e-05
0.00358388
9.23328e-05
0.00347017
0.000113713
0.0033353
0.000134873
0.00317942
0.000155877
0.00300338
0.000176038
0.0028076
0.000195785
0.00259321
0.000214388
0.00236118
0.000232036
0.00211297
0.000248204
0.00185031
0.000262664
0.00157528
0.000275029
0.00129027
0.000285005
0.000997854
0.00029242
0.000701047
0.000296807
0.000402978
0.000298069
0.000107102
0.000295876
-0.000183203
0.000290306
-0.000464176
0.000280973
-0.00073218
0.000268004
-0.000983615
0.000251435
-0.00121486
0.000231243
-0.00142226
0.000207403
-0.00160286
0.000180597
-0.0017535
0.00015064
-0.00187169
0.000118191
-0.0019554
8.37118e-05
-0.0020031
4.77014e-05
-0.00201417
1.10719e-05
-0.00198209
-3.208e-05
-0.00191028
-7.18159e-05
-0.00180062
-0.000109654
-0.0016552
-0.000145422
-0.00147659
-0.000178609
-0.00126757
-0.000209019
-0.00103175
-0.000235825
-0.000773404
-0.000258342
-0.00049754
-0.000275864
-0.000209758
-0.000287783
8.38903e-05
-0.000293648
0.000377161
-0.000293271
0.000663387
-0.000286226
0.000935983
-0.000272596
0.0011885
-0.000252518
0.00141461
-0.000226112
0.00160887
-0.00019426
0.00176614
-0.00015727
0.00188223
-0.000116092
0.00195412
-7.18829e-05
0.00197993
-2.58161e-05
0.00195396
2.597e-05
0.0018798
7.4165e-05
0.00176079
0.000119006
0.0016003
0.000160492
0.00140268
0.000197618
0.00117373
0.000228952
0.000920451
0.00025328
0.000650801
0.00026965
0.000373557
0.000277244
9.77072e-05
0.00027585
-0.000167298
0.000265006
-0.00041259
0.000245292
-0.000629702
0.000217111
-0.00081129
0.000181588
-0.000951136
0.000139846
-0.00104481
9.36772e-05
-0.00108992
4.51098e-05
-0.00108305
-6.87738e-06
-0.00102612
-5.69281e-05
-0.000924742
-0.000101375
-0.000784411
-0.000140331
-0.000612349
-0.000172063
-0.000417524
-0.000194825
-0.000209973
-0.000207551
-3.08532e-07
-0.000209664
0.000200342
-0.00020065
0.000381746
-0.000181405
0.000534374
-0.000152628
0.000650786
-0.000116412
0.000725301
-7.45149e-05
0.000755246
-2.99453e-05
0.000736924
1.83223e-05
0.000674878
6.20457e-05
0.000574993
9.98847e-05
0.000444408
0.000130585
0.000292302
0.000152106
0.000129469
0.000162833
-3.29614e-05
0.00016243
-0.000183731
0.000150769
-0.000312794
0.000129063
-0.000412009
9.9215e-05
-0.000475524
6.35145e-05
-0.000500971
2.54475e-05
-0.000486236
-1.47347e-05
-0.000436564
-4.96721e-05
-0.000358463
-7.81017e-05
-0.00026034
-9.81221e-05
-0.000152281
-0.00010806
-4.49803e-05
-0.0001073
5.09212e-05
-9.59016e-05
0.000126061
-7.51395e-05
0.000173405
-4.73444e-05
0.000188466
-1.50612e-05
0.000167517
2.09491e-05
0.000114081
5.34362e-05
3.32292e-05
8.08518e-05
-6.83264e-05
0.000101556
-0.000181623
0.000113296
-0.00029648
0.000114857
-0.000402466
0.000105986
-0.000490208
8.7742e-05
-0.000551804
6.15966e-05
-0.00058173
2.99261e-05
-0.000575994
-5.7361e-06
-0.000534633
-4.13611e-05
-0.000460891
-7.37421e-05
-0.000359645
-0.000101247
-0.000237828
-0.000121817
-0.000103891
-0.000133937
3.324e-05
-0.000137131
0.000164408
-0.000131168
0.00028135
-0.000116942
0.000377126
-9.5776e-05
0.000446535
-6.94087e-05
0.000486439
-3.99041e-05
0.000495849
-9.40986e-06
0.00047552
2.03284e-05
0.000428618
4.69025e-05
0.000359573
6.90451e-05
0.00027385
8.57225e-05
0.000177613
9.62374e-05
7.71962e-05
0.000100417
-2.13989e-05
9.85951e-05
-0.000112745
9.13459e-05
-0.000192472
7.97268e-05
-0.000257153
6.46812e-05
-0.000304782
4.76292e-05
-0.000334351
2.95685e-05
-0.000346013
1.16625e-05
-0.000340793
-5.21998e-06
-0.000320321
-2.04722e-05
-0.000286707
-3.36136e-05
-0.000242295
-4.44119e-05
-0.000189319
-5.29758e-05
-0.000130005
-5.93148e-05
-6.62787e-05
-6.3726e-05
-6.62787e-05
0.000102377
-0.000181671
0.000206582
-0.000184772
0.000310795
-0.000185235
0.000414344
-0.000184797
0.000516525
-0.000183472
0.000616571
-0.000181275
0.000713599
-0.000178246
0.000806561
-0.000174468
0.000895282
-0.000170057
0.000979897
-0.000165233
0.00106068
-0.000160267
0.00113842
-0.00015578
0.0012142
-0.000152196
0.00128684
-0.00014726
0.0013555
-0.000141484
0.00142
-0.000135549
0.00148043
-0.000129866
0.00153718
-0.000124803
0.00159084
-0.000120665
0.00164214
-0.000117652
0.00169197
-0.000115968
0.00174128
-0.000115736
0.00179109
-0.000117047
0.00184239
-0.00011985
0.00189613
-0.000124147
0.00195318
-0.000129761
0.00201422
-0.000136455
0.00207967
-0.000143916
0.00214967
-0.000151752
0.0022239
-0.000159363
0.0023014
-0.000165975
0.00238237
-0.000172633
0.00246811
-0.000180256
0.00255917
-0.000187933
0.00265581
-0.000195095
0.00275812
-0.000201069
0.00286478
-0.000205685
0.00297412
-0.000208536
0.00308471
-0.000209191
0.00319512
-0.000207571
0.00330381
-0.000203331
0.00340917
-0.00019627
0.00350955
-0.000186246
0.00360328
-0.000173117
0.00368864
-0.000156909
0.00376407
-0.000137294
0.00382698
-0.000114236
0.00387632
-8.83721e-05
0.00391048
-5.9488e-05
0.00392792
-2.7672e-05
0.00392373
1.44702e-05
0.00389674
5.6924e-05
0.00384717
9.97823e-05
0.00377482
0.000143404
0.00367945
0.000187697
0.00356111
0.000232056
0.00341989
0.00027609
0.00325597
0.000319805
0.00306986
0.000362142
0.00286226
0.000403389
0.002634
0.000442651
0.0023862
0.000479833
0.0021205
0.000513903
0.0018391
0.000544061
0.00154409
0.00057004
0.00123834
0.000590759
0.000924707
0.000606051
0.000606487
0.000615027
0.000287256
0.0006173
-2.91941e-05
0.000612326
-0.000339142
0.000600254
-0.000638497
0.000580327
-0.000923136
0.000552644
-0.00118931
0.000517608
-0.00143299
0.000474923
-0.00165045
0.000424862
-0.00183827
0.000368415
-0.00199317
0.000305539
-0.00211249
0.000237516
-0.00219383
0.000165048
-0.0022356
8.94774e-05
-0.00223684
1.2308e-05
-0.00219232
-7.66013e-05
-0.00210638
-0.000157751
-0.00198044
-0.000235595
-0.00181626
-0.000309606
-0.00161623
-0.000378635
-0.00138361
-0.000441641
-0.00112245
-0.000496988
-0.000837778
-0.000543011
-0.000535096
-0.000578545
-0.000220586
-0.000602293
9.90601e-05
-0.000613294
0.000417031
-0.000611242
0.000726046
-0.000595241
0.0010189
-0.000565449
0.0012888
-0.000522418
0.00152897
-0.000466287
0.00173307
-0.000398358
0.001896
-0.000320194
0.00201357
-0.000233668
0.0020823
-0.000140608
0.00209941
-4.2933e-05
0.00206261
6.27778e-05
0.00197496
0.000161812
0.00183885
0.000255113
0.00165801
0.000341331
0.00143767
0.000417963
0.00118452
0.000482105
0.000906406
0.00053139
0.000612183
0.000563873
0.000311549
0.000577877
1.44029e-05
0.000572996
-0.000269084
0.000548492
-0.000529218
0.000505426
-0.000757127
0.00044502
-0.000944861
0.000369322
-0.00108591
0.000280895
-0.00117579
0.000183556
-0.00121196
8.12817e-05
-0.00119114
-2.76993e-05
-0.00111823
-0.00012984
-0.000997453
-0.000222149
-0.000835048
-0.000302735
-0.000639576
-0.000367535
-0.000421047
-0.000413353
-0.000190674
-0.000437924
3.9341e-05
-0.000439679
0.000257462
-0.000418771
0.000452345
-0.000376287
0.00061396
-0.000314243
0.000734262
-0.000236714
0.000807714
-0.000147967
0.000831083
-5.33135e-05
0.000802471
4.69336e-05
0.000727106
0.000137411
0.000610938
0.000216053
0.000462327
0.000279196
0.000292072
0.000322361
0.000112074
0.000342831
-6.50643e-05
0.000339569
-0.00022728
0.000312985
-0.000363763
0.000265546
-0.000465748
0.0002012
-0.000527649
0.000125416
-0.000546705
4.45034e-05
-0.00052229
-3.91499e-05
-0.000460361
-0.000111601
-0.000368151
-0.000170312
-0.000255253
-0.00021102
-0.000132872
-0.000230441
-1.31909e-05
-0.000226981
9.22676e-05
-0.00020136
0.000173969
-0.000156841
0.000224436
-9.78113e-05
0.000238967
-2.95923e-05
0.000215455
4.44614e-05
0.000157425
0.000111466
7.0214e-05
0.000168063
-3.80997e-05
0.000209869
-0.000158713
0.00023391
-0.000279711
0.000235855
-0.000390496
0.000216771
-0.000481446
0.000178692
-0.000544784
0.000124934
-0.000574879
6.00216e-05
-0.000568507
-1.21087e-05
-0.000526407
-8.34609e-05
-0.000451699
-0.00014845
-0.000349862
-0.000203083
-0.000228257
-0.000243422
-9.54684e-05
-0.000266726
3.92562e-05
-0.000271855
0.000167022
-0.000258934
0.000279842
-0.000229762
0.000370988
-0.000186922
0.000435704
-0.000134125
0.000471236
-7.54358e-05
0.000477028
-1.52024e-05
0.000454426
4.29305e-05
0.000406561
9.47678e-05
0.000337984
0.000137622
0.000254285
0.000169421
0.000161486
0.000189037
6.56056e-05
0.000196297
-2.75531e-05
0.000191754
-0.000113036
0.000176829
-0.000186738
0.000153429
-0.000245815
0.000123758
-0.000288423
9.02369e-05
-0.000313947
5.5093e-05
-0.000322782
2.04971e-05
-0.000316138
-1.18637e-05
-0.000295657
-4.09532e-05
-0.0002636
-6.56708e-05
-0.000221926
-8.60858e-05
-0.000172817
-0.000102085
-0.000118394
-0.000113738
-6.02772e-05
-0.000121843
-0.000126556
0.000121557
-0.000303228
0.000243079
-0.000306295
0.000363094
-0.00030525
0.000480115
-0.000301819
0.000592649
-0.000296006
0.000699344
-0.00028797
0.000798966
-0.000277868
0.000890727
-0.00026623
0.000974636
-0.000253967
0.00105165
-0.000242245
0.00112081
-0.000229432
0.00117757
-0.000212535
0.00121905
-0.000193674
0.00124594
-0.000174157
0.00125936
-0.000154906
0.00126077
-0.000136956
0.00125187
-0.000120963
0.00123473
-0.000107668
0.00121163
-9.75627e-05
0.00118508
-9.1104e-05
0.0011578
-8.86832e-05
0.00113258
-9.05188e-05
0.0011122
-9.66691e-05
0.00109919
-0.00010684
0.00109586
-0.000120814
0.0011044
-0.000138299
0.00112634
-0.000158402
0.00116304
-0.000180609
0.00121539
-0.000204102
0.00128433
-0.000228305
0.00137076
-0.000252403
0.00147384
-0.000275717
0.0015902
-0.000296621
0.00171571
-0.000313438
0.00185143
-0.000330821
0.00199791
-0.000347544
0.00215406
-0.00036184
0.00231809
-0.000372563
0.00248806
-0.000379154
0.00266148
-0.000380993
0.00283593
-0.000377789
0.00300869
-0.000369029
0.00317705
-0.000354599
0.00333805
-0.000334124
0.0034879
-0.000306759
0.00362481
-0.000274206
0.00374694
-0.000236364
0.00385056
-0.000191988
0.00393324
-0.000142166
0.00399229
-8.6723e-05
0.00403193
-2.51735e-05
0.00404074
4.81156e-05
0.00402147
0.000119048
0.00397291
0.000191966
0.00389479
0.000265823
0.00378648
0.000340367
0.00364815
0.000414419
0.00347987
0.000488085
0.00328198
0.000560026
0.00305534
0.000630028
0.00280135
0.000696643
0.00252203
0.00075916
0.00221972
0.000816211
0.00189744
0.000866334
0.00155812
0.000909361
0.00120508
0.0009438
0.000842261
0.000968873
0.000473776
0.000983512
0.000104081
0.000986995
-0.000262133
0.00097854
-0.000620503
0.000958624
-0.000965879
0.000925703
-0.00129338
0.000880141
-0.00159822
0.00082245
-0.001876
0.000752708
-0.00212199
0.000670852
-0.00233193
0.000578353
-0.00250269
0.0004763
-0.00263037
0.000365195
-0.00271319
0.000247864
-0.00274925
0.000125539
-0.00273003
-6.91107e-06
-0.00266415
-0.000142479
-0.00254987
-0.000272028
-0.00238835
-0.000397121
-0.00218158
-0.000516371
-0.0019328
-0.000627418
-0.0016463
-0.000728143
-0.00132729
-0.000815993
-0.000981839
-0.000888464
-0.000616642
-0.000943743
-0.000239225
-0.00097971
0.000142293
-0.000994812
0.000519783
-0.000988732
0.000884527
-0.000959985
0.00122794
-0.000908859
0.00154168
-0.000836157
0.00181832
-0.000742933
0.00205101
-0.000631051
0.00223319
-0.000502369
0.00235958
-0.000360056
0.00242702
-0.000208051
0.00243426
-5.01741e-05
0.00237619
0.000120851
0.00225876
0.000279244
0.00208456
0.000429306
0.00185819
0.00056771
0.0015864
0.000689743
0.00127761
0.000790897
0.000941479
0.000867524
0.000588819
0.000916533
0.000231472
0.000935224
-0.000118819
0.000923287
-0.000449831
0.000879504
-0.000750215
0.000805811
-0.00100918
0.000703984
-0.00121774
0.00057788
-0.00136894
0.000432103
-0.00145758
0.000272191
-0.00148119
0.000104889
-0.00143765
-7.12332e-05
-0.00133333
-0.000234167
-0.00117271
-0.00038277
-0.000964198
-0.000511242
-0.000718389
-0.000613345
-0.00044804
-0.000683703
-0.000166818
-0.000719146
0.000110618
-0.000717115
0.000370138
-0.000678291
0.00059825
-0.000604399
0.000783678
-0.000499672
0.000916678
-0.000369714
0.000991694
-0.000222983
0.00100584
-6.74618e-05
0.000958204
9.45717e-05
0.000855394
0.000240221
0.00070476
0.000366687
0.00051737
0.000466587
0.00030669
0.00053304
8.74834e-05
0.000562038
-0.000124438
0.000551491
-0.000314915
0.000503462
-0.000471483
0.000422114
-0.000583892
0.000313608
-0.000645874
0.000187399
-0.000655178
5.38068e-05
-0.000613484
-8.08438e-05
-0.00052747
-0.000197616
-0.000406346
-0.000291435
-0.00026285
-0.000354516
-0.000110608
-0.000382683
3.56686e-05
-0.000373258
0.000162816
-0.000328508
0.000259354
-0.000253378
0.000316697
-0.000155154
0.000331206
-4.41021e-05
0.000300898
7.47699e-05
0.00023053
0.000181834
0.000126818
0.000271774
-1.38061e-07
0.000336825
-0.000139266
0.000373038
-0.000277237
0.000373825
-0.000402296
0.00034183
-0.000503708
0.000280104
-0.00057291
0.000194136
-0.000604855
9.19666e-05
-0.000596501
-2.04626e-05
-0.000549664
-0.000130298
-0.000467996
-0.000230117
-0.000358065
-0.000313014
-0.000228362
-0.000373125
-8.85744e-05
-0.000406514
5.17194e-05
-0.000412149
0.000182905
-0.00039012
0.000296824
-0.00034368
0.000386963
-0.000277061
0.000448819
-0.000195981
0.000480172
-0.000106789
0.000481065
-1.60954e-05
0.00045336
7.06359e-05
0.000400893
0.000147235
0.000328559
0.000209956
0.000242314
0.000255666
0.0001484
0.000282951
5.29483e-05
0.000291749
-3.84312e-05
0.000283133
-0.000120929
0.000259327
-0.00019083
0.00022333
-0.000245559
0.000178487
-0.000283781
0.000128459
-0.000305247
7.6559e-05
-0.000310614
2.58639e-05
-0.000301449
-2.10291e-05
-0.000279758
-6.26435e-05
-0.000247446
-9.79828e-05
-0.000207047
-0.000126485
-0.000160585
-0.000148547
-0.000109579
-0.000164743
-5.56637e-05
-0.000175758
-0.00018222
0.000221034
-0.000524263
0.000442931
-0.000528192
0.000662072
-0.000524392
0.000875556
-0.000515303
0.00108009
-0.000500536
0.00127258
-0.000480463
0.00144912
-0.000454412
0.00160672
-0.000423829
0.00174048
-0.000387723
0.00184669
-0.000348461
0.00192327
-0.00030601
0.00197334
-0.000262612
0.00199883
-0.000219164
0.0020021
-0.000177424
0.00198605
-0.000138857
0.00195224
-0.000103145
0.00190266
-7.13864e-05
0.00183998
-4.4981e-05
0.00176739
-2.49754e-05
0.00168808
-1.17984e-05
0.00160471
-5.31575e-06
0.0015195
-5.30833e-06
0.00143472
-1.18878e-05
0.0013538
-2.59225e-05
0.00128044
-4.74457e-05
0.00122034
-7.82048e-05
0.00118143
-0.00011949
0.00117204
-0.000171221
0.00119237
-0.000224427
0.0012391
-0.000275036
0.00130924
-0.000322543
0.0014056
-0.000372081
0.00152894
-0.000419959
0.00168014
-0.000464637
0.0018544
-0.000505081
0.00204706
-0.000540205
0.00225417
-0.000568954
0.00247227
-0.000590664
0.00269775
-0.000604635
0.00292703
-0.000610271
0.00315625
-0.000607012
0.00338211
-0.000594889
0.00360072
-0.000573199
0.00380828
-0.000541688
0.00400325
-0.00050173
0.00418075
-0.000451702
0.00433705
-0.000392666
0.00447002
-0.000324959
0.00457574
-0.000247888
0.00465226
-0.000163241
0.0046989
-7.18159e-05
0.00470946
3.75592e-05
0.00468282
0.000145691
0.00462049
0.000254291
0.0045223
0.000364013
0.00438815
0.000474521
0.00421758
0.00058499
0.00401061
0.000695055
0.00376824
0.000802396
0.00349111
0.000907159
0.00318141
0.00100634
0.00284142
0.00109915
0.00247413
0.0011835
0.00208267
0.00125779
0.00167116
0.00132088
0.00124404
0.00137092
0.000805955
0.00140696
0.000361922
0.00142755
-8.24813e-05
0.0014314
-0.000521653
0.00141771
-0.000949904
0.00138688
-0.00136122
0.00133702
-0.00174977
0.00126869
-0.00211
0.00118268
-0.00243609
0.00107879
-0.00272257
0.000957339
-0.00296481
0.000820585
-0.00315788
0.000669379
-0.00329788
0.000505193
-0.00338269
0.000332672
-0.00340923
0.000152084
-0.00337214
-4.40029e-05
-0.00327767
-0.000236957
-0.00312503
-0.000424662
-0.00291556
-0.000606589
-0.00265178
-0.000780153
-0.002338
-0.000941204
-0.0019798
-0.00108634
-0.00158369
-0.00121211
-0.00115732
-0.00131483
-0.000709097
-0.00139197
-0.000247941
-0.00144087
0.000215953
-0.00145871
0.000672251
-0.00144503
0.00111092
-0.00139866
0.00152188
-0.00131982
0.00189504
-0.00120932
0.00221993
-0.00106782
0.002489
-0.00090012
0.00269496
-0.00070833
0.00283198
-0.000497079
0.00289658
-0.000272643
0.00288675
-4.03479e-05
0.00280168
0.000205924
0.0026446
0.000436319
0.00241913
0.000654775
0.00213176
0.000855079
0.00179115
0.00103036
0.00140789
0.00117416
0.000994303
0.00128111
0.000563786
0.00134705
0.000130751
0.00136826
-0.000290268
0.00134431
-0.000684306
0.00127354
-0.00103784
0.00115934
-0.0013388
0.00100494
-0.00157585
0.000814929
-0.0017403
0.000596559
-0.00182685
0.000358739
-0.00183281
0.000110844
-0.0017601
-0.000143942
-0.00161319
-0.000381078
-0.00139928
-0.000596677
-0.00112901
-0.000781514
-0.000817065
-0.000925288
-0.000478174
-0.00102259
-0.000130296
-0.00106702
0.000209139
-0.00105655
0.000522561
-0.000991713
0.000794549
-0.000876387
0.00101055
-0.000715676
0.00116083
-0.000519991
0.00123694
-0.000299094
0.00123725
-6.7769e-05
0.00116389
0.000167935
0.0010236
0.000380504
0.000826659
0.000563631
0.000587606
0.00070564
0.000323351
0.000797295
5.2612e-05
0.000832777
-0.000205382
0.000809485
-0.000433556
0.000731635
-0.000615964
0.000604523
-0.000741995
0.000439639
-0.000804098
0.000249502
-0.000801008
5.07172e-05
-0.000735543
-0.000146309
-0.000616927
-0.000316231
-0.000457644
-0.000450718
-0.000273449
-0.000538711
-8.214e-05
-0.000573992
9.88568e-05
-0.000554255
0.00025316
-0.000482811
0.000367634
-0.000367852
0.000433804
-0.000221324
0.000445858
-5.61563e-05
0.000405565
0.000115063
0.000317732
0.000269667
0.00019127
0.000398237
3.86997e-05
0.000489396
-0.000124621
0.000536359
-0.000285086
0.00053429
-0.000428655
0.0004854
-0.000543334
0.000394782
-0.000620275
0.000271077
-0.000653446
0.000125138
-0.000641803
-3.2106e-05
-0.000587392
-0.000184709
-0.000495141
-0.000322369
-0.000373281
-0.000434874
-0.000231538
-0.000514868
-8.06315e-05
-0.00055742
6.83921e-05
-0.000561173
0.000205747
-0.000527474
0.000322852
-0.000460785
0.000413247
-0.000367456
0.000472761
-0.000255496
0.000499804
-0.000133832
0.000494701
-1.09929e-05
0.000460623
0.000104714
0.000401685
0.000206173
0.000323756
0.000287885
0.000233052
0.000346369
0.000136187
0.000379817
3.94137e-05
0.000388522
-5.1603e-05
0.00037415
-0.000132296
0.00034002
-0.000199188
0.000290222
-0.000250101
0.0002294
-0.000284124
0.000162483
-0.000301421
9.38559e-05
-0.00030318
2.76223e-05
-0.000291098
-3.31111e-05
-0.000267626
-8.61156e-05
-0.000234785
-0.000130823
-0.000194972
-0.000166298
-0.000150137
-0.000193382
-0.000101977
-0.000212904
-5.1604e-05
-0.000226131
-0.000233824
0.000391016
-0.000915279
0.000780269
-0.000917446
0.00116267
-0.00090679
0.00153415
-0.000886781
0.00189024
-0.000856628
0.00222389
-0.000814117
0.00252136
-0.000751879
0.00277211
-0.000674586
0.00296189
-0.000577498
0.00308592
-0.000472491
0.00313727
-0.000357358
0.00311234
-0.000237686
0.00300585
-0.000112672
0.00280036
2.80675e-05
0.002555
0.000106498
0.00227565
0.000176206
0.00196841
0.000235858
0.00163987
0.000283553
0.00129892
0.000315973
0.000953965
0.000333159
0.000615018
0.000333632
0.00029281
0.000316899
-1.70739e-06
0.00028263
-0.000260107
0.000232477
-0.000474572
0.000167018
-0.000648636
9.58588e-05
-0.000736156
-3.19694e-05
-0.000736334
-0.000171043
-0.000671282
-0.000289479
-0.000552231
-0.000394087
-0.000393414
-0.000481361
-0.000201818
-0.000563677
2.24503e-05
-0.000644228
0.000280174
-0.00072236
0.000568569
-0.000793476
0.000883592
-0.000855228
0.00122036
-0.000905724
0.00157352
-0.000943818
0.0019374
-0.000968522
0.00230628
-0.000979151
0.00267361
-0.000974341
0.00303404
-0.000955316
0.00338367
-0.00092283
0.00371462
-0.000872639
0.00402163
-0.000808736
0.00430138
-0.000731456
0.00455033
-0.000641619
0.00476604
-0.000540668
0.00494447
-0.000426315
0.00508021
-0.000298982
0.00517041
-0.000162019
0.00522251
-1.45369e-05
0.00522817
0.00014003
0.00518711
0.000295348
0.00509768
0.000453445
0.00495969
0.00061251
0.0047732
0.000771484
0.00453906
0.000929189
0.00425864
0.00108282
0.00393442
0.00123138
0.00356961
0.00137116
0.00316736
0.0015014
0.00273184
0.00161903
0.00226726
0.00172236
0.00177872
0.00180942
0.00127147
0.00187817
0.000751268
0.00192716
0.000224351
0.00195446
-0.000302226
0.00195797
-0.000821952
0.00193744
-0.00132804
0.00189296
-0.00181296
0.00182194
-0.00226894
0.00172468
-0.00268978
0.00160352
-0.00306814
0.00145715
-0.00339837
0.00128756
-0.00367446
0.00109668
-0.00389114
0.000886058
-0.00404466
0.000658711
-0.00412964
0.000417648
-0.00414411
0.000166556
-0.00408556
-0.000102551
-0.00395757
-0.000364944
-0.00375973
-0.000622502
-0.00349404
-0.00087228
-0.00316441
-0.00110979
-0.00277658
-0.00132903
-0.00233696
-0.00152596
-0.00185334
-0.00169573
-0.0013352
-0.00183297
-0.000793119
-0.00193405
-0.00023854
-0.00199544
0.000317374
-0.00201462
0.000862334
-0.00198999
0.00138263
-0.00191895
0.00186661
-0.0018038
0.00230305
-0.00164577
0.00268151
-0.00144628
0.00299175
-0.00121035
0.00322538
-0.000941969
0.00337461
-0.000646303
0.00343495
-0.000332982
0.00340015
-5.54955e-06
0.00328273
0.000323339
0.00307838
0.000640672
0.00279282
0.000940332
0.00243472
0.00121318
0.00201504
0.00145004
0.00154702
0.00164218
0.00104554
0.00178259
0.000526856
0.00186574
8.5887e-06
0.00188653
-0.000491219
0.00184411
-0.00095585
0.00173817
-0.00136787
0.00157136
-0.00171291
0.00134998
-0.00197926
0.00108127
-0.00215729
0.000774592
-0.00224042
0.000441867
-0.00222758
9.80027e-05
-0.00211852
-0.000252996
-0.0019213
-0.000578295
-0.00164533
-0.000872651
-0.00130519
-0.00112165
-0.000916549
-0.00131393
-0.000500848
-0.00143829
-7.74737e-05
-0.0014904
0.000331223
-0.00146525
0.000705009
-0.0013655
0.00102416
-0.00119554
0.00127271
-0.000964219
0.00143884
-0.000686121
0.00151538
-0.000375635
0.00149779
-5.01858e-05
0.00139325
0.000272483
0.00120878
0.000564971
0.00095783
0.000814581
0.000659244
0.00100423
0.000333682
0.00112286
4.60696e-06
0.00116185
-0.000305377
0.00111947
-0.000574252
0.00100051
-0.000785435
0.000815706
-0.000924662
0.000578866
-0.000984464
0.000309304
-0.000964438
3.06905e-05
-0.000871061
-0.000239686
-0.000714161
-0.000473131
-0.000511103
-0.000653776
-0.000281146
-0.000768669
-4.61239e-05
-0.000809014
0.000172053
-0.000772432
0.000355662
-0.00066642
0.00048927
-0.000501461
0.000561893
-0.000293947
0.000570886
-6.51487e-05
0.000517443
0.000168506
0.000408624
0.000378485
0.000256401
0.00055046
7.60567e-05
0.00066974
-0.000115091
0.000727506
-0.000300198
0.000719397
-0.00046346
0.000648662
-0.000591689
0.000523011
-0.0006753
0.000354689
-0.000709428
0.000159265
-0.000692905
-4.86292e-05
-0.000629068
-0.000248545
-0.000524642
-0.000426794
-0.000389086
-0.00057043
-0.000233938
-0.000670017
-7.10507e-05
-0.000720307
8.76855e-05
-0.000719909
0.000231602
-0.00067139
0.000352032
-0.000581216
0.000442536
-0.000457961
0.000499439
-0.000312398
0.000521506
-0.000155899
0.0005103
2.13237e-07
0.000469283
0.000145731
0.000403573
0.000271883
0.00031945
0.000372008
0.0002239
0.000441919
0.000123749
0.000479969
2.54727e-05
0.000486798
-6.54466e-05
0.000465069
-0.000144493
0.000419066
-0.000208509
0.000354238
-0.00025573
0.000276621
-0.000285649
0.000192402
-0.000298897
0.000107104
-0.000296976
2.57011e-05
-0.000282071
-4.80161e-05
-0.00025645
-0.000111736
-0.000222936
-0.000164337
-0.000183613
-0.000205622
-0.000140433
-0.000236562
-9.48494e-05
-0.000258487
-4.78859e-05
-0.000273095
-0.00028171
0.000571424
-0.0014867
0.0011389
-0.00148492
0.00169433
-0.00146222
0.00222669
-0.00141914
0.00272099
-0.00135093
0.00317346
-0.00126658
0.00356327
-0.00114169
0.00391252
-0.00102383
0.00417042
-0.000835406
0.00435683
-0.000658901
0.00445327
-0.000453793
0.00447495
-0.000259371
0.00443678
-7.45018e-05
0.00436377
0.000101076
0.00416695
0.000303325
0.00386516
0.000477989
0.00347607
0.00062495
0.0030204
0.000739223
0.00251633
0.000820049
0.00198658
0.000862905
0.00145156
0.000868652
0.000933952
0.000834505
0.0004547
0.000761882
3.83965e-05
0.00064878
-0.000304514
0.000509928
-0.000527246
0.00031859
-0.000688793
0.000129578
-0.000788259
-7.15777e-05
-0.000861241
-0.000216497
-0.00084612
-0.000409208
-0.000745901
-0.000581581
-0.000553601
-0.000755977
-0.000284916
-0.000912913
4.6258e-05
-0.00105353
0.000426694
-0.00117391
0.000843925
-0.00127246
0.00128668
-0.00134848
0.00174487
-0.00140201
0.00220916
-0.00143281
0.00267198
-0.00144197
0.00312666
-0.00142902
0.003566
-0.00139466
0.00398373
-0.00134056
0.00437693
-0.00126583
0.00473964
-0.00117145
0.00506761
-0.00105943
0.00535597
-0.000929975
0.00559992
-0.000784624
0.00579394
-0.000620333
0.00593997
-0.000445013
0.00604214
-0.000264187
0.00609022
-6.26209e-05
0.00607832
0.000151929
0.00601202
0.000361655
0.00589148
0.000573983
0.00571479
0.000789202
0.00548284
0.00100344
0.00519659
0.00121543
0.00485802
0.00142139
0.00446936
0.00162003
0.00403409
0.00180643
0.00355607
0.00197941
0.00303985
0.00213525
0.00249123
0.00227098
0.00191532
0.00238533
0.00131904
0.00247444
0.000708924
0.00253728
9.26055e-05
0.00257078
-0.000522142
0.00257272
-0.00112689
0.00254219
-0.00171374
0.00247981
-0.0022741
0.0023823
-0.00280005
0.00225063
-0.00328403
0.0020875
-0.00371693
0.00189005
-0.00409232
0.00166296
-0.0044027
0.00140706
-0.00464169
0.00112505
-0.00480425
0.000821274
-0.00488688
0.000500274
-0.00488849
0.000168171
-0.0048067
-0.000184347
-0.00464248
-0.000529158
-0.00439676
-0.000868225
-0.00407229
-0.00119675
-0.0036736
-0.00150848
-0.00320744
-0.00179519
-0.00268269
-0.00205071
-0.00210887
-0.00226955
-0.00149645
-0.00244539
-0.000857683
-0.00257281
-0.000206557
-0.00264657
0.000442773
-0.00266395
0.00107718
-0.0026244
0.0016818
-0.00252357
0.00224142
-0.00236343
0.00274186
-0.0021462
0.00317056
-0.00187498
0.0035169
-0.00155669
0.00377164
-0.00119671
0.00393002
-0.000804684
0.00398314
-0.000386103
0.00392917
4.8417e-05
0.00377339
0.000479128
0.003517
0.000897055
0.00316721
0.00129013
0.0027345
0.00164589
0.00223196
0.00195258
0.00167548
0.00219866
0.00108289
0.00237518
0.000473745
0.00247488
-0.000131037
0.00249131
-0.000711307
0.00242438
-0.00124625
0.00227312
-0.00171699
0.0020421
-0.00210627
0.00173927
-0.00240006
0.00137506
-0.00258841
0.000962944
-0.0026647
0.000518162
-0.00262605
5.93442e-05
-0.0024782
-0.000400844
-0.00222747
-0.000829023
-0.00188625
-0.00121387
-0.00147194
-0.00153596
-0.0010052
-0.00178067
-0.000508721
-0.00193477
-8.41696e-06
-0.0019907
0.000470787
-0.00194445
0.000904079
-0.00179879
0.00126971
-0.00156117
0.00155017
-0.00124468
0.00172954
-0.000865488
0.0018028
-0.0004489
0.00176455
-1.19302e-05
0.00162488
0.00041215
0.00139198
0.000797866
0.00108412
0.00112245
0.000722334
0.00136601
0.000333711
0.00151148
-5.53479e-05
0.00155091
-0.000417337
0.00148146
-0.00072804
0.00131121
-0.000965787
0.00105345
-0.00111617
0.000729254
-0.00117251
0.000365635
-0.00113212
-9.69964e-06
-0.00100711
-0.000364694
-0.000809968
-0.00067027
-0.000560423
-0.000903321
-0.000283262
-0.00104583
-4.11574e-06
-0.00108816
0.000252558
-0.00102911
0.00046417
-0.000878031
0.00061442
-0.000651711
0.000693378
-0.000372906
0.000695465
-6.72352e-05
0.000626977
0.000236994
0.000495457
0.000510004
0.000316182
0.000729735
0.000107202
0.00087872
-0.000111252
0.00094596
-0.000320229
0.000928374
-0.000501938
0.000830371
-0.000642327
0.000663399
-0.000731428
0.000443791
-0.000764273
0.00019211
-0.000741782
-7.11208e-05
-0.000667793
-0.000322534
-0.000550697
-0.00054389
-0.000401682
-0.000719445
-0.000233357
-0.000838342
-5.91261e-05
-0.000894538
0.000108075
-0.00088711
0.000257539
-0.000820854
0.000380297
-0.000703974
0.000470111
-0.000547774
0.000523739
-0.000366026
0.000540683
-0.000172843
0.000523155
1.77411e-05
0.000475335
0.000193552
0.000403177
0.000344041
0.000313492
0.000461693
0.000213707
0.000541704
0.000110874
0.000582802
1.14829e-05
0.000586188
-7.87673e-05
0.000555319
-0.000155823
0.000496122
-0.00021675
0.000415165
-0.000260255
0.000320126
-0.000286139
0.000218286
-0.000295476
0.000116441
-0.000290093
2.03186e-05
-0.000272531
-6.5578e-05
-0.000245346
-0.000138922
-0.000211244
-0.000198439
-0.000172446
-0.00024442
-0.000130949
-0.000278059
-8.79148e-05
-0.000301521
-4.41984e-05
-0.000316811
-0.000325908
0.00128504
-0.00277174
0.00256343
-0.00276332
0.00382022
-0.00271901
0.00503382
-0.00263274
0.00617625
-0.00249336
0.00722577
-0.00231611
0.00810293
-0.00201885
0.00881284
-0.00173374
0.00913869
-0.00116126
0.00915305
-0.00067326
0.00885196
-0.000152703
0.00829275
0.00029984
0.00753879
0.000679453
0.00662799
0.00101188
0.00563098
0.00130033
0.00457024
0.00153873
0.00346847
0.00172671
0.00234569
0.001862
0.00122255
0.00194319
0.000118089
0.00196736
-0.000948469
0.00193521
-0.00194682
0.00183286
-0.00285661