/*--------------------------------*- C++ -*----------------------------------*\
  =========                 |
  \\      /  F ield         | OpenFOAM: The Open Source CFD Toolbox
   \\    /   O peration     | Website:  https://openfoam.org
    \\  /    A nd           | Version:  12
     \\/     M anipulation  |
\*---------------------------------------------------------------------------*/
FoamFile
{
    format      ascii;
    class       surfaceScalarField;
    location    "5.02";
    object      phi;
}
// * * * * * * * * * * * * * * * * * * * * * * * * * * * * * * * * * * * * * //

dimensions      [1 0 -1 0 0 0 0];

internalField   nonuniform List<scalar> 
7429
(
6.54697e-05
-6.54699e-05
0.000131943
-6.64734e-05
0.000199153
-6.72104e-05
0.000267104
-6.7951e-05
0.000335806
-6.87018e-05
0.000405297
-6.94917e-05
0.000475645
-7.0348e-05
0.000546972
-7.13275e-05
0.000619458
-7.24856e-05
0.000693229
-7.37717e-05
0.000768089
-7.48598e-05
0.000843875
-7.57859e-05
0.000920481
-7.66063e-05
0.000997761
-7.72809e-05
0.00107567
-7.79047e-05
0.00115413
-7.84598e-05
0.0012331
-7.89703e-05
0.00131253
-7.9436e-05
0.00139238
-7.9847e-05
0.00147262
-8.02408e-05
0.0015532
-8.05764e-05
0.00163406
-8.08671e-05
0.00171517
-8.11035e-05
0.00179643
-8.12656e-05
0.00187778
-8.13525e-05
0.00195909
-8.13093e-05
0.00204023
-8.11393e-05
0.00212101
-8.07822e-05
0.00220123
-8.02145e-05
0.00228061
-7.93858e-05
0.00235888
-7.82667e-05
0.00243563
-7.67526e-05
0.00251045
-7.4816e-05
0.00258282
-7.23677e-05
0.00265222
-6.94026e-05
0.00271857
-6.63537e-05
0.00278165
-6.30783e-05
0.00284113
-5.94836e-05
0.00289657
-5.54382e-05
0.00294748
-5.09093e-05
0.0029933
-4.5814e-05
0.00303342
-4.01266e-05
0.00306729
-3.38709e-05
0.00309433
-2.70351e-05
0.00311379
-1.94577e-05
0.00312536
-1.15782e-05
0.00312762
-2.26039e-06
0.00311852
9.09985e-06
0.00309843
2.00967e-05
0.00306708
3.13476e-05
0.00302428
4.28024e-05
0.00296986
5.44217e-05
0.0029038
6.60527e-05
0.00282619
7.76158e-05
0.00273724
8.89522e-05
0.0026372
0.000100034
0.00252658
0.000110619
0.00240573
0.000120854
0.0022753
0.000130425
0.00213586
0.000139442
0.00198831
0.000147552
0.00183353
0.000154783
0.00167274
0.000160786
0.00150706
0.000165681
0.00133798
0.00016908
0.00116691
0.000171069
0.000995497
0.000171412
0.000825387
0.000170111
0.000658324
0.000167063
0.000496086
0.000162238
0.000340371
0.000155715
0.000192958
0.000147413
5.55674e-05
0.00013739
-7.0267e-05
0.000125834
-0.000183042
0.000112775
-0.000281434
9.83928e-05
-0.000364309
8.28747e-05
-0.000430669
6.63597e-05
-0.000479912
4.92431e-05
-0.000511568
3.16565e-05
-0.000525681
1.41123e-05
-0.000521224
-4.4569e-06
-0.000498622
-2.2602e-05
-0.000459493
-3.91289e-05
-0.000405168
-5.43252e-05
-0.000337032
-6.81353e-05
-0.000256916
-8.01165e-05
-0.000166724
-9.01916e-05
-6.87488e-05
-9.79753e-05
3.4527e-05
-0.000103276
0.00014043
-0.000105903
0.000246149
-0.000105719
0.000348851
-0.000102702
0.000445761
-9.69103e-05
0.000534124
-8.83632e-05
0.000611433
-7.73084e-05
0.000675395
-6.39627e-05
0.000724066
-4.8671e-05
0.000755873
-3.18065e-05
0.000769864
-1.39909e-05
0.000763553
6.31038e-06
0.000737526
2.60271e-05
0.000693079
4.44474e-05
0.000631444
6.16345e-05
0.000554138
7.73059e-05
0.000463233
9.09054e-05
0.000361269
0.000101964
0.000251247
0.000110022
0.000136542
0.000114705
2.07126e-05
0.000115829
-9.25095e-05
0.000113222
-0.000199437
0.000106927
-0.000296554
9.71176e-05
-0.000380583
8.40292e-05
-0.000448714
6.81311e-05
-0.000498669
4.99548e-05
-0.000528771
3.01021e-05
-0.00053815
9.37883e-06
-0.000524561
-1.35896e-05
-0.000489982
-3.45782e-05
-0.000435911
-5.40719e-05
-0.000364274
-7.16368e-05
-0.000277549
-8.67248e-05
-0.000178724
-9.88249e-05
-7.14196e-05
-0.000107305
4.0456e-05
-0.000111876
0.000153096
-0.00011264
0.000262528
-0.000109433
0.000364971
-0.000102443
0.000456975
-9.20041e-05
0.000535491
-7.8516e-05
0.000598055
-6.25632e-05
0.000642835
-4.47809e-05
0.00066881
-2.59747e-05
0.00067556
-6.74969e-06
0.00066243
1.31295e-05
0.000631222
3.1208e-05
0.000583417
4.78052e-05
0.000521033
6.2384e-05
0.000446591
7.44426e-05
0.000362896
8.36945e-05
0.000273017
8.98788e-05
0.000180073
9.29447e-05
8.71972e-05
9.28755e-05
-2.62502e-06
8.98223e-05
-8.66833e-05
8.40583e-05
-0.000162533
7.58493e-05
-0.000228127
6.55946e-05
-0.000281861
5.3734e-05
-0.000322637
4.07762e-05
-0.00034972
2.70822e-05
-0.000362996
1.32762e-05
-0.000362678
-3.17794e-07
-0.000349539
-1.31388e-05
-0.000324612
-2.4927e-05
-0.000289303
-3.53095e-05
-0.00024527
-4.40328e-05
-0.0001944
-5.08703e-05
-0.000138625
-5.57743e-05
-8.0002e-05
-5.86234e-05
-2.05631e-05
-5.94389e-05
3.7757e-05
-5.83201e-05
9.30997e-05
-5.53426e-05
0.000143822
-5.07226e-05
0.000188462
-4.46396e-05
0.000225823
-3.73612e-05
0.000254968
-2.91454e-05
0.000275213
-2.02442e-05
0.000286194
-1.09811e-05
0.000287801
-1.60697e-06
0.000280195
7.6056e-06
0.000263787
1.64077e-05
0.000239215
2.45726e-05
0.000207309
3.19057e-05
0.000169063
3.8246e-05
0.000125613
4.34504e-05
7.81835e-05
4.7429e-05
2.80629e-05
5.01206e-05
-2.34328e-05
5.14957e-05
-7.49957e-05
5.15629e-05
-0.000125347
5.03511e-05
-0.000173281
4.79347e-05
-0.000217655
4.4374e-05
-0.000257476
3.98209e-05
-0.000291835
3.43589e-05
-0.000319992
2.81563e-05
-0.000341347
2.13557e-05
-0.000355461
1.41136e-05
-0.000362043
6.58199e-06
-0.00036097
-1.07321e-06
-0.000352256
-8.71404e-06
-0.000336079
-1.61766e-05
-0.000312721
-2.33584e-05
-0.000282651
-3.00702e-05
-0.000246418
-3.62321e-05
-0.000204708
-4.17105e-05
-0.000158274
-4.64336e-05
-0.000108015
-5.02591e-05
-5.49011e-05
-5.31141e-05
-5.49011e-05
6.53341e-05
-0.000130804
0.000131634
-0.000132774
0.000198495
-0.000134072
0.000265843
-0.000135299
0.000333561
-0.00013642
0.000401531
-0.000137462
0.000469631
-0.000138448
0.000537733
-0.00013943
0.000605748
-0.000140502
0.000673747
-0.00014177
0.000742247
-0.00014336
0.0008119
-0.000145439
0.000882594
-0.000147301
0.000953959
-0.000148645
0.00102571
-0.000149658
0.00109769
-0.00015044
0.0011698
-0.000151083
0.00124206
-0.000151695
0.00131453
-0.000152314
0.00138725
-0.000152958
0.00146034
-0.000153667
0.0015339
-0.000154433
0.00160804
-0.000155244
0.00168281
-0.000156035
0.00175824
-0.000156783
0.00183427
-0.000157342
0.00191083
-0.000157697
0.00198767
-0.000157625
0.0020645
-0.000157039
0.00214089
-0.000155773
0.00221629
-0.000153671
0.00229028
-0.000150743
0.00236301
-0.000147544
0.00243481
-0.000144174
0.00250581
-0.000140403
0.00257536
-0.000135903
0.00264286
-0.000130569
0.00270758
-0.000124212
0.00276885
-0.000116704
0.00282594
-0.000108003
0.00287814
-9.80118e-05
0.00292468
-8.66682e-05
0.00296476
-7.39497e-05
0.00299768
-5.99509e-05
0.00302281
-4.45884e-05
0.00303933
-2.81035e-05
0.00304722
-1.01483e-05
0.00304164
1.46791e-05
0.00302398
3.77538e-05
0.00299419
6.11374e-05
0.00295211
8.48825e-05
0.00289767
0.000108865
0.00283087
0.00013285
0.00275178
0.000156708
0.00266053
0.000180207
0.00255737
0.00020319
0.00244272
0.000225271
0.00231694
0.000246639
0.00218069
0.000266668
0.00203459
0.000285543
0.00187964
0.0003025
0.001717
0.000317428
0.00154782
0.000329966
0.00137366
0.000339843
0.00119597
0.000346768
0.00101648
0.000350556
0.000836845
0.000351049
0.000659005
0.000347951
0.000484855
0.000341212
0.000316356
0.000330737
0.00015534
0.000316731
3.7431e-06
0.00029901
-0.00013646
0.000277593
-0.00026374
0.000253114
-0.00037646
0.000225495
-0.000473085
0.000195017
-0.000552491
0.000162281
-0.000613769
0.000127638
-0.000656095
9.15695e-05
-0.000679299
5.48602e-05
-0.000683427
1.82398e-05
-0.000666523
-2.13609e-05
-0.000631179
-5.79454e-05
-0.000578411
-9.18967e-05
-0.000509372
-0.000123364
-0.000425689
-0.000151819
-0.000329329
-0.000176476
-0.000222732
-0.000196788
-0.000108382
-0.000212325
1.08632e-05
-0.000222521
0.000132037
-0.000227077
0.000252055
-0.000225736
0.000367805
-0.000218452
0.000476238
-0.000205343
0.000574442
-0.000186568
0.000659668
-0.000162534
0.000729434
-0.000133728
0.000781759
-0.000100996
0.000814739
-6.47872e-05
0.00082769
-2.69417e-05
0.000818393
1.56076e-05
0.000788081
5.63388e-05
0.000737708
9.48206e-05
0.000668474
0.000130869
0.000582213
0.000163567
0.000481356
0.000191762
0.000368905
0.000214415
0.000248223
0.000230704
0.000123111
0.000239817
-2.4928e-06
0.000241433
-0.000124543
0.000235272
-0.000239026
0.00022141
-0.000342198
0.000200289
-0.000430576
0.000172407
-0.000501264
0.000138819
-0.000551754
0.000100445
-0.000580519
5.88669e-05
-0.000586652
1.55118e-05
-0.000569231
-3.10106e-05
-0.000529932
-7.38766e-05
-0.000470227
-0.000113777
-0.000392265
-0.000149599
-0.000299014
-0.000179976
-0.000194048
-0.000203791
-8.11165e-05
-0.000220236
3.57566e-05
-0.000228749
0.000152318
-0.000229201
0.000264447
-0.000221561
0.00036833
-0.000206326
0.000460546
-0.00018422
0.000538091
-0.000156062
0.000598721
-0.000123194
0.000640703
-8.67628e-05
0.000663058
-4.83294e-05
0.000665822
-9.51351e-06
0.000649245
2.97063e-05
0.000614677
6.57758e-05
0.00056388
9.86021e-05
0.000499122
0.000127142
0.00042307
0.000150494
0.000338676
0.000168089
0.000249023
0.000179531
0.000157242
0.000184726
6.63968e-05
0.00018372
-2.06302e-05
0.000176849
-0.000101276
0.000164704
-0.000173274
0.000147847
-0.000234747
0.000127068
-0.000284329
0.000103315
-0.000321007
7.74541e-05
-0.000344398
5.04735e-05
-0.000354404
2.32823e-05
-0.00035151
-3.21153e-06
-0.000336443
-2.82056e-05
-0.000310378
-5.09924e-05
-0.000274756
-7.09317e-05
-0.000231209
-8.75794e-05
-0.000181502
-0.000100577
-0.000127629
-0.000109647
-7.14614e-05
-0.000114791
-1.49331e-05
-0.000115967
4.01442e-05
-0.000113397
9.20887e-05
-0.000107287
0.000139368
-9.80021e-05
0.000180702
-8.5973e-05
0.00021501
-7.16698e-05
0.000241468
-5.56033e-05
0.000259545
-3.8321e-05
0.000268929
-2.03653e-05
0.000269594
-2.27182e-06
0.000261736
1.54639e-05
0.000245798
3.23457e-05
0.000222395
4.79758e-05
0.000192335
6.19651e-05
0.000156564
7.40168e-05
0.000116139
8.38762e-05
7.22141e-05
9.13535e-05
2.59732e-05
9.63615e-05
-2.1384e-05
9.88529e-05
-6.86568e-05
9.88357e-05
-0.000114684
9.63782e-05
-0.00015839
9.1641e-05
-0.000198734
8.47177e-05
-0.000234841
7.5928e-05
-0.000265899
6.54168e-05
-0.000291271
5.35286e-05
-0.00031041
4.04948e-05
-0.000322944
2.66478e-05
-0.000328637
1.22746e-05
-0.00032738
-2.32985e-06
-0.000319252
-1.68428e-05
-0.000304357
-3.10714e-05
-0.000283046
-4.46694e-05
-0.000255688
-5.74281e-05
-0.000222809
-6.91107e-05
-0.000185033
-7.9487e-05
-0.000143009
-8.84579e-05
-9.75792e-05
-9.56885e-05
-4.95856e-05
-0.000101108
-0.000104487
6.44374e-05
-0.000195242
0.000129307
-0.000197643
0.000194354
-0.00019912
0.000259248
-0.000200193
0.000323722
-0.000200895
0.000387527
-0.000201267
0.00045044
-0.00020136
0.000512301
-0.000201291
0.000572976
-0.000201177
0.000632554
-0.000201349
0.000691216
-0.000202022
0.000749599
-0.000203822
0.000808022
-0.000205725
0.000866098
-0.000206722
0.000923617
-0.000207176
0.000980592
-0.000207416
0.00103724
-0.000207727
0.00109383
-0.000208292
0.00115071
-0.000209189
0.0012082
-0.000210456
0.00126666
-0.000212125
0.00132646
-0.000214232
0.001388
-0.000216788
0.00145158
-0.000219612
0.00151754
-0.000222742
0.00158607
-0.000225872
0.00165728
-0.00022891
0.00173136
-0.000231699
0.00180824
-0.000233927
0.00188799
-0.000235514
0.0019701
-0.000235789
0.00205421
-0.000234854
0.00213932
-0.000232649
0.00222529
-0.000230144
0.00231191
-0.000227024
0.00239865
-0.000222641
0.00248479
-0.000216708
0.00256939
-0.000208813
0.00265147
-0.000198781
0.00272995
-0.000186489
0.00280368
-0.000171737
0.00287155
-0.00015454
0.00293205
-0.000134448
0.00298452
-0.000112429
0.00302662
-8.66822e-05
0.00305844
-5.99302e-05
0.00307846
-3.01615e-05
0.00308605
7.08931e-06
0.00307918
4.46235e-05
0.00305772
8.25924e-05
0.0030214
0.000121201
0.00296998
0.000160288
0.00290337
0.000199461
0.00282135
0.00023873
0.00272417
0.00027739
0.00261203
0.000315322
0.00248529
0.000352017
0.00234461
0.00038732
0.00219073
0.000420547
0.00202477
0.0004515
0.00184805
0.000479225
0.00166201
0.000503463
0.00146825
0.000523724
0.0012688
0.000539294
0.00106535
0.000550218
0.000860208
0.0005557
0.00065534
0.000555917
0.000453113
0.000550179
0.000255873
0.000538452
6.6005e-05
0.000520605
-0.000114294
0.00049703
-0.000282503
0.000467219
-0.000436626
0.000431716
-0.000574512
0.000391
-0.00069437
0.000345353
-0.000794435
0.000295082
-0.000873415
0.000241261
-0.000930271
0.000184494
-0.000964262
0.00012556
-0.000975403
6.60015e-05
-0.000962541
5.37825e-06
-0.000926037
-5.78652e-05
-0.00086822
-0.000115762
-0.00078994
-0.000170177
-0.000692773
-0.000220532
-0.000578959
-0.000265632
-0.000450965
-0.00030447
-0.000311722
-0.000336032
-0.000164465
-0.000359583
-1.27134e-05
-0.000374272
0.000139983
-0.000379773
0.000289889
-0.000375642
0.00043316
-0.000361723
0.000566128
-0.000338311
0.000685349
-0.000305789
0.000787622
-0.000264807
0.00086991
-0.000216016
0.000930232
-0.000161318
0.000967043
-0.000101598
0.000978115
-3.80137e-05
0.000962756
3.09659e-05
0.000922469
9.66261e-05
0.000858041
0.000159248
0.000771047
0.000217863
0.000663998
0.000270616
0.000540124
0.000315637
0.000403189
0.00035135
0.000257461
0.000376432
0.000107535
0.000389743
-4.17416e-05
0.00039071
-0.000185514
0.000379045
-0.000318984
0.00035488
-0.000437877
0.000319183
-0.000538184
0.000272714
-0.000616666
0.0002173
-0.000670673
0.000154453
-0.000698616
8.68099e-05
-0.000700048
1.69436e-05
-0.00067452
-5.65385e-05
-0.000624046
-0.000124351
-0.000550513
-0.000187309
-0.000457008
-0.000243104
-0.000347193
-0.000289791
-0.000225218
-0.000325765
-9.58193e-05
-0.000349635
3.62585e-05
-0.000360827
0.000166269
-0.000359212
0.000289598
-0.00034489
0.000402137
-0.000318865
0.000500232
-0.000282315
0.000580874
-0.000236703
0.000641788
-0.000184108
0.000681639
-0.000126614
0.00069992
-6.66103e-05
0.000696408
-6.00153e-06
0.00067293
5.31838e-05
0.000630579
0.000108127
0.000571638
0.000157544
0.000498866
0.000199914
0.000415336
0.000234024
0.000324363
0.000259063
0.00022924
0.000274654
0.000133292
0.000280674
3.96781e-05
0.000277334
-4.87187e-05
0.000265246
-0.000129444
0.000245429
-0.00020027
0.000218673
-0.00025956
0.000186358
-0.000306125
0.00014988
-0.000339186
0.000110515
-0.000358565
6.98523e-05
-0.000364435
2.91524e-05
-0.000357485
-1.0161e-05
-0.000338671
-4.70201e-05
-0.000309297
-8.03665e-05
-0.00027092
-0.000109309
-0.000225246
-0.000133254
-0.000174168
-0.000151655
-0.000119596
-0.000164219
-6.34133e-05
-0.000170974
-7.52115e-06
-0.000171859
4.63929e-05
-0.000167311
9.67086e-05
-0.000157603
0.000142066
-0.00014336
0.000181262
-0.000125169
0.00021338
-0.000103788
0.000237721
-7.99439e-05
0.000253811
-5.44112e-05
0.00026153
-2.80836e-05
0.000260894
-1.63582e-06
0.000252196
2.41616e-05
0.000235907
4.86344e-05
0.000212674
7.12085e-05
0.000183308
9.13318e-05
0.000148746
0.000108579
0.000110033
0.000122589
6.82334e-05
0.000133153
2.44764e-05
0.000140118
-2.0053e-05
0.000143382
-6.4301e-05
0.000143084
-0.000107209
0.000139286
-0.000147758
0.00013219
-0.000185037
0.000121997
-0.00021824
0.000109131
-0.00024666
9.38364e-05
-0.000269728
7.65973e-05
-0.000286989
5.77558e-05
-0.000298115
3.77738e-05
-0.00030294
1.70993e-05
-0.000301404
-3.86579e-06
-0.000293515
-2.47317e-05
-0.000279535
-4.50513e-05
-0.0002597
-6.45044e-05
-0.000234413
-8.27155e-05
-0.000204108
-9.94158e-05
-0.000169359
-0.000114236
-0.000130849
-0.000126968
-8.92445e-05
-0.000137293
-4.53456e-05
-0.000145007
-0.000149832
8.15381e-05
-0.00027678
0.000163517
-0.000279623
0.000245576
-0.000281179
0.000327238
-0.000281855
0.000407936
-0.000281593
0.000487073
-0.000280405
0.00056389
-0.000278177
0.000637681
-0.000275083
0.000707603
-0.0002711
0.000773282
-0.000267028
0.000834918
-0.000263658
0.000892557
-0.000261462
0.000945607
-0.000258775
0.000993651
-0.000254766
0.00103649
-0.000250019
0.00107462
-0.000245542
0.00110885
-0.000241959
0.00114028
-0.000239718
0.00117024
-0.000239156
0.0012003
-0.000240508
0.00123194
-0.000243767
0.00126675
-0.000249047
0.0013062
-0.000256236
0.00135161
-0.000265021
0.00140397
-0.000275098
0.00146405
-0.000285953
0.00153196
-0.000296822
0.00160751
-0.000307246
0.00168933
-0.000315754
0.00177605
-0.000322226
0.00186581
-0.000325559
0.00196017
-0.000329209
0.00206066
-0.000333138
0.00216633
-0.000335817
0.00227576
-0.000336457
0.0023875
-0.000334377
0.0024999
-0.000329107
0.00261145
-0.000320365
0.00272053
-0.000307863
0.00282545
-0.000291405
0.00292456
-0.000270848
0.00301593
-0.000245909
0.0030988
-0.000217319
0.00317004
-0.000183668
0.0032307
-0.000147339
0.00327682
-0.000106054
0.00330742
-6.07665e-05
0.00332468
-1.01699e-05
0.00332127
4.80358e-05
0.00329957
0.000104295
0.00325966
0.000161107
0.00320142
0.000218533
0.00312461
0.00027627
0.00302937
0.000333972
0.00291564
0.00039112
0.00278334
0.000447619
0.00263325
0.000502105
0.00246609
0.000554484
0.00228312
0.000603513
0.00208551
0.000649114
0.00187519
0.00068954
0.00165378
0.000724873
0.00142356
0.000753945
0.00118682
0.000776036
0.000945941
0.000791096
0.000703479
0.000798163
0.000462287
0.000797109
0.000225122
0.000787344
-5.01395e-06
0.000768588
-0.000225199
0.00074079
-0.000432688
0.000704519
-0.00062465
0.000659181
-0.000798426
0.000605492
-0.000951764
0.000544339
-0.00108229
0.000475875
-0.0011881
0.000400899
-0.00126801
0.000321168
-0.00132031
0.000236789
-0.00134473
0.000149982
-0.00134089
6.21693e-05
-0.00130527
-3.0242e-05
-0.00124469
-0.000118453
-0.00115809
-0.000202358
-0.00104681
-0.000281456
-0.000913239
-0.000354105
-0.000760104
-0.000418767
-0.000590909
-0.000473665
-0.000409259
-0.000517682
-0.000219238
-0.000549603
-2.51518e-05
-0.000568359
0.000168381
-0.000573306
0.000356758
-0.000564019
0.00053523
-0.000540195
0.000699587
-0.000502668
0.000845599
-0.000451802
0.000969454
-0.000388661
0.00106765
-0.000314215
0.00113715
-0.000230819
0.00117634
-0.000140784
0.00118463
-4.63018e-05
0.00116044
5.51557e-05
0.00110555
0.000151511
0.00102108
0.000243718
0.000909378
0.000329566
0.000773773
0.000406221
0.000618525
0.000470885
0.000448453
0.000521422
0.00026894
0.000555944
8.58535e-05
0.00057283
-9.49012e-05
0.000571465
-0.000267519
0.000551663
-0.000426039
0.0005134
-0.00056559
0.000458734
-0.000681147
0.000388271
-0.000769424
0.000305577
-0.000827494
0.000212523
-0.000853668
0.000112983
-0.000847303
1.05786e-05
-0.000810391
-9.345e-05
-0.000744152
-0.000190591
-0.000651554
-0.000279906
-0.000536617
-0.000358042
-0.000404045
-0.000422363
-0.00025918
-0.00047063
-0.000107669
-0.000501146
4.48163e-05
-0.000513312
0.000192788
-0.000507183
0.000331037
-0.00048314
0.000455004
-0.000442832
0.000560849
-0.00038816
0.000645493
-0.000321348
0.000706997
-0.000245612
0.000744243
-0.000163859
0.000756945
-7.93125e-05
0.000745795
5.148e-06
0.000712872
8.61077e-05
0.000660043
0.000160956
0.000590174
0.000227412
0.000506566
0.000283521
0.000412799
0.000327791
0.000312537
0.000359325
0.000209555
0.000377637
0.000107284
0.000382945
9.0904e-06
0.000375528
-8.22471e-05
0.000356584
-0.000164142
0.000327324
-0.000234655
0.000289186
-0.000292252
0.000243955
-0.000335946
0.000193574
-0.000365326
0.000139895
-0.000380414
8.49411e-05
-0.000381591
3.03286e-05
-0.000369963
-2.17885e-05
-0.000346588
-7.03948e-05
-0.000312984
-0.000113971
-0.000270861
-0.000151431
-0.00022208
-0.000182035
-0.000168564
-0.000205171
-0.000112327
-0.000220456
-5.5186e-05
-0.000228116
9.56005e-07
-0.000228001
5.45083e-05
-0.000220864
0.000103907
-0.000207001
0.000147923
-0.000187376
0.000185457
-0.000162703
0.000215729
-0.00013406
0.000238145
-0.00010236
0.000252396
-6.86626e-05
0.000258404
-3.40909e-05
0.000256337
4.31431e-07
0.000246518
3.39802e-05
0.000229513
6.56396e-05
0.000206012
9.47094e-05
0.000176845
0.000120499
0.00014294
0.000142483
0.000105319
0.00016021
6.50155e-05
0.000173456
2.31554e-05
0.000181979
-1.92532e-05
0.000185791
-6.113e-05
0.000184961
-0.00010152
0.000179677
-0.000139485
0.000170154
-0.000174227
0.000156739
-0.000204976
0.00013988
-0.000231144
0.000120004
-0.000252205
9.76587e-05
-0.00026781
7.33606e-05
-0.00027768
4.76439e-05
-0.000281675
2.10945e-05
-0.000279764
-5.77655e-06
-0.000272085
-3.24112e-05
-0.000258748
-5.83887e-05
-0.000240076
-8.31762e-05
-0.000216452
-0.000106339
-0.000188293
-0.000127574
-0.000156135
-0.000146394
-0.000120545
-0.000162558
-8.21794e-05
-0.000175659
-4.17488e-05
-0.000185437
-0.000191581
0.000108864
-0.000385645
0.00021652
-0.000387279
0.000322285
-0.000386944
0.00042477
-0.000384341
0.000523333
-0.000380156
0.000617429
-0.000374501
0.000706015
-0.000366764
0.000787706
-0.000356774
0.000858342
-0.000341736
0.000916394
-0.00032508
0.000960098
-0.000307362
0.000988365
-0.00028973
0.00100273
-0.000273142
0.00100621
-0.000258241
0.00100187
-0.000245687
0.000992347
-0.000236016
0.000980084
-0.000229696
0.000967337
-0.000226971
0.000956282
-0.000228101
0.000948862
-0.000233088
0.000946798
-0.000241704
0.000951728
-0.000253977
0.000965039
-0.000269548
0.000988518
-0.000288501
0.00102341
-0.000309992
0.001071
-0.000333539
0.00113113
-0.00035695
0.00120195
-0.00037807
0.00128005
-0.000393853
0.00136866
-0.000410838
0.00147339
-0.000430291
0.00159363
-0.000449452
0.00172628
-0.000465786
0.00186907
-0.0004786
0.00201946
-0.000486847
0.00217507
-0.000489993
0.00233344
-0.000487472
0.00249217
-0.000479101
0.00264869
-0.000464382
0.00280049
-0.000443199
0.00294518
-0.000415538
0.00308051
-0.000381242
0.00320311
-0.000339923
0.00331265
-0.000293205
0.00340326
-0.000237948
0.00347544
-0.000178241
0.00352835
-0.000113673
0.00356438
-4.61978e-05
0.00357549
3.69277e-05
0.00356415
0.000115636
0.00352956
0.000195695
0.0034713
0.000276791
0.00338883
0.000358742
0.00328211
0.000440687
0.00315152
0.00052171
0.00299755
0.000601591
0.00282161
0.000678041
0.0026245
0.000751598
0.00240798
0.00082003
0.00217406
0.000883032
0.00192484
0.000938767
0.00166267
0.000987035
0.00139046
0.00102616
0.00111063
0.00105586
0.000826633
0.0010751
0.000541604
0.00108319
0.000258901
0.00107981
-1.79309e-05
0.00106418
-0.000285367
0.00103602
-0.000539942
0.000995365
-0.000778331
0.000942909
-0.000997147
0.000877997
-0.00119317
0.000801513
-0.00136364
0.000714808
-0.00150593
0.000618166
-0.00161788
0.00051285
-0.00169738
0.000400671
-0.00174424
0.000283645
-0.00175606
0.000161808
-0.0017339
4.00049e-05
-0.00167673
-8.74122e-05
-0.00158763
-0.000207551
-0.0014673
-0.000322686
-0.00131802
-0.000430737
-0.00114272
-0.000529409
-0.000944936
-0.000616548
-0.000729022
-0.000689578
-0.000499565
-0.00074714
-0.000261653
-0.000787515
-2.05125e-05
-0.0008095
0.000218368
-0.000812187
0.000449271
-0.000794922
0.000666596
-0.00075752
0.000864967
-0.00070104
0.00103925
-0.000626089
0.00118534
-0.000534746
0.00129956
-0.000428441
0.00137858
-0.000309832
0.00142013
-0.000182334
0.00142292
-4.90955e-05
0.00138663
9.14531e-05
0.00131315
0.000224984
0.00120426
0.000352615
0.00106311
0.000470714
0.000894047
0.000575284
0.000702412
0.000662519
0.000494258
0.000729576
0.000276233
0.000773969
5.54579e-05
0.000793605
-0.000160713
0.000787635
-0.000365069
0.000756019
-0.000550972
0.000699303
-0.000712409
0.000620171
-0.000843869
0.000519731
-0.000941579
0.000403287
-0.00100257
0.000273516
-0.00102532
0.000135732
-0.00100882
-5.9262e-06
-0.000957459
-0.000144807
-0.000872074
-0.000275975
-0.000756833
-0.000395148
-0.000617013
-0.000497862
-0.000458655
-0.000580721
-0.000288108
-0.000641178
-0.000112134
-0.000677121
6.25892e-05
-0.000688034
0.000229734
-0.000674328
0.000383586
-0.000636992
0.000519091
-0.000578337
0.000632383
-0.000501452
0.00072042
-0.000409385
0.000781388
-0.000306579
0.000814561
-0.000197032
0.000820266
-8.50183e-05
0.000800183
2.52311e-05
0.000756306
0.000129985
0.000691599
0.000225662
0.000609546
0.000309465
0.000514071
0.000378997
0.000409263
0.000432599
0.000299274
0.000469314
0.000187992
0.000488918
7.91303e-05
0.000491807
-2.36674e-05
0.000478326
-0.000117772
0.000450688
-0.000200764
0.000410315
-0.000270721
0.000359143
-0.000326395
0.00029963
-0.000367086
0.000234265
-0.000392398
0.000165208
-0.000402907
9.54503e-05
-0.000399332
2.67529e-05
-0.000382735
-3.83852e-05
-0.000354644
-9.84859e-05
-0.000316691
-0.000151924
-0.000270735
-0.000197387
-0.000218764
-0.000234006
-0.000162761
-0.000261174
-0.000104739
-0.000278478
-4.65972e-05
-0.000286258
9.92251e-06
-0.000284521
6.31756e-05
-0.000274117
0.000111748
-0.000255574
0.00015449
-0.000230117
0.00019046
-0.000198674
0.000218959
-0.000162559
0.000239521
-0.000122923
0.000251955
-8.10962e-05
0.000256288
-3.84241e-05
0.00025277
3.94967e-06
0.00024184
4.49097e-05
0.00022405
8.34293e-05
0.000200188
0.000118572
0.000171084
0.000149603
0.000137674
0.000175893
0.00010096
0.000196924
6.19548e-05
0.000212462
2.16956e-05
0.000222238
-1.88449e-05
0.000226331
-5.86287e-05
0.000224744
-9.67892e-05
0.000217837
-0.00013245
0.000205815
-0.000164896
0.000189185
-0.000193437
0.000168421
-0.00021759
0.000144158
-0.000236862
0.000116931
-0.000250954
8.74522e-05
-0.000259675
5.63645e-05
-0.000262898
2.43173e-05
-0.000260655
-8.01872e-06
-0.000253055
-4.00115e-05
-0.000240312
-7.11319e-05
-0.000222683
-0.000100805
-0.000200533
-0.000128489
-0.000174273
-0.000153835
-0.00014438
-0.000176287
-0.000111396
-0.000195541
-7.59049e-05
-0.00021115
-3.85466e-05
-0.000222796
-0.000230128
0.000146295
-0.000531939
0.000292143
-0.000533128
0.000438144
-0.000532944
0.000583431
-0.000529628
0.000725939
-0.000522665
0.00086486
-0.000513422
0.000994522
-0.000496426
0.00112128
-0.000483532
0.00123286
-0.000453316
0.00133315
-0.000425372
0.00141078
-0.000384996
0.00146381
-0.000342757
0.0014888
-0.000298129
0.00148589
-0.000255331
0.0014576
-0.000217396
0.0014087
-0.00018712
0.00134316
-0.000164153
0.0012642
-0.000148014
0.00117472
-0.000138621
0.00107734
-0.000135711
0.000975859
-0.000140219
0.000876372
-0.00015449
0.000787328
-0.000180505
0.000718741
-0.000219914
0.000677329
-0.00026858
0.000673058
-0.000329267
0.000701638
-0.00038553
0.000775357
-0.000451789
0.000875826
-0.000494322
0.00100783
-0.000542838
0.00115973
-0.000582197
0.00133087
-0.000620588
0.00151747
-0.000652385
0.00171667
-0.000677798
0.00192493
-0.000695113
0.00213833
-0.000703388
0.00235296
-0.000702109
0.00256529
-0.000691425
0.00277169
-0.000670789
0.0029691
-0.0006406
0.00315471
-0.000601151
0.00332449
-0.000551024
0.00347869
-0.000494127
0.00361305
-0.000427562
0.00372758
-0.000352478
0.00382
-0.000270659
0.003888
-0.000181674
0.00392616
-8.43616e-05
0.00393959
2.35016e-05
0.00392562
0.000129608
0.003884
0.000237317
0.00381406
0.000346726
0.00371613
0.00045667
0.0035892
0.00056762
0.00343432
0.000676589
0.00325226
0.000783651
0.00304375
0.000886553
0.00281101
0.00098434
0.00255636
0.00107468
0.00228153
0.00115786
0.00198932
0.00123098
0.00168274
0.00129361
0.00136455
0.00134435
0.00103889
0.00138153
0.000709
0.00140498
0.000379036
0.00141316
5.28543e-05
0.00140599
-0.000265499
0.00138253
-0.00057182
0.00134234
-0.00086189
0.00128544
-0.00113191
0.00121293
-0.00137785
0.00112393
-0.00159609
0.00101976
-0.00178369
0.000902409
-0.00193721
0.000771687
-0.00205435
0.000629989
-0.00213321
0.000479526
-0.00217171
0.000322146
-0.00217167
0.000161765
-0.00212678
-4.87912e-06
-0.00204569
-0.000168501
-0.00192599
-0.000327256
-0.00176982
-0.000478853
-0.00158043
-0.000620126
-0.00136155
-0.00074829
-0.00111751
-0.000860588
-0.000853398
-0.000953693
-0.000574736
-0.0010258
-0.000287461
-0.00107479
1.87422e-06
-0.00109883
0.000286783
-0.0010971
0.000560727
-0.00106887
0.000817238
-0.00101403
0.0010499
-0.000933704
0.00125269
-0.000828877
0.00142033
-0.000702391
0.00154884
-0.000556947
0.00163474
-0.000395729
0.00167552
-0.000223118
0.00166939
-4.29661e-05
0.00162002
0.000140827
0.00152599
0.000319016
0.00139018
0.000488423
0.001217
0.000643887
0.00101192
0.000780372
0.000781564
0.000892871
0.000533365
0.000977774
0.000275377
0.00103196
1.60771e-05
0.00105291
-0.000236
0.00103971
-0.00047251
0.00099253
-0.000685562
0.000912354
-0.000867986
0.000802595
-0.0010142
0.000665943
-0.00111924
0.000508333
-0.00118101
0.000335285
-0.00119773
0.00015245
-0.00117048
-3.31786e-05
-0.0011017
-0.000213583
-0.000994864
-0.000382814
-0.000855222
-0.000534791
-0.000689245
-0.000663838
-0.000504108
-0.000765857
-0.000307446
-0.000837839
-0.000107179
-0.000877388
8.91126e-05
-0.000884326
0.000274485
-0.000859701
0.000442519
-0.000805026
0.00058804
-0.000723857
0.000707002
-0.000620414
0.000796555
-0.000498937
0.000855314
-0.000365339
0.000882987
-0.000224705
0.000880424
-8.24549e-05
0.000850099
5.55558e-05
0.000794733
0.000185351
0.000718001
0.000302394
0.000623982
0.000403484
0.000517013
0.000485966
0.000401678
0.000547934
0.000282707
0.000588285
0.00016404
0.000607585
5.00557e-05
0.000605791
-5.67326e-05
0.000585114
-0.000152783
0.000546738
-0.000235988
0.00049352
-0.000304631
0.000427787
-0.000357765
0.000352763
-0.000394823
0.000271323
-0.000416171
0.000186555
-0.00042214
0.000101419
-0.000413604
1.82172e-05
-0.000392401
-5.95887e-05
-0.000359894
-0.000130993
-0.000317924
-0.000193894
-0.000268584
-0.000246727
-0.000213862
-0.000288727
-0.000155856
-0.000319179
-9.64397e-05
-0.000337895
-3.76898e-05
-0.000345008
1.87626e-05
-0.000340974
7.14381e-05
-0.000326792
0.000118993
-0.000303128
0.000160325
-0.000271449
0.000194608
-0.000232957
0.000221272
-0.000189222
0.000239988
-0.000141639
0.000250669
-9.17777e-05
0.00025341
-4.11652e-05
0.000248518
8.84191e-06
0.000236563
5.68649e-05
0.000218145
0.000101848
0.000194003
0.000142713
0.000165046
0.000178561
0.000132191
0.000208747
9.64139e-05
0.000232702
5.86911e-05
0.000250184
1.99701e-05
0.000260959
-1.86896e-05
0.000264991
-5.64613e-05
0.000262516
-9.24783e-05
0.000253854
-0.000125957
0.000239294
-0.00015624
0.000219467
-0.000182734
0.000194915
-0.00020498
0.000166404
-0.000222628
0.000134579
-0.000235331
0.000100156
-0.000243004
6.40379e-05
-0.00024553
2.68429e-05
-0.000243014
-1.05346e-05
-0.000235499
-4.75267e-05
-0.000223297
-8.33333e-05
-0.000206637
-0.000117466
-0.000185865
-0.000149261
-0.000161361
-0.000178339
-0.000133568
-0.000204079
-0.000102987
-0.000226122
-7.01383e-05
-0.000243999
-3.56014e-05
-0.000257332
-0.000265729
0.000336114
-0.000868054
0.000668148
-0.000865162
0.000995949
-0.000860745
0.00130929
-0.000842971
0.00160082
-0.000814197
0.00186184
-0.000774436