/*--------------------------------*- C++ -*----------------------------------*\
  =========                 |
  \\      /  F ield         | OpenFOAM: The Open Source CFD Toolbox
   \\    /   O peration     | Website:  https://openfoam.org
    \\  /    A nd           | Version:  12
     \\/     M anipulation  |
\*---------------------------------------------------------------------------*/
FoamFile
{
    format      ascii;
    class       volScalarField;
    location    "2800";
    object      epsilon;
}
// * * * * * * * * * * * * * * * * * * * * * * * * * * * * * * * * * * * * * //

dimensions      [0 2 -3 0 0 0 0];

internalField   nonuniform List<scalar> 
80
(
337.389
132.223
75.3352
51.2474
38.2913
30.266
24.8189
20.8796
17.8953
15.5532
13.6636
12.1047
10.7951
9.67799
8.71302
7.87047
7.1281
6.46898
5.88003
5.351
4.87382
4.44203
4.05049
3.69502
3.37226
3.07948
2.8144
2.57517
2.3602
2.16813
1.99776
1.84801
1.71787
1.60641
1.51275
1.43609
1.37572
1.33101
1.30148
1.28681
1.28681
1.30148
1.33101
1.37572
1.43609
1.51275
1.60641
1.71787
1.84801
1.99776
2.16813
2.3602
2.57517
2.8144
3.07948
3.37226
3.69502
4.05049
4.44203
4.87382
5.351
5.88003
6.46898
7.1281
7.87047
8.71302
9.67799
10.7951
12.1047
13.6636
15.5532
17.8953
20.8796
24.8189
30.266
38.2913
51.2474
75.3352
132.223
337.389
)
;

boundaryField
{
    lowerWall
    {
        type            epsilonWallFunction;
        value           uniform 337.389;
    }
    upperWall
    {
        type            epsilonWallFunction;
        value           uniform 337.389;
    }
    front
    {
        type            cyclic;
    }
    back
    {
        type            cyclic;
    }
    defaultFaces
    {
        type            empty;
    }
}


// ************************************************************************* //
