/*--------------------------------*- C++ -*----------------------------------*\
  =========                 |
  \\      /  F ield         | OpenFOAM: The Open Source CFD Toolbox
   \\    /   O peration     | Website:  https://openfoam.org
    \\  /    A nd           | Version:  12
     \\/     M anipulation  |
\*---------------------------------------------------------------------------*/
FoamFile
{
    format      ascii;
    class       volSymmTensorField;
    location    "2800";
    object      R;
}
// * * * * * * * * * * * * * * * * * * * * * * * * * * * * * * * * * * * * * //

dimensions      [0 2 -2 0 0 0 0];

internalField   nonuniform List<symmTensor> 
80
(
(0.434495 -0.599487 -0 0.434495 -0 0.434495)
(0.43308 -0.200239 -0 0.43308 -0 0.43308)
(0.412217 -0.186609 -0 0.412217 -0 0.412217)
(0.395955 -0.179673 -0 0.395955 -0 0.395955)
(0.382047 -0.173953 -0 0.382047 -0 0.382047)
(0.369417 -0.168706 -0 0.369417 -0 0.369417)
(0.357562 -0.163673 -0 0.357562 -0 0.357562)
(0.346222 -0.158747 -0 0.346222 -0 0.346222)
(0.335256 -0.153882 -0 0.335256 -0 0.335256)
(0.324577 -0.149052 -0 0.324577 -0 0.324577)
(0.314133 -0.144247 -0 0.314133 -0 0.314133)
(0.303888 -0.139457 -0 0.303888 -0 0.303888)
(0.293821 -0.134678 -0 0.293821 -0 0.293821)
(0.283917 -0.129906 -0 0.283917 -0 0.283917)
(0.274169 -0.125139 -0 0.274169 -0 0.274169)
(0.264573 -0.120373 -0 0.264573 -0 0.264573)
(0.25513 -0.115607 -0 0.25513 -0 0.25513)
(0.245846 -0.110838 -0 0.245846 -0 0.245846)
(0.236728 -0.106065 -0 0.236728 -0 0.236728)
(0.227789 -0.101284 -0 0.227789 -0 0.227789)
(0.219042 -0.0964948 -0 0.219042 -0 0.219042)
(0.210506 -0.0916951 -0 0.210506 -0 0.210506)
(0.202202 -0.0868833 -0 0.202202 -0 0.202202)
(0.194155 -0.0820579 -0 0.194155 -0 0.194155)
(0.186391 -0.0772178 -0 0.186391 -0 0.186391)
(0.178938 -0.0723617 -0 0.178938 -0 0.178938)
(0.171828 -0.0674887 -0 0.171828 -0 0.171828)
(0.165092 -0.0625982 -0 0.165092 -0 0.165092)
(0.158762 -0.0576894 -0 0.158762 -0 0.158762)
(0.152868 -0.052762 -0 0.152868 -0 0.152868)
(0.14744 -0.0478157 -0 0.14744 -0 0.14744)
(0.142502 -0.0428504 -0 0.142502 -0 0.142502)
(0.138077 -0.0378662 -0 0.138077 -0 0.138077)
(0.134182 -0.0328636 -0 0.134182 -0 0.134182)
(0.130831 -0.0278433 -0 0.130831 -0 0.130831)
(0.128032 -0.0228065 -0 0.128032 -0 0.128032)
(0.125791 -0.0177551 -0 0.125791 -0 0.125791)
(0.12411 -0.0126915 -0 0.12411 -0 0.12411)
(0.122989 -0.00761876 -0 0.122989 -0 0.122989)
(0.122429 -0.00254024 -0 0.122429 -0 0.122429)
(0.122429 0.00254024 -0 0.122429 -0 0.122429)
(0.122989 0.00761876 -0 0.122989 -0 0.122989)
(0.12411 0.0126915 -0 0.12411 -0 0.12411)
(0.125791 0.0177551 -0 0.125791 -0 0.125791)
(0.128032 0.0228065 -0 0.128032 -0 0.128032)
(0.130831 0.0278433 -0 0.130831 -0 0.130831)
(0.134182 0.0328636 -0 0.134182 -0 0.134182)
(0.138077 0.0378662 -0 0.138077 -0 0.138077)
(0.142502 0.0428504 -0 0.142502 -0 0.142502)
(0.14744 0.0478157 -0 0.14744 -0 0.14744)
(0.152868 0.052762 -0 0.152868 -0 0.152868)
(0.158762 0.0576894 -0 0.158762 -0 0.158762)
(0.165092 0.0625981 -0 0.165092 -0 0.165092)
(0.171828 0.0674887 -0 0.171828 -0 0.171828)
(0.178938 0.0723616 -0 0.178938 -0 0.178938)
(0.186391 0.0772177 -0 0.186391 -0 0.186391)
(0.194155 0.0820579 -0 0.194155 -0 0.194155)
(0.202202 0.0868832 -0 0.202202 -0 0.202202)
(0.210506 0.091695 -0 0.210506 -0 0.210506)
(0.219042 0.0964948 -0 0.219042 -0 0.219042)
(0.227788 0.101284 -0 0.227788 -0 0.227788)
(0.236728 0.106065 -0 0.236728 -0 0.236728)
(0.245846 0.110838 -0 0.245846 -0 0.245846)
(0.25513 0.115607 -0 0.25513 -0 0.25513)
(0.264573 0.120373 -0 0.264573 -0 0.264573)
(0.274169 0.125139 -0 0.274169 -0 0.274169)
(0.283917 0.129906 -0 0.283917 -0 0.283917)
(0.293821 0.134678 -0 0.293821 -0 0.293821)
(0.303888 0.139457 -0 0.303888 -0 0.303888)
(0.314133 0.144247 -0 0.314133 -0 0.314133)
(0.324577 0.149052 -0 0.324577 -0 0.324577)
(0.335256 0.153882 -0 0.335256 -0 0.335256)
(0.346222 0.158747 -0 0.346222 -0 0.346222)
(0.357561 0.163673 -0 0.357561 -0 0.357561)
(0.369417 0.168706 -0 0.369417 -0 0.369417)
(0.382047 0.173953 -0 0.382047 -0 0.382047)
(0.395955 0.179673 -0 0.395955 -0 0.395955)
(0.412217 0.186609 -0 0.412217 -0 0.412217)
(0.43308 0.200239 -0 0.43308 -0 0.43308)
(0.434495 0.599487 -0 0.434495 -0 0.434495)
)
;

boundaryField
{
    lowerWall
    {
        type            calculated;
        value           uniform (0.434495 -0.0989481 -0 0.434495 -0 0.434495);
    }
    upperWall
    {
        type            calculated;
        value           uniform (0.434495 0.0989481 -0 0.434495 -0 0.434495);
    }
    front
    {
        type            cyclic;
    }
    back
    {
        type            cyclic;
    }
    defaultFaces
    {
        type            empty;
    }
}


// ************************************************************************* //
