/*--------------------------------*- C++ -*----------------------------------*\
  =========                 |
  \\      /  F ield         | OpenFOAM: The Open Source CFD Toolbox
   \\    /   O peration     | Website:  https://openfoam.org
    \\  /    A nd           | Version:  12
     \\/     M anipulation  |
\*---------------------------------------------------------------------------*/
FoamFile
{
    format      ascii;
    class       volVectorField;
    location    "2800";
    object      U;
}
// * * * * * * * * * * * * * * * * * * * * * * * * * * * * * * * * * * * * * //

dimensions      [0 1 -1 0 0 0 0];

internalField   nonuniform List<vector> 
80
(
(6.04627 0 0)
(7.18058 0 0)
(7.78903 0 0)
(8.20197 0 0)
(8.5141 0 0)
(8.76537 0 0)
(8.97602 0 0)
(9.15763 0 0)
(9.3174 0 0)
(9.4601 0 0)
(9.58906 0 0)
(9.70668 0 0)
(9.81474 0 0)
(9.91459 0 0)
(10.0073 0 0)
(10.0937 0 0)
(10.1744 0 0)
(10.25 0 0)
(10.3208 0 0)
(10.3874 0 0)
(10.4498 0 0)
(10.5084 0 0)
(10.5633 0 0)
(10.6146 0 0)
(10.6626 0 0)
(10.7072 0 0)
(10.7485 0 0)
(10.7866 0 0)
(10.8215 0 0)
(10.8533 0 0)
(10.8819 0 0)
(10.9075 0 0)
(10.9301 0 0)
(10.9497 0 0)
(10.9663 0 0)
(10.98 0 0)
(10.991 0 0)
(10.9991 0 0)
(11.0045 0 0)
(11.0072 0 0)
(11.0072 0 0)
(11.0045 0 0)
(10.9991 0 0)
(10.991 0 0)
(10.98 0 0)
(10.9663 0 0)
(10.9497 0 0)
(10.9301 0 0)
(10.9075 0 0)
(10.8819 0 0)
(10.8533 0 0)
(10.8215 0 0)
(10.7866 0 0)
(10.7485 0 0)
(10.7072 0 0)
(10.6626 0 0)
(10.6146 0 0)
(10.5633 0 0)
(10.5084 0 0)
(10.4498 0 0)
(10.3874 0 0)
(10.3208 0 0)
(10.25 0 0)
(10.1744 0 0)
(10.0937 0 0)
(10.0073 0 0)
(9.91459 0 0)
(9.81474 0 0)
(9.70668 0 0)
(9.58906 0 0)
(9.4601 0 0)
(9.3174 0 0)
(9.15763 0 0)
(8.97602 0 0)
(8.76537 0 0)
(8.5141 0 0)
(8.20197 0 0)
(7.78903 0 0)
(7.18058 0 0)
(6.04627 0 0)
)
;

boundaryField
{
    lowerWall
    {
        type            noSlip;
    }
    upperWall
    {
        type            noSlip;
    }
    front
    {
        type            cyclic;
    }
    back
    {
        type            cyclic;
    }
    defaultFaces
    {
        type            empty;
    }
}


// ************************************************************************* //
