/*--------------------------------*- C++ -*----------------------------------*\
  =========                 |
  \\      /  F ield         | OpenFOAM: The Open Source CFD Toolbox
   \\    /   O peration     | Website:  https://openfoam.org
    \\  /    A nd           | Version:  12
     \\/     M anipulation  |
\*---------------------------------------------------------------------------*/
FoamFile
{
    format      ascii;
    class       volScalarField;
    location    "200";
    object      epsilon;
}
// * * * * * * * * * * * * * * * * * * * * * * * * * * * * * * * * * * * * * //

dimensions      [0 2 -3 0 0 0 0];

internalField   nonuniform List<scalar> 
5000
(
0.124512
0.106959
0.0933335
0.0824453
0.0736442
0.0664507
0.0604859
0.0559022
0.0505116
0.0471641
0.0430981
0.0415747
0.0382207
0.0369119
0.0341504
0.033015
0.031101
0.0288853
0.0278354
0.0260543
0.0252359
0.0237582
0.0231069
0.0218679
0.0213043
0.124515
0.106951
0.0933486
0.0824128
0.0736884
0.0663714
0.0604521
0.0552884
0.0515712
0.0481174
0.0437767
0.042395
0.0388259
0.0373674
0.0347277
0.0320823
0.0308445
0.0287354
0.0277568
0.0260167
0.0252331
0.023778
0.0231533
0.0224761
0.0212641
0.124516
0.10695
0.0933437
0.0824275
0.073671
0.0663974
0.0604964
0.055062
0.0505988
0.0461176
0.0439545
0.0403382
0.0388882
0.0358886
0.034661
0.032165
0.0310951
0.0296188
0.0275994
0.0266099
0.0249741
0.0242061
0.0228393
0.0222181
0.021061
0.12451
0.106959
0.0933417
0.0824198
0.0736911
0.0663662
0.0604172
0.0552763
0.051009
0.0477745
0.0448356
0.0420752
0.038875
0.0356999
0.034293
0.0318126
0.0307401
0.0286949
0.0278057
0.0260826
0.0253343
0.0245288
0.0230961
0.0224035
0.0212688
0.124484
0.107002
0.0932872
0.0824957
0.0735934
0.0664956
0.0602724
0.0554605
0.0511875
0.0462905
0.0440555
0.040384
0.0388529
0.0358737
0.0347254
0.0326913
0.0303276
0.0292308
0.0273277
0.0264716
0.0248868
0.0241898
0.0228483
0.0222684
0.0215403
0.124511
0.106957
0.0933386
0.0824367
0.0736581
0.0664309
0.0604408
0.0558784
0.0505342
0.0471619
0.0430784
0.0415072
0.038168
0.0368208
0.0340719
0.0330534
0.0310454
0.0288466
0.0278292
0.0260614
0.0252545
0.0237824
0.0231318
0.0218916
0.0213367
0.124485
0.106998
0.0932944
0.0824927
0.0735945
0.0664943
0.0603102
0.0553568
0.0511171
0.0472356
0.042972
0.0412338
0.0379087
0.0365364
0.0338482
0.0328377
0.0310171
0.0288271
0.027818
0.0260505
0.0252512
0.0237778
0.0231337
0.0218959
0.0213295
0.124512
0.106955
0.0933429
0.0824193
0.0736808
0.0663793
0.0604629
0.0552628
0.0515969
0.048102
0.0437272
0.0420267
0.0385514
0.0371827
0.0345865
0.0319885
0.0307903
0.0286929
0.027739
0.0260056
0.0252374
0.0237791
0.0231613
0.022459
0.0213304
0.124511
0.106957
0.0933387
0.0824228
0.0736928
0.0663502
0.0604486
0.0552872
0.0509356
0.0475371
0.0447282
0.0413047
0.0378673
0.0363493
0.0336263
0.0324536
0.0302007
0.0292383
0.0273438
0.0265294
0.0256395
0.0240892
0.0233483
0.0220516
0.0213344
0.124515
0.10695
0.0933464
0.0824237
0.0736855
0.066431
0.0604544
0.0558829
0.0515722
0.0463947
0.0445756
0.0408806
0.0393932
0.036267
0.0350898
0.0327629
0.0303632
0.0292555
0.0273355
0.0264664
0.0248793
0.0241704
0.0228266
0.0222433
0.0215027
0.124515
0.106952
0.093349
0.0824085
0.0737017
0.0663614
0.0604125
0.0552905
0.0510336
0.0477714
0.0446306
0.0421557
0.0388804
0.0356809
0.0342815
0.0317979
0.0306972
0.0286366
0.0277507
0.0260241
0.0252882
0.0244835
0.0230569
0.022368
0.0211989
0.124516
0.106951
0.0933502
0.0824072
0.0737059
0.0663516
0.0604293
0.0552746
0.0510112
0.04778
0.0448065
0.0421075
0.0388423
0.0356576
0.0342484
0.0317771
0.0306868
0.0286379
0.0277607
0.0260411
0.0253101
0.0245052
0.0230813
0.022379
0.0212038
0.124511
0.106957
0.0933394
0.0824216
0.073693
0.0663544
0.060437
0.0552987
0.0509448
0.0474763
0.044739
0.0412938
0.0378278
0.0362814
0.0335718
0.0324284
0.0301894
0.029245
0.0273602
0.0265433
0.0256704
0.0241252
0.02337
0.0220645
0.0213383
0.124516
0.10695
0.0933481
0.0824095
0.0737015
0.0663583
0.0604251
0.0552816
0.0509803
0.0477699
0.0448464
0.0421103
0.0388886
0.0357042
0.0343168
0.0318519
0.0307374
0.0286767
0.0277907
0.0260633
0.0253282
0.0245193
0.0230957
0.0223933
0.0212295
0.124519
0.106945
0.0933505
0.0824246
0.0736837
0.0664387
0.0604445
0.0558898
0.0515129
0.0465372
0.044985
0.0412585
0.0398254
0.036621
0.0352122
0.0337224
0.0313244
0.0290603
0.0279559
0.0261596
0.0253167
0.0238408
0.0231678
0.0219268
0.0213595
0.124517
0.106947
0.0933493
0.0824189
0.0736908
0.06642
0.0604711
0.0558763
0.0516001
0.0463795
0.0445355
0.0408297
0.039393
0.0362812
0.0351349
0.032825
0.0304296
0.0292993
0.0273734
0.0264801
0.0248762
0.0241556
0.0228106
0.0222329
0.0214998
0.124513
0.106954
0.093338
0.0824267
0.0736921
0.0663408
0.0604763
0.0552599
0.0509185
0.0475043
0.0439588
0.0401786
0.0385883
0.0356266
0.0344001
0.0319397
0.030898
0.0288051
0.0278777
0.0268612
0.0251651
0.0243346
0.0229338
0.0222431
0.0211773
0.124517
0.106951
0.0933435
0.0824356
0.0736558
0.0664373
0.0604464
0.0558852
0.050531
0.0471736
0.0431452
0.041658
0.0383446
0.0371395
0.0343421
0.0331943
0.0312305
0.029009
0.0279427
0.0261551
0.0253081
0.023822
0.0231414
0.0218933
0.0213252
0.124512
0.106962
0.0933279
0.0824509
0.0736432
0.0664157
0.0604244
0.0552008
0.0509361
0.0470587
0.0428848
0.0412309
0.0379503
0.0366397
0.0339408
0.0328464
0.0305294
0.0294491
0.0282642
0.0263928
0.0254592
0.0239317
0.0231995
0.0219297
0.0212201
0.124515
0.10695
0.0933466
0.0824267
0.073682
0.0664334
0.0604594
0.0558907
0.0516067
0.0463425
0.0445277
0.040769
0.0392303
0.0361458
0.0350287
0.0327345
0.030328
0.0292317
0.0273108
0.0264277
0.0248287
0.0241118
0.0227692
0.0221927
0.0214551
0.119799
0.0961458
0.0788259
0.0659287
0.0558825
0.0481271
0.0419869
0.0369277
0.0330452
0.0292081
0.0259892
0.0237555
0.0212264
0.0194931
0.0179961
0.0166538
0.0154305
0.0143358
0.0133585
0.0124773
0.0116844
0.0109647
0.0103128
0.00971839
0.00917802
0.1198
0.0961454
0.0788383
0.065913
0.0559087
0.0480948
0.0419458
0.0369594
0.0330547
0.0289537
0.0264381
0.0236842
0.02129
0.0196069
0.0181194
0.0167452
0.0155022
0.014392
0.0134028
0.0125127
0.0117134
0.0109893
0.0103349
0.00974225
0.00919819
0.119804
0.0961384
0.0788458
0.0659038
0.0559133
0.0480886
0.0419588
0.037011
0.0327742
0.0297003
0.0260523
0.0233485
0.0214373
0.0195824
0.0180292
0.0166724
0.0154745
0.0143897
0.0134064
0.012523
0.0117213
0.0109992
0.0103404
0.00974452
0.00919961
0.119795
0.0961545
0.0788166
0.0659481
0.0558528
0.0481672
0.0419876
0.0370191
0.032751
0.0298603
0.026096
0.0231607
0.0216256
0.0196082
0.018028
0.0166521
0.0154314
0.0143338
0.0133569
0.0124785
0.0116908
0.0109811
0.010332
0.00974352
0.00920303
0.119802
0.0961419
0.0788415
0.0659078
0.0559065
0.0481084
0.0419286
0.0370497
0.0327553
0.0297144
0.026066
0.023212
0.0215682
0.019589
0.0180379
0.0166884
0.0154723
0.0143732
0.0133835
0.0124986
0.0116982
0.0109795
0.0103249
0.00973443
0.00919633
0.119799
0.096149
0.0788403
0.0659102
0.0559129
0.0480907
0.0419867
0.0369784
0.0328171
0.0297177
0.0260751
0.023805
0.0213715
0.0195065
0.0179924
0.0166755
0.0154839
0.0143826
0.0133961
0.012506
0.011706
0.0109813
0.0103265
0.0097308
0.00919046
0.119793
0.0961573
0.0788299
0.0659237
0.0559006
0.048101
0.0420064
0.0369479
0.0328857
0.029649
0.02615
0.0237452
0.0214861
0.0194721
0.0179467
0.0166256
0.0154346
0.0143407
0.013362
0.0124792
0.0116856
0.0109662
0.0103156
0.00972307
0.00918487
0.119797
0.0961475
0.0788301
0.0659258
0.0558837
0.0481371
0.041983
0.0369848
0.0328322
0.0296926
0.0259899
0.0235889
0.0214558
0.0195809
0.0180458
0.0167011
0.0154827
0.0143717
0.0133816
0.0124916
0.0116936
0.0109717
0.0103203
0.00973048
0.00919069
0.119796
0.0961529
0.0788186
0.0659458
0.0558557
0.0481589
0.0419649
0.0370107
0.0328064
0.0297594
0.0257981
0.0236894
0.0216449
0.0195966
0.0180293
0.0166672
0.0154382
0.0143456
0.013364
0.0124879
0.0116994
0.0109832
0.0103337
0.00974011
0.00919966
0.119797
0.0961502
0.0788319
0.0659206
0.0558955
0.0481123
0.041988
0.0369714
0.0328552
0.0297284
0.0256689
0.0235081
0.021527
0.0195973
0.0180949
0.0167691
0.0155338
0.0144182
0.0134172
0.0125247
0.0117191
0.0109964
0.0103389
0.00974563
0.0092059
0.119808
0.0961304
0.0788487
0.0659044
0.0559101
0.0481224
0.0419745
0.0369546
0.0329013
0.0296555
0.0255382
0.0238158
0.0215563
0.0195243
0.0179971
0.0166485
0.0154155
0.0143116
0.0133328
0.0124551
0.011669
0.0109609
0.0103132
0.00972573
0.00918566
0.119811
0.0961251
0.0788517
0.0659034
0.0559105
0.0481237
0.0419779
0.0369494
0.0329036
0.02967
0.0255545
0.02381
0.0215734
0.0195151
0.0179858
0.016634
0.0153983
0.0142954
0.0133187
0.0124436
0.0116601
0.0109544
0.0103087
0.00972258
0.00918348
0.1198
0.0961461
0.0788267
0.0659398
0.055863
0.0481609
0.0420145
0.0369257
0.0329313
0.0297206
0.0256251
0.0237639
0.0216384
0.0194217
0.0179113
0.0165828
0.0153569
0.014275
0.0133069
0.0124441
0.0116675
0.010961
0.0103187
0.00973051
0.00919266
0.11981
0.0961274
0.0788499
0.0659055
0.055908
0.0481252
0.0419773
0.0369481
0.0329064
0.0296668
0.025541
0.0238164
0.0215729
0.0195206
0.0179922
0.0166422
0.0154104
0.0143083
0.0133311
0.0124547
0.0116697
0.0109625
0.0103156
0.00972854
0.00918885
0.119808
0.0961317
0.0788481
0.0659002
0.0559133
0.0480928
0.041976
0.0369385
0.0329047
0.0296744
0.0254227
0.023816
0.0215553
0.0195796
0.0180753
0.0167561
0.0155433
0.0144299
0.0134335
0.0125357
0.0117295
0.0110001
0.0103413
0.00974238
0.00919924
0.119798
0.0961498
0.0788361
0.0659161
0.0559064
0.0480962
0.0419991
0.0369464
0.0329001
0.0296678
0.0255955
0.0236878
0.0215562
0.0195717
0.0180813
0.0167642
0.0155347
0.014423
0.0134241
0.0125322
0.0117261
0.0110026
0.0103441
0.00975008
0.00920993
0.119805
0.0961356
0.0788427
0.0659133
0.0558964
0.0481226
0.0419456
0.0369864
0.0330281
0.0289367
0.0264642
0.023955
0.0209743
0.0193383
0.0178918
0.0165515
0.0153644
0.0143005
0.0133473
0.0124875
0.0117021
0.0109903
0.0103373
0.00974388
0.00920029
0.119804
0.0961429
0.0788288
0.0659409
0.0558576
0.0481661
0.0419852
0.0369363
0.0330782
0.0290763
0.0262528
0.0237526
0.0211973
0.019485
0.017997
0.0166466
0.0154326
0.0143459
0.013374
0.0124956
0.0117033
0.0109827
0.0103289
0.00973197
0.00919016
0.119798
0.0961507
0.07882
0.0659415
0.055867
0.0481494
0.0419741
0.0369634
0.0329806
0.0294182
0.0258163
0.0237807
0.021332
0.0194337
0.0179365
0.0165964
0.015383
0.0143096
0.0133495
0.012481
0.0116961
0.0109809
0.0103305
0.00973539
0.00919313
0.119794
0.0961559
0.0788327
0.0659207
0.0559072
0.0480961
0.0419744
0.0369237
0.0329775
0.0295166
0.0261344
0.0237959
0.0212155
0.0195074
0.0180279
0.0167124
0.0154837
0.0143818
0.0133907
0.0125046
0.0117027
0.0109819
0.0103252
0.00973209
0.00919241
0.11979
0.0960526
0.0786179
0.065613
0.0554654
0.0476269
0.0414476
0.0364603
0.0322694
0.028792
0.0257938
0.0232932
0.0210572
0.0192087
0.0175
0.0161132
0.0147595
0.0137089
0.0126015
0.0118099
0.0108713
0.0102902
0.00945358
0.00908881
0.00812076
0.119789
0.0960533
0.0786186
0.0656123
0.055467
0.047625
0.0414479
0.0364637
0.0322681
0.0287931
0.0257981
0.0232908
0.0210575
0.0192119
0.0175033
0.0161163
0.0147616
0.013711
0.0126028
0.0118115
0.0108718
0.0102912
0.00945358
0.00908865
0.00812313
0.11979
0.0960526
0.0786193
0.0656116
0.055467
0.0476254
0.0414498
0.0364615
0.0322668
0.0288003
0.0257918
0.0232892
0.0210585
0.0192107
0.0174999
0.016115
0.0147624
0.0137131
0.0126045
0.0118131
0.0108731
0.0102894
0.00946685
0.00902394
0.00821469
0.119789
0.0960539
0.0786166
0.0656158
0.0554619
0.0476312
0.0414518
0.036462
0.032267
0.0288045
0.0257879
0.0232871
0.0210606
0.0192121
0.0174999
0.0161126
0.0147584
0.0137094
0.0126025
0.0118126
0.0108733
0.0102929
0.00945522
0.00909031
0.00812437
0.119789
0.0960534
0.0786187
0.0656123
0.0554662
0.0476271
0.0414483
0.0364638
0.0322657
0.0288011
0.0257922
0.0232894
0.0210586
0.0192113
0.0174998
0.0161153
0.0147605
0.0137118
0.0126021
0.0118128
0.0108711
0.0102924
0.00945334
0.00908854
0.0081276
0.119789
0.0960541
0.0786184
0.0656127
0.0554669
0.0476252
0.0414506
0.0364611
0.0322682
0.0288012
0.0257904
0.0232883
0.0210572
0.0192103
0.0175
0.0161166
0.0147625
0.0137133
0.0126028
0.0118127
0.0108706
0.0102918
0.00945289
0.00908814
0.00812737
0.119788
0.0960544
0.078618
0.0656131
0.0554666
0.0476256
0.0414514
0.03646
0.0322702
0.0287996
0.02579
0.0232908
0.021059
0.0192099
0.017499
0.0161143
0.0147607
0.013711
0.0126018
0.0118111
0.0108704
0.0102906
0.00945281
0.00908817
0.00812446
0.119789
0.0960532
0.0786182
0.0656131
0.0554652
0.0476281
0.0414505
0.0364614
0.0322682
0.0288006
0.0257904
0.0232879
0.0210582
0.0192107
0.0175007
0.0161155
0.0147614
0.0137113
0.0126028
0.0118116
0.010872
0.0102883
0.00946611
0.00902324
0.00821422
0.119789
0.0960536
0.0786171
0.0656154
0.0554624
0.0476306
0.0414502
0.0364623
0.0322683
0.0288013
0.0257886
0.0232898
0.0210611
0.0192119
0.0175002
0.016113
0.0147588
0.0137097
0.0126025
0.0118122
0.0108731
0.0102894
0.0094672
0.00902369
0.00821559
0.119789
0.0960536
0.0786181
0.0656129
0.0554662
0.0476258
0.0414505
0.0364614
0.0322688
0.0288003
0.0257891
0.023288
0.0210582
0.019211
0.0175024
0.0161175
0.0147633
0.0137128
0.0126042
0.0118129
0.0108734
0.0102896
0.00946744
0.0090239
0.00821605
0.11979
0.0960519
0.0786194
0.0656117
0.0554668
0.0476272
0.0414493
0.0364617
0.0322688
0.028799
0.0257865
0.0232908
0.0210591
0.0192102
0.0174992
0.0161136
0.0147584
0.0137102
0.0126019
0.0118129
0.0108717
0.0102925
0.00945309
0.00908816
0.00812659
0.119791
0.0960509
0.07862
0.0656113
0.0554671
0.0476268
0.0414496
0.0364611
0.0322691
0.0287985
0.025786
0.0232905
0.0210596
0.0192095
0.0174992
0.0161124
0.0147583
0.0137089
0.0126022
0.0118117
0.0108726
0.0102913
0.0094539
0.00908893
0.00812159
0.11979
0.0960528
0.0786179
0.0656145
0.0554634
0.0476299
0.0414517
0.0364597
0.0322722
0.028798
0.0257843
0.0232922
0.0210617
0.0192095
0.0174983
0.0161111
0.0147574
0.0137087
0.0126026
0.0118124
0.0108735
0.0102923
0.00945511
0.00909013
0.00812275
0.11979
0.0960512
0.0786198
0.0656115
0.0554668
0.0476271
0.0414495
0.0364611
0.0322693
0.0287985
0.0257861
0.0232904
0.0210595
0.0192097
0.0174993
0.0161127
0.0147586
0.0137094
0.0126025
0.011812
0.0108728
0.0102916
0.00945414
0.00908917
0.00812196
0.11979
0.096052
0.0786193
0.0656116
0.0554666
0.047626
0.041449
0.0364608
0.0322696
0.028798
0.0257883
0.0232886
0.0210572
0.0192107
0.017501
0.0161179
0.014763
0.0137138
0.0126033
0.0118132
0.0108711
0.0102919
0.00945304
0.00908823
0.00812728
0.119788
0.0960544
0.0786177
0.0656135
0.0554659
0.0476263
0.0414507
0.0364613
0.0322696
0.0287995
0.0257896
0.0232891
0.0210576
0.0192113
0.0175018
0.0161182
0.014763
0.0137137
0.0126036
0.0118136
0.0108725
0.0102906
0.00946625
0.00902695
0.00821449
0.11979
0.0960521
0.0786193
0.0656121
0.0554663
0.0476277
0.0414482
0.0364646
0.0322671
0.028793
0.025798
0.0232946
0.0210558
0.0192081
0.0174984
0.0161118
0.0147597
0.0137115
0.0126048
0.0118134
0.0108742
0.0102893
0.00946783
0.00902277
0.00821675
0.11979
0.0960527
0.0786178
0.0656153
0.0554623
0.0476318
0.0414496
0.0364638
0.0322704
0.0287924
0.025796
0.0232944
0.021057
0.0192094
0.0174999
0.0161133
0.0147597
0.0137105
0.0126028
0.0118118
0.0108727
0.0102886
0.00946703
0.00902219
0.00821592
0.119789
0.0960536
0.0786169
0.0656154
0.0554625
0.0476305
0.0414498
0.036463
0.032271
0.0287946
0.0257917
0.0232956
0.0210585
0.0192091
0.0174983
0.0161127
0.0147583
0.0137109
0.0126024
0.0118131
0.0108719
0.01029
0.00946478
0.00902637
0.00821239
0.119788
0.0960545
0.078618
0.065613
0.0554669
0.0476252
0.0414421
0.0364558
0.032267
0.028792
0.0257887
0.0232892
0.0210564
0.0192093
0.0175013
0.0161162
0.0147619
0.0137113
0.0126026
0.0118112
0.0108718
0.010288
0.00946638
0.00902242
0.00821507
0.119788
0.0960537
0.0786105
0.0656081
0.0554495
0.0476155
0.0414292
0.0364431
0.032243
0.0287728
0.0257652
0.0232672
0.0210329
0.019189
0.0174738
0.0160895
0.0147305
0.0136831
0.0125706
0.0117815
0.0108379
0.0102579
0.00941806
0.00905369
0.00808068
0.119787
0.0960542
0.07861
0.0656087
0.0554489
0.0476162
0.0414313
0.036445
0.032244
0.028774
0.0257657
0.023268
0.0210331
0.0191896
0.0174738
0.0160901
0.0147303
0.0136836
0.0125702
0.011782
0.0108374
0.0102584
0.00941769
0.00905329
0.00808276
0.119787
0.0960541
0.0786101
0.0656086
0.0554489
0.0476162
0.0414314
0.036445
0.0322441
0.0287741
0.0257656
0.023268
0.0210331
0.0191897
0.0174737
0.0160902
0.0147301
0.0136839
0.0125701
0.0117823
0.0108376
0.0102562
0.00943019
0.00898747
0.00817517
0.119787
0.0960541
0.07861
0.0656088
0.0554487
0.0476164
0.0414314
0.036445
0.0322442
0.0287742
0.0257656
0.0232679
0.0210332
0.0191897
0.0174737
0.0160901
0.01473
0.0136838
0.01257
0.0117823
0.0108372
0.0102588
0.00941741
0.00905311
0.0080851
0.119787
0.0960546
0.0786096
0.0656093
0.0554482
0.0476171
0.0414313
0.0364455
0.0322439
0.0287745
0.0257654
0.0232684
0.0210328
0.0191901
0.0174733
0.0160907
0.0147296
0.0136844
0.0125694
0.0117829
0.0108367
0.0102572
0.00942885
0.00899017
0.00817333
0.119787
0.0960544
0.0786098
0.065609
0.0554486
0.0476165
0.0414314
0.0364451
0.0322441
0.0287742
0.0257657
0.0232681
0.0210331
0.0191896
0.0174737
0.0160902
0.0147303
0.0136837
0.0125703
0.0117819
0.010838
0.0102556
0.00943114
0.0089855
0.00817729
0.119787
0.0960543
0.0786099
0.0656088
0.0554488
0.0476163
0.0414314
0.036445
0.0322442
0.0287742
0.0257656
0.0232681
0.0210331
0.0191897
0.0174737
0.0160902
0.0147302
0.0136838
0.0125701
0.011782
0.0108377
0.0102559
0.00943059
0.00898656
0.00817617
0.119787
0.096054
0.0786102
0.0656085
0.0554491
0.047616
0.0414314
0.0364449
0.0322442
0.028774
0.0257657
0.0232679
0.0210332
0.0191895
0.0174739
0.01609
0.0147303
0.0136836
0.0125703
0.0117819
0.0108374
0.0102583
0.00941748
0.00905325
0.00808333
0.119787
0.096054
0.0786102
0.0656086
0.0554489
0.0476161
0.0414314
0.0364449
0.0322442
0.0287741
0.0257657
0.0232679
0.0210332
0.0191896
0.0174738
0.01609
0.0147302
0.0136836
0.0125702
0.0117821
0.0108374
0.0102585
0.00941753
0.00905323
0.00808382
0.119787
0.0960541
0.0786101
0.0656086
0.055449
0.0476161
0.0414314
0.036445
0.0322442
0.0287741
0.0257657
0.023268
0.0210331
0.0191896
0.0174737
0.0160902
0.0147302
0.0136839
0.0125701
0.0117822
0.0108376
0.0102562
0.00943026
0.00898743
0.00817528
0.119787
0.0960545
0.0786096
0.0656092
0.0554483
0.047617
0.0414313
0.0364454
0.032244
0.0287745
0.0257654
0.0232684
0.0210328
0.0191901
0.0174733
0.0160906
0.0147296
0.0136843
0.0125695
0.011783
0.0108365
0.0102594
0.0094169
0.00905256
0.00808756
0.119787
0.0960541
0.07861
0.0656087
0.0554488
0.0476163
0.0414314
0.0364451
0.0322442
0.0287741
0.0257656
0.023268
0.0210332
0.0191896
0.0174738
0.01609
0.0147302
0.0136835
0.0125704
0.0117819
0.0108377
0.0102582
0.00941788
0.00905345
0.00808146
0.119787
0.0960539
0.0786102
0.0656086
0.055449
0.0476161
0.0414314
0.0364449
0.0322443
0.028774
0.0257657
0.0232679
0.0210333
0.0191895
0.0174738
0.0160899
0.0147302
0.0136835
0.0125703
0.011782
0.0108376
0.0102584
0.00941781
0.00905337
0.00808273
0.119787
0.0960539
0.0786102
0.0656085
0.055449
0.047616
0.0414314
0.0364449
0.0322442
0.028774
0.0257657
0.0232679
0.0210332
0.0191895
0.0174738
0.01609
0.0147302
0.0136835
0.0125703
0.011782
0.0108375
0.0102583
0.00941774
0.0090533
0.00808265
0.119787
0.0960543
0.0786099
0.0656089
0.0554486
0.0476166
0.0414313
0.0364452
0.0322441
0.0287742
0.0257656
0.0232681
0.0210331
0.0191897
0.0174737
0.0160902
0.0147302
0.0136838
0.0125702
0.0117821
0.0108373
0.0102583
0.00941762
0.00905326
0.0080829
0.119787
0.0960544
0.0786098
0.065609
0.0554486
0.0476165
0.0414314
0.0364451
0.0322441
0.0287742
0.0257657
0.023268
0.0210331
0.0191896
0.0174738
0.0160902
0.0147303
0.0136837
0.0125703
0.0117819
0.0108381
0.0102556
0.00943122
0.00898553
0.00817731
0.119787
0.0960542
0.0786099
0.0656089
0.0554487
0.0476165
0.0414314
0.0364452
0.0322441
0.0287741
0.0257658
0.0232681
0.0210331
0.0191896
0.0174738
0.01609
0.0147303
0.0136836
0.0125704
0.0117819
0.0108382
0.0102555
0.00943128
0.00898509
0.00817797
0.119787
0.0960543
0.0786098
0.065609
0.0554484
0.0476168
0.0414313
0.0364453
0.032244
0.0287742
0.0257656
0.0232683
0.0210329
0.0191899
0.0174734
0.0160905
0.0147297
0.0136843
0.0125695
0.0117829
0.0108368
0.0102573
0.00942859
0.00899036
0.00817353
0.119787
0.0960542
0.0786099
0.0656089
0.0554486
0.0476165
0.0414313
0.0364451
0.0322441
0.028774
0.0257656
0.023268
0.021033
0.0191896
0.0174736
0.0160901
0.01473
0.0136838
0.0125701
0.0117823
0.0108372
0.0102587
0.00941731
0.00905313
0.00808463
0.119787
0.0960542
0.07861
0.0656087
0.0554489
0.0476162
0.041424
0.0364397
0.0322398
0.028771
0.0257631
0.0232664
0.0210315
0.0191888
0.0174727
0.01609
0.0147295
0.0136839
0.0125695
0.0117826
0.0108367
0.0102591
0.00941721
0.00905292
0.00808633
0.119787
0.0960538
0.0786079
0.0656059
0.0554445
0.0476117
0.041424
0.0364381
0.0322373
0.0287676
0.0257593
0.0232618
0.0210272
0.0191839
0.0174683
0.0160847
0.0147251
0.0136785
0.0125655
0.0117771
0.0108329
0.0102536
0.00941327
0.00904897
0.00807781
0.119787
0.0960544
0.0786073
0.0656067
0.0554436
0.0476128
0.0414261
0.0364402
0.0322383
0.0287689
0.0257597
0.0232629
0.0210272
0.0191847
0.017468
0.0160855
0.0147245
0.0136794
0.0125646
0.0117781
0.0108318
0.0102546
0.00941255
0.00904819
0.00808211
0.119787
0.096054
0.0786077
0.0656062
0.0554442
0.0476121
0.0414262
0.0364399
0.0322385
0.0287687
0.02576
0.0232625
0.0210275
0.0191844
0.0174684
0.016085
0.014725
0.0136788
0.0125652
0.0117774
0.0108326
0.0102539
0.00941293
0.0090487
0.0080795
0.119787
0.0960538
0.0786079
0.065606
0.0554444
0.0476118
0.0414262
0.0364398
0.0322385
0.0287686
0.02576
0.0232625
0.0210276
0.0191843
0.0174684
0.016085
0.0147251
0.0136788
0.0125653
0.0117773
0.0108331
0.0102513
0.00942609
0.00898238
0.00817117
0.119787
0.0960542
0.0786074
0.0656065
0.0554438
0.0476125
0.0414261
0.0364401
0.0322384
0.0287689
0.0257598
0.0232629
0.0210272
0.0191848
0.0174679
0.0160856
0.0147244
0.0136796
0.0125644
0.0117784
0.0108314
0.0102552
0.00941197
0.0090478
0.00808555
0.119787
0.0960544
0.0786072
0.0656068
0.0554436
0.0476129
0.0414262
0.0364402
0.0322383
0.028769
0.0257597
0.0232629
0.0210272
0.0191848
0.017468
0.0160856
0.0147245
0.0136795
0.0125645
0.0117781
0.0108321
0.0102525
0.0094244
0.00898525
0.00816958
0.119787
0.0960542
0.0786074
0.0656065
0.0554438
0.0476125
0.0414262
0.0364401
0.0322384
0.0287689
0.0257598
0.0232628
0.0210273
0.0191847
0.0174681
0.0160854
0.0147246
0.0136793
0.0125647
0.011778
0.0108323
0.0102523
0.00942448
0.00898494
0.00817008
0.119787
0.0960538
0.0786079
0.065606
0.0554445
0.0476118
0.0414262
0.0364397
0.0322385
0.0287685
0.02576
0.0232624
0.0210276
0.0191843
0.0174685
0.0160849
0.0147251
0.0136787
0.0125653
0.0117773
0.0108326
0.0102538
0.00941299
0.00904872
0.0080792
0.119787
0.0960537
0.078608
0.0656058
0.0554446
0.0476116
0.0414262
0.0364396
0.0322386
0.0287684
0.0257601
0.0232623
0.0210277
0.0191841
0.0174686
0.0160848
0.0147253
0.0136785
0.0125656
0.011777
0.010833
0.0102534
0.00941338
0.00904899
0.0080769
0.119787
0.0960539
0.0786078
0.0656061
0.0554444
0.0476119
0.0414262
0.0364398
0.0322385
0.0287686
0.02576
0.0232625
0.0210276
0.0191844
0.0174684
0.0160851
0.014725
0.0136789
0.0125651
0.0117775
0.0108324
0.0102541
0.00941277
0.00904854
0.00808073
0.119787
0.0960544
0.0786073
0.0656067
0.0554436
0.0476128
0.0414262
0.0364402
0.0322383
0.028769
0.0257597
0.0232629
0.0210272
0.0191848
0.0174679
0.0160856
0.0147244
0.0136795
0.0125645
0.0117782
0.0108321
0.0102525
0.00942433
0.00898566
0.00816888
0.119787
0.0960541
0.0786076
0.0656064
0.055444
0.0476123
0.0414262
0.03644
0.0322384
0.0287688
0.0257598
0.0232628
0.0210273
0.0191847
0.017468
0.0160855
0.0147245
0.0136795
0.0125645
0.0117783
0.0108315
0.010255
0.00941218
0.0090479
0.00808456
0.119787
0.0960538
0.0786079
0.065606
0.0554444
0.0476118
0.0414262
0.0364398
0.0322385
0.0287686
0.02576
0.0232625
0.0210276
0.0191843
0.0174684
0.016085
0.014725
0.0136788
0.0125652
0.0117773
0.010833
0.0102514
0.00942604
0.00898247
0.00817109
0.119787
0.0960538
0.0786078
0.065606
0.0554444
0.0476119
0.0414262
0.0364398
0.0322385
0.0287686
0.02576
0.0232625
0.0210276
0.0191844
0.0174684
0.0160851
0.014725
0.0136789
0.0125651
0.0117774
0.0108329
0.0102516
0.00942565
0.00898301
0.00817072
0.119787
0.0960543
0.0786073
0.0656067
0.0554437
0.0476128
0.0414262
0.0364402
0.0322384
0.028769
0.0257597
0.0232629
0.0210272
0.0191848
0.017468
0.0160855
0.0147245
0.0136794
0.0125646
0.0117782
0.0108317
0.0102547
0.00941236
0.00904808
0.0080831
0.119787
0.0960543
0.0786074
0.0656066
0.0554438
0.0476126
0.0414262
0.0364401
0.0322384
0.0287689
0.0257598
0.0232628
0.0210273
0.0191847
0.017468
0.0160855
0.0147246
0.0136794
0.0125646
0.011778
0.0108322
0.0102524
0.0094244
0.00898531
0.00816948
0.119787
0.0960543
0.0786074
0.0656066
0.0554438
0.0476126
0.0414262
0.0364401
0.0322384
0.0287689
0.0257598
0.0232628
0.0210273
0.0191847
0.0174681
0.0160854
0.0147246
0.0136793
0.0125647
0.011778
0.0108323
0.0102523
0.00942452
0.00898484
0.00817018
0.119787
0.0960539
0.0786078
0.0656061
0.0554443
0.047612
0.0414262
0.0364398
0.0322385
0.0287686
0.02576
0.0232625
0.0210275
0.0191844
0.0174683
0.0160851
0.0147249
0.013679
0.012565
0.0117777
0.0108322
0.0102543
0.00941259
0.00904846
0.00808155
0.119787
0.0960541
0.0786076
0.0656063
0.0554441
0.0476123
0.0414261
0.0364399
0.0322383
0.0287687
0.0257597
0.0232627
0.0210272
0.0191847
0.0174679
0.0160855
0.0147244
0.0136795
0.0125644
0.0117783
0.0108319
0.0102529
0.00942381
0.00898683
0.0081677
0.119787
0.0960536
0.0786081
0.0656056
0.0554448
0.0476114
0.0414188
0.0364342
0.0322342
0.0287653
0.0257575
0.0232606
0.0210262
0.0191832
0.0174677
0.0160844
0.0147247
0.0136785
0.0125652
0.0117773
0.0108327
0.0102539
0.00941314
0.00904894
0.00807921
0.119787
0.0960538
0.0786067
0.0656048
0.055442
0.0476099
0.0414213
0.0364355
0.0322342
0.0287648
0.0257561
0.0232591
0.021024
0.0191814
0.0174651
0.0160824
0.0147219
0.0136765
0.0125623
0.0117753
0.0108302
0.0102497
0.00942309
0.00898178
0.00816877
0.119787
0.0960539
0.0786066
0.0656049
0.0554419
0.04761
0.0414234
0.0364371
0.0322354
0.0287658
0.0257567
0.0232597
0.0210243
0.0191818
0.0174651
0.0160827
0.0147218
0.0136769
0.012562
0.0117758
0.0108296
0.0102505
0.00942171
0.00898428
0.00816633
0.119787
0.0960537
0.0786068
0.0656046
0.0554422
0.0476096
0.0414235
0.036437
0.0322355
0.0287656
0.0257569
0.0232595
0.0210245
0.0191815
0.0174655
0.0160823
0.0147223
0.0136763
0.0125626
0.0117751
0.01083
0.0102519
0.0094106
0.00904642
0.00807872
0.119787
0.0960537
0.0786068
0.0656046
0.0554422
0.0476096
0.0414236
0.036437
0.0322356
0.0287656
0.025757
0.0232594
0.0210246
0.0191814
0.0174657
0.0160821
0.0147225
0.013676
0.0125629
0.0117746
0.010831
0.0102486
0.00942449
0.00897886
0.00817089
0.119787
0.0960536
0.0786069
0.0656045
0.0554423
0.0476095
0.0414235
0.0364369
0.0322356
0.0287656
0.025757
0.0232594
0.0210246
0.0191814
0.0174656
0.0160822
0.0147224
0.0136761
0.0125628
0.0117748
0.0108308
0.0102489
0.00942403
0.00897978
0.00816992
0.119787
0.0960541
0.0786064
0.0656052
0.0554415
0.0476104
0.0414235
0.0364374
0.0322354
0.028766
0.0257567
0.0232599
0.0210242
0.0191819
0.0174651
0.0160828
0.0147218
0.0136769
0.012562
0.0117758
0.0108293
0.0102526
0.00940998
0.00904585
0.00808211
0.119787
0.096054
0.0786064
0.0656051
0.0554417
0.0476103
0.0414235
0.0364373
0.0322354
0.0287659
0.0257567
0.0232598
0.0210243
0.0191818
0.0174652
0.0160827
0.0147218
0.0136768
0.0125621
0.0117756
0.0108298
0.0102502
0.00942222
0.00898319
0.00816747
0.119787
0.0960537
0.0786068
0.0656047
0.0554422
0.0476096
0.0414235
0.036437
0.0322355
0.0287656
0.0257569
0.0232595
0.0210245
0.0191815
0.0174655
0.0160823
0.0147223
0.0136763
0.0125626
0.011775
0.0108305
0.0102493
0.00942345
0.0089809
0.00816873
0.119787
0.0960535
0.078607
0.0656045
0.0554424
0.0476094
0.0414235
0.0364369
0.0322356
0.0287655
0.025757
0.0232594
0.0210247
0.0191813
0.0174656
0.0160822
0.0147224
0.0136761
0.0125628
0.0117749
0.0108303
0.0102516
0.00941081
0.00904658
0.00807729
0.119787
0.0960537
0.0786068
0.0656047
0.0554422
0.0476097
0.0414236
0.036437
0.0322356
0.0287656
0.025757
0.0232595
0.0210246
0.0191814
0.0174656
0.0160822
0.0147224
0.0136761
0.0125629
0.0117747
0.0108309
0.0102488
0.00942436
0.00897936
0.00817014
0.119787
0.0960536
0.0786069
0.0656046
0.0554423
0.0476095
0.0414236
0.0364369
0.0322356
0.0287655
0.025757
0.0232594
0.0210247
0.0191813
0.0174657
0.0160821
0.0147226
0.0136759
0.0125631
0.0117745
0.0108312
0.0102485
0.00942463
0.00897837
0.00817159
0.119787
0.0960536
0.0786069
0.0656045
0.0554424
0.0476094
0.0414235
0.0364369
0.0322356
0.0287656
0.025757
0.0232595
0.0210246
0.0191814
0.0174655
0.0160823
0.0147223
0.0136763
0.0125626
0.011775
0.0108305
0.0102493
0.00942349
0.00898084
0.00816881
0.119787
0.0960534
0.078607
0.0656044
0.0554425
0.0476093
0.0414236
0.0364368
0.0322356
0.0287655
0.025757
0.0232594
0.0210247
0.0191813
0.0174657
0.0160821
0.0147225
0.013676
0.0125629
0.0117748
0.0108304
0.0102515
0.00941081
0.00904665
0.00807689
0.119787
0.0960534
0.0786071
0.0656043
0.0554426
0.0476092
0.0414236
0.0364368
0.0322356
0.0287654
0.0257571
0.0232593
0.0210247
0.0191812
0.0174657
0.016082
0.0147226
0.0136759
0.012563
0.0117747
0.0108306
0.0102513
0.00941101
0.00904675
0.00807594
0.119787
0.0960536
0.0786069
0.0656045
0.0554424
0.0476094
0.0414236
0.0364369
0.0322356
0.0287655
0.025757
0.0232594
0.0210247
0.0191813
0.0174657
0.0160821
0.0147225
0.0136761
0.0125629
0.0117748
0.0108304
0.0102514
0.00941099
0.00904668
0.00807633
0.119787
0.0960536
0.0786069
0.0656046
0.0554423
0.0476095
0.0414235
0.036437
0.0322356
0.0287656
0.025757
0.0232595
0.0210246
0.0191814
0.0174655
0.0160823
0.0147223
0.0136763
0.0125626
0.0117751
0.01083
0.0102518
0.00941061
0.00904642
0.00807863
0.119787
0.0960536
0.0786068
0.0656046
0.0554422
0.0476096
0.0414235
0.036437
0.0322355
0.0287656
0.025757
0.0232595
0.0210246
0.0191814
0.0174656
0.0160822
0.0147224
0.0136762
0.0125628
0.0117748
0.0108308
0.010249
0.00942397
0.00897987
0.00816983
0.119787
0.0960537
0.0786068
0.0656046
0.0554422
0.0476096
0.0414235
0.036437
0.0322355
0.0287656
0.0257569
0.0232595
0.0210246
0.0191814
0.0174656
0.0160822
0.0147224
0.0136762
0.0125627
0.0117749
0.0108307
0.010249
0.00942397
0.00897988
0.00816984
0.119787
0.0960538
0.0786066
0.0656049