/*--------------------------------*- C++ -*----------------------------------*\
  =========                 |
  \\      /  F ield         | OpenFOAM: The Open Source CFD Toolbox
   \\    /   O peration     | Website:  https://openfoam.org
    \\  /    A nd           | Version:  12
     \\/     M anipulation  |
\*---------------------------------------------------------------------------*/
FoamFile
{
    format      ascii;
    class       volScalarField;
    location    "200";
    object      k;
}
// * * * * * * * * * * * * * * * * * * * * * * * * * * * * * * * * * * * * * //

dimensions      [0 2 -2 0 0 0 0];

internalField   nonuniform List<scalar> 
5000
(
1.44054
1.33516
1.24718
1.17222
1.10788
1.05197
1.00404
0.95415
0.917529
0.860583
0.837942
0.791023
0.772478
0.731885
0.715992
0.681174
0.66435
0.644423
0.61456
0.599619
0.574535
0.562586
0.541116
0.53138
0.512821
1.44057
1.33509
1.24732
1.17198
1.1082
1.05167
1.00376
0.958056
0.927103
0.868518
0.845791
0.798617
0.77997
0.738375
0.722466
0.690266
0.655941
0.639888
0.611461
0.597916
0.573522
0.562245
0.541188
0.531959
0.519888
1.44057
1.3351
1.24726
1.17209
1.10808
1.05165
1.00413
0.957966
0.918321
0.876714
0.824273
0.802042
0.759035
0.740889
0.703682
0.688177
0.655667
0.64055
0.623703
0.596152
0.582322
0.558983
0.547743
0.527574
0.516103
1.44054
1.33514
1.24727
1.17202
1.10821
1.05171
1.00336
0.959733
0.922035
0.885487
0.853529
0.815707
0.783886
0.743697
0.703718
0.68524
0.652803
0.638115
0.610476
0.598054
0.574035
0.563469
0.552
0.531036
0.51936
1.44038
1.33543
1.2469
1.17257
1.10743
1.05274
1.00227
0.960058
0.923647
0.878355
0.825474
0.802847
0.75956
0.740932
0.703782
0.687338
0.665544
0.634096
0.618619
0.592265
0.579926
0.557306
0.547073
0.527344
0.518268
1.44054
1.33515
1.24722
1.17215
1.10794
1.05201
1.00367
0.955481
0.917734
0.861295
0.837918
0.790653
0.771842
0.731537
0.714968
0.680485
0.665759
0.643804
0.614111
0.599438
0.574546
0.562767
0.541397
0.531692
0.513127
1.4404
1.33541
1.24693
1.17255
1.10746
1.05265
1.00258
0.959667
0.922972
0.885953
0.840731
0.790902
0.769993
0.729506
0.712403
0.678146
0.661782
0.642946
0.613515
0.599133
0.574273
0.562639
0.54127
0.531694
0.513152
1.44056
1.33512
1.24728
1.17203
1.10816
1.05167
1.00385
0.957854
0.927334
0.869492
0.846141
0.797661
0.777603
0.736302
0.719888
0.689125
0.655312
0.639161
0.610842
0.597546
0.573262
0.562232
0.541146
0.531947
0.520173
1.44055
1.33514
1.24725
1.17201
1.10825
1.05159
1.00344
0.959923
0.92136
0.88675
0.846113
0.815498
0.773138
0.730782
0.711072
0.676333
0.660598
0.630696
0.617488
0.591582
0.580336
0.567922
0.545694
0.534743
0.51614
1.44057
1.3351
1.24729
1.17206
1.10801
1.05223
1.00182
0.965081
0.902127
0.879073
0.828267
0.807839
0.764358
0.745953
0.707982
0.693785
0.665188
0.633444
0.618471
0.592052
0.579798
0.557191
0.546889
0.527124
0.518008
1.44057
1.3351
1.24732
1.17194
1.10827
1.05168
1.00331
0.959732
0.922258
0.884548
0.85354
0.811202
0.784336
0.743479
0.703379
0.685112
0.652554
0.637579
0.609704
0.597308
0.573214
0.562824
0.551377
0.530504
0.518664
1.44058
1.33509
1.24733
1.17192
1.10832
1.0516
1.00339
0.959747
0.922056
0.885515
0.853534
0.816332
0.784229
0.743247
0.703281
0.684744
0.652282
0.637385
0.609646
0.597358
0.573376
0.563083
0.551667
0.530851
0.518844
1.44055
1.33514
1.24726
1.172
1.10825
1.05162
1.00335
0.960023
0.921455
0.886676
0.844915
0.815634
0.773054
0.730394
0.710325
0.675675
0.660159
0.630445
0.617421
0.591662
0.580424
0.568319
0.546195
0.535083
0.51637
1.44058
1.33509
1.24732
1.17194
1.10828
1.05165
1.00332
0.959875
0.921776
0.886072
0.853184
0.817192
0.784143
0.743789
0.703813
0.685667
0.653341
0.638186
0.610299
0.597881
0.573786
0.563407
0.551899
0.53108
0.519099
1.44059
1.33507
1.2473
1.17207
1.10797
1.05229
1.00174
0.96514
0.902471
0.880186
0.829609
0.811385
0.767833
0.750433
0.711344
0.694831
0.677214
0.64658
0.616243
0.601119
0.575945
0.563802
0.542382
0.532362
0.51376
1.44058
1.33508
1.24731
1.17203
1.10806
1.05214
1.00194
0.965024
0.901805
0.878867
0.827649
0.807204
0.76351
0.745831
0.708081
0.694191
0.666226
0.634543
0.619242
0.592748
0.580146
0.557281
0.546761
0.526953
0.517864
1.44056
1.33513
1.24725
1.17203
1.10824
1.05149
1.00372
0.959686
0.921217
0.883087
0.848025
0.80407
0.75855
0.738398
0.701418
0.68536
0.653441
0.639426
0.611464
0.599062
0.585309
0.561387
0.549572
0.528901
0.517439
1.44057
1.33511
1.24724
1.17215
1.10792
1.05202
1.00371
0.955253
0.917705
0.861399
0.838466
0.791713
0.773506
0.733194
0.718005
0.682995
0.666675
0.646158
0.616201
0.60116
0.576028
0.563752
0.542178
0.532027
0.51334
1.44053
1.33518
1.24714
1.17225
1.10787
1.05193
1.00353
0.959173
0.921376
0.883982
0.838976
0.79017
0.769751
0.729617
0.713108
0.678925
0.664484
0.634057
0.620246
0.60489
0.578984
0.565911
0.54382
0.532683
0.514857
1.44057
1.3351
1.24728
1.17208
1.10798
1.05225
1.00182
0.965149
0.90172
0.878671
0.827106
0.806682
0.762617
0.744263
0.706725
0.692379
0.665289
0.633445
0.618344
0.59187
0.57935
0.556545
0.546071
0.526306
0.517197
1.41302
1.26587
1.14619
1.04823
0.965078
0.895512
0.834619
0.781725
0.73606
0.693731
0.654919
0.629226
0.590566
0.543348
0.526169
0.51035
0.482761
0.461655
0.443745
0.42735
0.41218
0.398151
0.38504
0.372824
0.361397
1.41304
1.26584
1.14629
1.04808
0.965304
0.895264
0.834822
0.781834
0.736324
0.691938
0.659631
0.628281
0.582671
0.545121
0.529951
0.513105
0.476241
0.45748
0.440913
0.425482
0.411005
0.397476
0.384729
0.372816
0.361599
1.41306
1.2658
1.14634
1.04803
0.965343
0.895252
0.834771
0.782079
0.735215
0.695059
0.657875
0.613055
0.59022
0.567366
0.52477
0.499156
0.481189
0.462702
0.444981
0.428416
0.413005
0.398719
0.385431
0.373092
0.361578
1.41299
1.26593
1.1461
1.0484
0.964798
0.895983
0.833833
0.78282
0.734548
0.695271
0.659494
0.606755
0.592673
0.569584
0.526137
0.49795
0.479469
0.460925
0.443744
0.427875
0.41309
0.399386
0.386505
0.374391
0.363002
1.41304
1.26582
1.14631
1.04808
0.96525
0.895436
0.834438
0.782568
0.734849
0.694884
0.659115
0.612585
0.593448
0.566714
0.522089
0.501685
0.483979
0.462536
0.444176
0.427369
0.411943
0.397773
0.384668
0.372543
0.361279
1.41303
1.26586
1.1463
1.04805
0.96534
0.895272
0.834626
0.782444
0.734339
0.696393
0.654967
0.610944
0.596818
0.561826
0.517405
0.499797
0.483804
0.462659
0.442461
0.425867
0.410624
0.396643
0.383681
0.371703
0.360526
1.41299
1.26592
1.14623
1.04815
0.965234
0.895353
0.834666
0.782084
0.735154
0.695637
0.655517
0.615998
0.598416
0.56201
0.517975
0.499011
0.481955
0.461764
0.442749
0.426306
0.411178
0.397267
0.384333
0.372335
0.361142
1.41302
1.26587
1.14622
1.04822
0.965049
0.895704
0.834113
0.782785
0.73436
0.696192
0.657038
0.605761
0.596755
0.561998
0.517756
0.500529
0.483605
0.460457
0.441564
0.425115
0.410062
0.396266
0.383461
0.371635
0.360547
1.413
1.26592
1.14611
1.04838
0.964846
0.89588
0.834033
0.782696
0.734373
0.696952
0.652811
0.617155
0.600623
0.564493
0.522438
0.499124
0.479899
0.460927
0.443725
0.427754
0.412927
0.399103
0.386093
0.37392
0.362443
1.41302
1.26588
1.14624
1.04815
0.96519
0.895473
0.834341
0.782895
0.733468
0.697593
0.654076
0.615149
0.598986
0.557354
0.518969
0.504664
0.488017
0.457469
0.440318
0.424516
0.409908
0.396383
0.383768
0.372001
0.360982
1.41308
1.26576
1.14635
1.04805
0.965227
0.895567
0.834075
0.783313
0.733442
0.697814
0.652409
0.620162
0.599393
0.55631
0.51711
0.506254
0.482808
0.457504
0.440228
0.424493
0.409956
0.39654
0.383938
0.372094
0.360906
1.4131
1.26574
1.14636
1.04804
0.965221
0.895579
0.834056
0.783315
0.733477
0.697832
0.652009
0.621103
0.59963
0.555963
0.517796
0.507376
0.482137
0.456855
0.439731
0.424138
0.409726
0.39641
0.383886
0.37208
0.360941
1.41303
1.26587
1.14616
1.04833
0.964867
0.895925
0.833882
0.782843
0.734348
0.696939
0.651437
0.622277
0.600533
0.557281
0.518799
0.506363
0.481632
0.457131
0.440553
0.42527
0.411078
0.39778
0.385172
0.37327
0.361996
1.41309
1.26575
1.14635
1.04806
0.965204
0.895593
0.834054
0.783291
0.733503
0.697888
0.651749
0.62096
0.599623
0.556359
0.51697
0.505551
0.482334
0.458047
0.440731
0.424959
0.410387
0.396939
0.384313
0.372435
0.361247
1.41308
1.26576
1.14636
1.04801
0.965336
0.895292
0.83462
0.782485
0.734231
0.69789
0.648984
0.621446
0.599378
0.555101
0.517906
0.502072
0.485868
0.463159
0.443878
0.427053
0.411612
0.397462
0.384347
0.372228
0.36092
1.41302
1.26587
1.14627
1.0481
0.965284
0.895323
0.834572
0.782581
0.73383
0.697625
0.65181
0.620504
0.599391
0.555564
0.521177
0.506292
0.488976
0.458636
0.441357
0.425427
0.410693
0.397049
0.384331
0.372474
0.361421
1.41306
1.2658
1.1463
1.04812
0.965153
0.895569
0.834354
0.782362
0.735397
0.694462
0.656631
0.628184
0.586364
0.545653
0.534039
0.504881
0.474609
0.457591
0.441532
0.426421
0.412046
0.39841
0.385474
0.373275
0.361783
1.41304
1.26585
1.14616
1.04834
0.964845
0.895867
0.834247
0.781694
0.73684
0.691982
0.657476
0.629187
0.586269
0.540977
0.527884
0.507748
0.480204
0.461478
0.444146
0.428072
0.413021
0.398974
0.385759
0.373414
0.361818
1.41301
1.2659
1.14613
1.04834
0.964944
0.895618
0.834653
0.781519
0.736171
0.694743
0.652909
0.62956
0.593544
0.546111
0.525121
0.507195
0.480545
0.46042
0.443085
0.427182
0.412355
0.398523
0.385485
0.373259
0.361764
1.413
1.2659
1.14625
1.04812
0.965291
0.89524
0.834898
0.781707
0.736033
0.694385
0.650427
0.629761
0.593255
0.548813
0.520533
0.505917
0.484709
0.457395
0.440224
0.424432
0.409823
0.396272
0.383612
0.371792
0.360721
1.41297
1.26526
1.14468
1.04573
0.961469
0.890937
0.828567
0.77534
0.726926
0.685453
0.646632
0.613934
0.581725
0.55501
0.52812
0.506535
0.483044
0.465193
0.444476
0.430047
0.411359
0.399867
0.382673
0.372893
0.355076
1.41297
1.26526
1.14469
1.04572
0.961484
0.890927
0.828564
0.775369
0.726881
0.685444
0.646709
0.613873
0.581591
0.555057
0.528217
0.506618
0.483026
0.465177
0.444449
0.430043
0.411334
0.399866
0.382623
0.372923
0.355018
1.41297
1.26525
1.14469
1.04572
0.961483
0.89093
0.828563
0.775361
0.726868
0.685555
0.646586
0.613659
0.581823
0.555314
0.527982
0.506348
0.483071
0.465342
0.444578
0.430139
0.411355
0.399935
0.382334
0.374534
0.352806
1.41297
1.26527
1.14467
1.04575
0.961436
0.890984
0.828506
0.775392
0.726835
0.685565
0.646588
0.61363
0.581876
0.55535
0.528047
0.50636
0.482959
0.46525
0.444571
0.430229
0.411497
0.400031
0.382752
0.373062
0.355118
1.41297
1.26526
1.14469
1.04572
0.961474
0.890946
0.828535
0.775403
0.726822
0.685568
0.646588
0.613657
0.581859
0.555314
0.527962
0.506419
0.483032
0.465281
0.444448
0.430094
0.411275
0.399944
0.382302
0.374516
0.352956
1.41297
1.26526
1.14469
1.04572
0.961482
0.890928
0.828561
0.775371
0.726844
0.685574
0.646496
0.613739
0.581881
0.555219
0.527914
0.506462
0.48316
0.465381
0.444486
0.430081
0.411253
0.39992
0.382312
0.374536
0.352939
1.41297
1.26527
1.14468
1.04573
0.96148
0.890929
0.828568
0.775353
0.726874
0.685535
0.646529
0.613773
0.581908
0.555215
0.527916
0.506421
0.483122
0.465335
0.444511
0.43009
0.41132
0.399888
0.382652
0.373008
0.355041
1.41297
1.26526
1.14468
1.04573
0.961464
0.890955
0.828534
0.775382
0.726858
0.685551
0.646558
0.613669
0.581893
0.5552
0.527922
0.506408
0.483055
0.465224
0.444436
0.430013
0.411264
0.399857
0.382285
0.37451
0.352774
1.41297
1.26526
1.14467
1.04575
0.961442
0.890976
0.828522
0.775379
0.72685
0.685571
0.646516
0.613743
0.581971
0.555277
0.528003
0.506327
0.482907
0.46518
0.444503
0.430131
0.411398
0.399975
0.382374
0.374569
0.352816
1.41297
1.26526
1.14468
1.04573
0.961477
0.890934
0.828557
0.775376
0.726828
0.685587
0.646524
0.613736
0.581896
0.555114
0.527992
0.506562
0.483205
0.465291
0.444504
0.43008
0.411356
0.399945
0.382384
0.3746
0.352785
1.41298
1.26525
1.14469
1.04572
0.961476
0.890947
0.828529
0.77542
0.726798
0.685602
0.646519
0.613841
0.581879
0.555092
0.52796
0.506508
0.482991
0.465201
0.444434
0.430106
0.411308
0.39994
0.382274
0.374473
0.352879
1.41298
1.26525
1.1447
1.04572
0.961479
0.890943
0.828535
0.775411
0.726811
0.685589
0.646536
0.613841
0.581903
0.555069
0.527983
0.506488
0.482993
0.465152
0.444449
0.430062
0.411351
0.399841
0.382604
0.372867
0.354987
1.41297
1.26526
1.14468
1.04574
0.961448
0.890972
0.828522
0.775376
0.726869
0.685534
0.64653
0.613835
0.58194
0.555091
0.527993
0.506463
0.482989
0.465198
0.444537
0.430158
0.411457
0.399937
0.382704
0.372956
0.355104
1.41298
1.26525
1.1447
1.04572
0.961476
0.890946
0.828532
0.775412
0.726814
0.685588
0.64653
0.61384
0.581901
0.555081
0.527968
0.50647
0.482996
0.46518
0.444468
0.430086
0.411362
0.399865
0.38261
0.3729
0.355
1.41298
1.26525
1.14469
1.04572
0.961479
0.890936
0.828552
0.775376
0.726858
0.685565
0.646486
0.613852
0.581885
0.55511
0.52789
0.506515
0.483142
0.465362
0.444466
0.430087
0.411237
0.399902
0.38226
0.374481
0.352963
1.41297
1.26527
1.14468
1.04573
0.961474
0.890937
0.828555
0.775375
0.726832
0.685578
0.646498
0.613813
0.581865
0.55513
0.527993
0.506645
0.483224
0.465384
0.444498
0.430156
0.411335
0.399981
0.38264
0.373172
0.355002
1.41297
1.26525
1.14469
1.04572
0.961471
0.890952
0.828532
0.775391
0.726863
0.685493
0.646645
0.613888
0.581618
0.555071
0.528175
0.50638
0.482918
0.465252
0.44459
0.430182
0.411417
0.399952
0.382358
0.374556
0.352781
1.41297
1.26526
1.14467
1.04575
0.961435
0.89099
0.828503
0.775374
0.726912
0.685422
0.646661
0.613944
0.581626
0.555008
0.528128
0.50646
0.482967
0.465245
0.444525
0.430143
0.411366
0.399955
0.382328
0.374517
0.352798
1.41297
1.26526
1.14467
1.04575
0.961444
0.890966
0.828545
0.775335
0.726916
0.685478
0.646546
0.613972
0.58176
0.555006
0.528038
0.506432
0.48291
0.465222
0.44449
0.430155
0.411348
0.399922
0.382561
0.373047
0.354902
1.41297
1.26527
1.14468
1.04572
0.961482
0.890924
0.828574
0.775362
0.726934
0.685463
0.646611
0.613961
0.581814
0.55503
0.528028
0.506593
0.483158
0.465255
0.444471
0.430046
0.411318
0.399915
0.38235
0.374571
0.352772
1.41296
1.26526
1.14463
1.04569
0.961331
0.890837
0.8283
0.775166
0.726486
0.685174
0.646101
0.613298
0.581094
0.554649
0.527475
0.505963
0.482502
0.464945
0.444225
0.429974
0.411248
0.399841
0.382659
0.372884
0.355121
1.41296
1.26527
1.14463
1.04569
0.961326
0.890844
0.828291
0.77517
0.72647
0.685175
0.646083
0.613298
0.581069
0.554652
0.527452
0.50597
0.482475
0.464954
0.444195
0.429986
0.411214
0.399859
0.382604
0.372946
0.35504
1.41296
1.26527
1.14463
1.04569
0.961326
0.890844
0.828291
0.775168
0.726471
0.685176
0.646079
0.613295
0.581074
0.554653
0.527445
0.505963
0.482473
0.464959
0.444197
0.429994
0.411201
0.399915
0.382303
0.374558
0.352824
1.41296
1.26527
1.14462
1.0457
0.961324
0.890846
0.82829
0.775168
0.726472
0.685175
0.646081
0.613292
0.581077
0.554651
0.527451
0.505961
0.482473
0.464949
0.444202
0.429989
0.411226
0.399859
0.38262
0.372942
0.355049
1.41296
1.26527
1.14462
1.0457
0.96132
0.890852
0.828281
0.775178
0.726459
0.685187
0.646065
0.613307
0.581057
0.554669
0.527426
0.505985
0.482447
0.46498
0.444164
0.430018
0.411174
0.3999
0.382538
0.373073
0.354932
1.41296
1.26527
1.14462
1.0457
0.961324
0.890847
0.828288
0.775171
0.726467
0.685178
0.646075
0.613299
0.58107
0.554653
0.527442
0.505967
0.482475
0.464959
0.444196
0.429987
0.411202
0.399907
0.382308
0.374565
0.352782
1.41296
1.26527
1.14462
1.0457
0.961325
0.890845
0.82829
0.77517
0.726469
0.685177
0.646077
0.613299
0.581071
0.554653
0.527442
0.505967
0.482473
0.464961
0.444193
0.429993
0.411198
0.399916
0.382305
0.374561
0.352828
1.41296
1.26527
1.14463
1.04569
0.961327
0.890843
0.828293
0.775166
0.726475
0.685172
0.646084
0.613292
0.581079
0.554646
0.527452
0.505958
0.48248
0.464946
0.444204
0.429975
0.411223
0.399839
0.382625
0.372914
0.355056
1.41296
1.26527
1.14463
1.04569
0.961326
0.890843
0.828293
0.775165
0.726475
0.685173
0.646083
0.613292
0.58108
0.554649
0.527453
0.505957
0.482474
0.464945
0.444201
0.429983
0.411223
0.399851
0.382616
0.372934
0.355047
1.41296
1.26527
1.14463
1.04569
0.961327
0.890843
0.828293
0.775167
0.726473
0.685173
0.646082
0.613294
0.581076
0.554647
0.52745
0.505964
0.48248
0.464952
0.444202
0.429987
0.411211
0.399911
0.382313
0.374567
0.35279
1.41296
1.26527
1.14462
1.0457
0.961321
0.890852
0.828282
0.775178
0.726458
0.685187
0.646066
0.613311
0.581057
0.554665
0.527428
0.505985
0.482446
0.464975
0.444166
0.43002
0.411173
0.399944
0.382284
0.374535
0.352942
1.41296
1.26527
1.14463
1.0457
0.961326
0.890845
0.82829
0.77517
0.726469
0.685177
0.646079
0.613299
0.581073
0.554649
0.527447
0.505964
0.48247
0.464948
0.444197
0.429986
0.41122
0.399851
0.382613
0.372926
0.355049
1.41296
1.26527
1.14463
1.04569
0.961327
0.890843
0.828293
0.775165
0.726475
0.685172
0.646084
0.613294
0.58108
0.554644
0.527453
0.505958
0.482477
0.464944
0.444206
0.429984
0.41123
0.399852
0.382622
0.372923
0.355071
1.41296
1.26527
1.14463
1.04569
0.961327
0.890843
0.828293
0.775167
0.726473
0.685174
0.646083
0.613295
0.581078
0.554645
0.527453
0.505959
0.482476
0.464944
0.444203
0.429981
0.411226
0.399848
0.382617
0.372918
0.355063
1.41296
1.26527
1.14462
1.0457
0.961324
0.890848
0.828287
0.775172
0.726467
0.685179
0.646074
0.613303
0.581068
0.554654
0.527439
0.505972
0.48247
0.464963
0.44419
0.429991
0.411205
0.399856
0.382596
0.372954
0.35502
1.41296
1.26527
1.14462
1.0457
0.961324
0.890847
0.828288
0.775172
0.726467
0.685178
0.646075
0.6133
0.581068
0.554653
0.527442
0.505972
0.482474
0.464961
0.444195
0.429993
0.411204
0.399917
0.382308
0.374566
0.352816
1.41296
1.26527
1.14462
1.0457
0.961324
0.890847
0.828287
0.775172
0.726467
0.685178
0.646078
0.6133
0.581065
0.554654
0.527446
0.505965
0.482466
0.464958
0.444198
0.429997
0.411206
0.399913
0.382308
0.374562
0.35279
1.41296
1.26527
1.14462
1.0457
0.961322
0.89085
0.828285
0.775173
0.726467
0.685178
0.646077
0.613304
0.581063
0.554658
0.527441
0.505974
0.482459
0.464966
0.44418
0.430006
0.411193
0.399883
0.382567
0.373033
0.354967
1.41296
1.26527
1.14462
1.0457
0.961324
0.890846
0.82829
0.775168
0.726472
0.685175
0.646081
0.613301
0.581074
0.554651
0.527452
0.505965
0.482474
0.464952
0.444204
0.429988
0.411225
0.399854
0.382619
0.372926
0.355067
1.41296
1.26527
1.14463
1.04569
0.961326
0.890844
0.828291
0.775189
0.726485
0.685206
0.646102
0.61334
0.581094
0.554695
0.52747
0.50602
0.482495
0.465011
0.444209
0.430048
0.411211
0.399973
0.382322
0.374577
0.352963
1.41296
1.26527
1.14461
1.04567
0.961289
0.890802
0.828236
0.775115
0.726408
0.685112
0.646011
0.613222
0.580995
0.554568
0.527366
0.505871
0.482386
0.464854
0.444115
0.429888
0.411142
0.399757
0.382551
0.372825
0.35501
1.41296
1.26527
1.14461
1.04568
0.96128
0.890813
0.828223
0.775122
0.726387
0.685119
0.645984
0.613231
0.580962
0.554581
0.527327
0.50589
0.48234
0.464881
0.44406
0.429927
0.411068
0.399861
0.382186
0.374446
0.352927
1.41296
1.26527
1.14461
1.04568
0.961286
0.890806
0.828232
0.775114
0.726398
0.685108
0.645998
0.613217
0.580979
0.554562
0.527348
0.505866
0.482366
0.464851
0.444093
0.429888
0.411118
0.39976
0.382521
0.37286
0.354948
1.41296
1.26527
1.14461
1.04567
0.961287
0.890803
0.828235
0.775111
0.726402
0.685104
0.646002
0.613212
0.580985
0.554557
0.527355
0.50586
0.482374
0.464844
0.444101
0.429882
0.411117
0.39981
0.38222
0.374478
0.352695
1.41296
1.26527
1.14461
1.04568
0.961283
0.89081
0.828227
0.775119
0.726392
0.685114
0.64599
0.613225
0.580969
0.554572
0.527335
0.505879
0.48235
0.464868
0.444072
0.429912
0.411081
0.399843
0.382198
0.374453
0.352848
1.41296
1.26527
1.14461
1.04568
0.96128
0.890813
0.828223
0.775122
0.726387
0.685118
0.645985
0.613229
0.580963
0.554578
0.527329
0.505885
0.482343
0.464875
0.444065
0.429917
0.411082
0.399801
0.38246
0.372974
0.354861
1.41296
1.26527
1.14461
1.04568
0.961282
0.89081
0.828227
0.775119
0.726392
0.685114
0.64599
0.613224
0.58097
0.554571
0.527336
0.505878
0.482352
0.464866
0.444075
0.429907
0.411095
0.399788
0.382477
0.372937
0.354905
1.41296
1.26527
1.14461
1.04567
0.961288
0.890803
0.828235
0.775111
0.726402
0.685104
0.646003
0.613212
0.580985
0.554557
0.527354
0.50586
0.482374
0.464844
0.444101
0.42988
0.411127
0.399753
0.382528
0.372835
0.354986
1.41296
1.26526
1.14461
1.04567
0.961289
0.890801
0.828238
0.775108
0.726405
0.685101
0.646006
0.613209
0.580989
0.554553
0.527359
0.505856
0.482379
0.464838
0.444108
0.429873
0.411136
0.399742
0.382545
0.372804
0.355019
1.41296
1.26527
1.14461
1.04567
0.961287
0.890804
0.828234
0.775112
0.726401
0.685105
0.646001
0.613214
0.580983
0.554559
0.527352
0.505863
0.482371
0.464847
0.444098
0.429884
0.411123
0.399757
0.382524
0.372851
0.354963
1.41296
1.26527
1.14461
1.04568
0.961281
0.890812
0.828224
0.775122
0.726388
0.685118
0.645985
0.613229
0.580963
0.554578
0.527328
0.505887
0.482342
0.464877
0.444062
0.429921
0.411079
0.399808
0.382449
0.372989
0.354851
1.41296
1.26527
1.14461
1.04568
0.961284
0.890808
0.828229
0.775117
0.726394
0.685112
0.645993
0.613222
0.580972
0.554569
0.527339
0.505876
0.482354
0.464864
0.444076
0.429908
0.411086
0.39984
0.382199
0.374455
0.352838
1.41296
1.26527
1.14461
1.04567
0.961288
0.890803
0.828235
0.775111
0.726401
0.685105
0.646002
0.613214
0.580983
0.554559
0.527353
0.505862
0.482371
0.464847
0.444098
0.429886
0.411112
0.399814
0.38222
0.374476
0.352709
1.41296
1.26527
1.14461
1.04567
0.961287
0.890804
0.828234
0.775111
0.726401
0.685105
0.646001
0.613214
0.580983
0.554559
0.527352
0.505863
0.482371
0.464847
0.444097
0.429886
0.411112
0.399814
0.382219
0.374475
0.35271
1.41296
1.26527
1.14461
1.04568
0.961281
0.890812
0.828224
0.775121
0.726388
0.685117
0.645985
0.613229
0.580964
0.554578
0.527329
0.505886
0.482342
0.464877
0.444062
0.429922
0.41107
0.399853
0.38219
0.374447
0.352896
1.41296
1.26527
1.14461
1.04568
0.961282
0.89081
0.828226
0.775119
0.726391
0.685114
0.645989
0.613225
0.580968
0.554573
0.527335
0.50588
0.48235
0.464868
0.444073
0.429909
0.411092
0.399791
0.382475
0.372948
0.354889
1.41296
1.26527
1.14461
1.04568
0.961282
0.890811
0.828226
0.77512
0.72639
0.685115
0.645988
0.613226
0.580967
0.554574
0.527333
0.505882
0.482347
0.464871
0.444069
0.429914
0.411087
0.399798
0.382463
0.372965
0.354876
1.41296
1.26527
1.14461
1.04567
0.961287
0.890805
0.828233
0.775112
0.7264
0.685106
0.646001
0.613214
0.580983
0.554559
0.527352
0.505862
0.482371
0.464846
0.444099
0.429882
0.411125
0.399755
0.382526
0.372839
0.354982
1.41296
1.26527
1.14461
1.04568
0.961284
0.890807
0.82823
0.775116
0.726396
0.685112
0.645995
0.613223
0.580976
0.554571
0.527343
0.505879
0.482359
0.464868
0.444082
0.429911
0.4111
0.399796
0.382475
0.372952
0.354908
1.41296
1.26526
1.14461
1.04567
0.961291
0.890799
0.82824
0.775127
0.726422
0.685132
0.646031
0.613247
0.581017
0.554595
0.527389
0.5059
0.482409
0.464885
0.444136
0.42992
0.411161
0.399791
0.382566
0.372874
0.355004
1.41296
1.26527
1.1446
1.04566
0.961266
0.890785
0.828202
0.775092
0.726364
0.685084
0.64596
0.613192
0.580937
0.554538
0.527302
0.505843
0.482316
0.46483
0.444038
0.429871
0.411057
0.399753
0.382438
0.372901
0.354868
1.41296
1.26527
1.1446
1.04567
0.961266
0.890786
0.828201
0.775086
0.726359
0.685075
0.645953
0.613181
0.58093
0.554526
0.527295
0.50583
0.482309
0.464817
0.444032
0.429858
0.411052
0.39974
0.382434
0.372888
0.354865
1.41296
1.26526
1.1446
1.04566
0.961268
0.890783
0.828205
0.775082
0.726364
0.68507
0.645959
0.613174
0.580937
0.554517
0.527304
0.505819
0.48232
0.464803
0.444046
0.42984
0.411069
0.399716
0.382465
0.372817
0.354908
1.41296
1.26526
1.1446
1.04566
0.961268
0.890782
0.828206
0.775082
0.726365
0.685069
0.64596
0.613173
0.580938
0.554516
0.527305
0.505817
0.482322
0.4648
0.444049
0.429838
0.411064
0.399765
0.382172
0.374429
0.352653
1.41296
1.26526
1.1446
1.04566
0.961269
0.890781
0.828207
0.77508
0.726367
0.685067
0.645963
0.61317
0.580942
0.554511
0.52731
0.505812
0.482329
0.464793
0.444057
0.429829
0.411074
0.399754
0.382183
0.374436
0.352592
1.41296
1.26527
1.1446
1.04567
0.961263
0.89079
0.828196
0.775091
0.726353
0.68508
0.645945
0.613188
0.58092
0.554533
0.527283
0.50584
0.482295
0.464829
0.444015
0.429874
0.411023
0.399805
0.382143
0.3744
0.352845
1.41296
1.26527
1.1446
1.04567
0.961264
0.890789
0.828198
0.775089
0.726355
0.685078
0.645948
0.613185
0.580923
0.55453
0.527287
0.505836
0.4823
0.464823
0.444021
0.429865
0.411039
0.399749
0.382416
0.372915
0.354834
1.41296
1.26526
1.1446
1.04566
0.961268
0.890783
0.828205
0.775082
0.726364
0.68507
0.645959
0.613174
0.580937
0.554517
0.527303
0.505819
0.48232
0.464803
0.444046
0.429841
0.411059
0.399771
0.382166
0.374425
0.352689
1.41296
1.26526
1.1446
1.04566
0.96127
0.890781
0.828208
0.77508
0.726367
0.685067
0.645963
0.613171
0.580941
0.554513
0.527308
0.505815
0.482325
0.464798
0.444052
0.429834
0.411077
0.399707
0.382479
0.372799
0.354921
1.41296
1.26526
1.1446
1.04566
0.961268
0.890783
0.828205
0.775082
0.726364
0.68507
0.645958
0.613175
0.580936
0.554517
0.527303
0.505819
0.48232
0.464803
0.444046
0.429841
0.41106
0.39977
0.382166
0.374426
0.352683
1.41296
1.26526
1.1446
1.04566
0.961269
0.890782
0.828207
0.775081
0.726366
0.685067
0.645962
0.613171
0.58094
0.554513
0.527308
0.505813
0.482327
0.464795
0.444054
0.429831
0.411071
0.399757
0.382178
0.374434
0.352613
1.41296
1.26526
1.1446
1.04566
0.96127
0.890781
0.828207
0.77508
0.726367
0.685067
0.645962
0.613171
0.580941
0.554513
0.527308
0.505814
0.482326
0.464797
0.444052
0.429835
0.411068
0.399761
0.382177
0.374431
0.352634
1.41296
1.26526
1.1446
1.04566
0.961271
0.890779
0.828209
0.775078
0.726369
0.685065
0.645965
0.613169
0.580943
0.554511
0.527311
0.505812
0.482328
0.464795
0.444056
0.42983
0.411082
0.3997
0.382491
0.372783
0.354931
1.41296
1.26526
1.1446
1.04566
0.961271
0.890779
0.82821
0.775077
0.72637
0.685064
0.645966
0.613168
0.580945
0.554509
0.527313
0.50581
0.482331
0.464792
0.444059
0.429827
0.411085
0.399697
0.382494
0.37277
0.354951
1.41296
1.26526
1.1446
1.04566
0.96127
0.890781
0.828207
0.77508
0.726367
0.685067
0.645963
0.613171
0.580941
0.554512
0.527309
0.505813
0.482328
0.464795
0.444055
0.429829
0.411083
0.399698
0.382492
0.372771
0.354951
1.41296
1.26526
1.1446
1.04566
0.961269
0.890781
0.828207
0.77508
0.726366
0.685067
0.645962
0.613172
0.58094
0.554513
0.527308
0.505815
0.482325
0.464797
0.444052
0.429833
0.411077
0.399706
0.382479
0.37279
0.354936
1.41296
1.26526
1.1446
1.04566
0.961268
0.890782
0.828205
0.775082
0.726364
0.685069
0.645959
0.613174
0.580937
0.554516
0.527304
0.505819
0.482321
0.464802
0.444046
0.429841
0.41106
0.39977
0.382167
0.374425
0.352686
1.41296
1.26526
1.1446
1.04566
0.961268
0.890782
0.828206
0.775082
0.726365
0.685069
0.64596
0.613174
0.580938
0.554516
0.527305
0.505818
0.482322
0.464801
0.444048
0.429839
0.411063
0.399767
0.382172
0.374429
0.35266
1.41296
1.26527
1.1446
1.04566
0.961266
0.890786
0.828201
0.775087
0.726359
0.685076
0.645953
0.613184
0.58093
0.554529
0.527294
0.505835
0.482308
0.464824
0.44403
0.429868
0.411039
0.3998
0.382156
0.374411
0.352807
1.41296
1.26526
1.14461
1.04566
0.961275
0.890774
0.828215
0.775093
0.726391
0.685091
0.645995
0.613201
0.580979
0.554546
0.52735
0.505848
0.482369
0.46483
0.444096
0.429866
0.411112
0.399792
0.382216
0.374472
0.352645
1.41296
1.26526
1.1446
1.04565
0.96126
0.890765
0.828191
0.775064
0.726349
0.685049
0.645943
0.613152
0.580921
0.554493
0.527288
0.505794
0.482305
0.464776
0.444032
0.429813
0.411048
0.399741
0.382154
0.374412
0.352619
1.41296
1.26526
1.1446
1.04566
0.961258
0.890767
0.828188
0.77506
0.726342
0.685043
0.645934
0.613144
0.58091
0.554485
0.527276
0.505786
0.482293
0.464769
0.444019
0.429805
0.411045
0.399678
0.382448
0.372771
0.35489
1.41296
1.26526
1.1446
1.04566
0.961257
0.890769
0.828186
0.775062
0.726339
0.685045
0.64593
0.613146
0.580905
0.554487
0.527271
0.505788
0.482287
0.464771
0.444013
0.42981
0.411028
0.399739
0.382135
0.374395
0.352653
1.41296
1.26527
1.1446
1.04566
0.961252
0.890775
0.828179
0.775069
0.72633
0.685054
0.645918
0.613158
0.58089
0.554502
0.527252
0.505807
0.482264
0.464795
0.443985
0.429838
0.411003
0.399723
0.38238
0.372899
0.35478
1.41296
1.26526
1.1446
1.04566
0.961257
0.890769
0.828187
0.775061
0.72634
0.685044
0.64593
0.613146
0.580905
0.554487
0.52727
0.505789
0.482286
0.464773
0.444011
0.429813
0.411025
0.399742
0.382135
0.374393
0.352667
1.41296
1.26526
1.1446
1.04566
0.961258
0.890768
0.828188
0.77506
0.726342
0.685042
0.645933
0.613143
0.580909
0.554483
0.527275
0.505783
0.482293
0.464765
0.44402
0.4298
0.411048
0.399669
0.382459
0.372751
0.354904
1.41296
1.26526
1.1446
1.04566
0.961258
0.890768
0.828187
0.775061
0.726341
0.685043
0.645932
0.613144
0.580908
0.554484
0.527274
0.505785
0.482291
0.464767
0.444018
0.429802
0.411045
0.399674
0.38245
0.372754
0.354912
1.41296
1.26526
1.1446
1.04566
0.961255
0.890772
0.828183
0.775065
0.726335
0.685049
0.645924
0.613153
0.580897
0.554496
0.527259
0.505801
0.482272
0.464789
0.443992
0.429833
0.411002
0.399765
0.382119
0.374374
0.352777
1.41296
1.26526
1.1446
1.04566
0.961259
0.890767
0.828189
0.775059
0.726343
0.685041
0.645934
0.613142
0.58091
0.554482
0.527277
0.505782
0.482295
0.464763
0.444023
0.429797
0.411051
0.399667
0.382461
0.37274
0.354921
1.41296
1.26527
1.1446
1.04566
0.961252
0.890775
0.828179
0.775069
0.726329
0.685054
0.645917
0.613159
0.580889
0.554503
0.527251
0.505809
0.482262
0.464798
0.443982
0.429841
0.410998
0.399729
0.382369
0.372913
0.354771
1.41296
1.26526
1.1446
1.04566
0.961256
0.89077
0.828185
0.775063
0.726338
0.685045
0.645929
0.613147
0.580904
0.554487
0.52727
0.505788
0.482287
0.464771
0.444014
0.429808
0.41103
0.399735
0.38214
0.374398
0.352624
1.41296
1.26527
1.1446
1.04566
0.961254
0.890772
0.828182
0.775066
0.726334
0.68505
0.645923
0.613153
0.580896
0.554496
0.527259
0.5058
0.482272
0.464788
0.443993
0.429831
0.411004
0.399761
0.382124
0.374377
0.35275
1.41296
1.26526
1.1446
1.04566
0.961258
0.890767
0.828189
0.77506
0.726342
0.685042
0.645933
0.613143
0.580909
0.554484
0.527275
0.505784
0.482291
0.464767
0.444018
0.429803
0.411044
0.399676
0.382447
0.372766
0.354894
1.41296
1.26526
1.1446
1.04565
0.96126
0.890765
0.828191
0.775057
0.726345
0.685039
0.645938
0.613139
0.580914
0.554478
0.527281
0.505777
0.482299
0.464759
0.444028
0.429793
0.411055
0.399664
0.382463
0.372731
0.354937
1.41296
1.26526
1.1446
1.04566
0.961255
0.890771
0.828184
0.775064
0.726336
0.685048
0.645926
0.613151
0.5809
0.554493
0.527263
0.505796