/*--------------------------------*- C++ -*----------------------------------*\
  =========                 |
  \\      /  F ield         | OpenFOAM: The Open Source CFD Toolbox
   \\    /   O peration     | Website:  https://openfoam.org
    \\  /    A nd           | Version:  12
     \\/     M anipulation  |
\*---------------------------------------------------------------------------*/
FoamFile
{
    format      ascii;
    class       volScalarField;
    location    "200";
    object      nut;
}
// * * * * * * * * * * * * * * * * * * * * * * * * * * * * * * * * * * * * * //

dimensions      [0 2 -1 0 0 0 0];

internalField   nonuniform List<scalar> 
5000
(
1.49998
1.5
1.4999
1.5
1.5
1.49882
1.5
1.46571
1.5
1.41324
1.46627
1.35454
1.40513
1.30606
1.35103
1.26487
1.27721
1.29392
1.22116
1.24198
1.17722
1.19896
1.14047
1.16211
1.11098
1.5
1.49997
1.5
1.5
1.49996
1.49975
1.5
1.49414
1.5
1.41091
1.47071
1.35396
1.41019
1.31312
1.3527
1.33663
1.25544
1.28243
1.2123
1.23672
1.1732
1.19652
1.13848
1.13312
1.14397
1.49999
1.5
1.49994
1.5
1.5
1.49912
1.5
1.5
1.5
1.5
1.39117
1.43523
1.33336
1.37655
1.28574
1.32513
1.24428
1.24676
1.26853
1.20202
1.22202
1.16175
1.18226
1.12747
1.13825
1.5
1.49996
1.5
1.49997
1.49992
1.5
1.49967
1.4997
1.5
1.4771
1.46236
1.42326
1.42258
1.39434
1.29968
1.3284
1.24768
1.27713
1.20628
1.23416
1.1706
1.16495
1.18736
1.13286
1.1414
1.49998
1.5
1.49996
1.5
1.4998
1.5
1.5
1.49573
1.5
1.5
1.39203
1.43648
1.33642
1.37728
1.28372
1.30062
1.31449
1.23797
1.26033
1.1926
1.21624
1.15557
1.17891
1.12394
1.12228
1.49999
1.5
1.49992
1.5
1.49987
1.49939
1.5
1.47042
1.5
1.41565
1.46685
1.35547
1.40476
1.30804
1.35027
1.26085
1.28493
1.29317
1.21965
1.24089
1.1764
1.19851
1.14042
1.16221
1.11062
1.49999
1.5
1.49994
1.5
1.49987
1.49977
1.5
1.49731
1.49987
1.49553
1.48037
1.36532
1.40759
1.31091
1.34945
1.26042
1.27078
1.2906
1.21778
1.24015
1.17543
1.1982
1.13979
1.16199
1.11111
1.5
1.49998
1.5
1.5
1.5
1.49959
1.5
1.4942
1.5
1.41452
1.47359
1.36255
1.41162
1.31224
1.34855
1.33612
1.25524
1.28141
1.21062
1.23572
1.17194
1.1964
1.13791
1.13394
1.14167
1.5
1.49999
1.5
1.49989
1.5
1.5
1.49914
1.5
1.49996
1.48872
1.44051
1.44907
1.42067
1.32228
1.35329
1.26853
1.30047
1.22442
1.25499
1.18726
1.1822
1.20503
1.14785
1.16706
1.12382
1.5
1.5
1.49995
1.5
1.4995
1.5
1.49416
1.5
1.42024
1.49908
1.38512
1.43673
1.33479
1.38087
1.2856
1.32224
1.31155
1.23439
1.25937
1.19197
1.21607
1.15602
1.17923
1.12427
1.12311
1.5
1.49996
1.5
1.49997
1.49988
1.5
1.49965
1.49931
1.5
1.47407
1.46912
1.4049
1.42402
1.39426
1.29886
1.32852
1.24846
1.27759
1.20561
1.23385
1.16939
1.16443
1.1867
1.13238
1.14209
1.5
1.49996
1.5
1.49994
1.49992
1.5
1.49946
1.49979
1.5
1.47703
1.46333
1.42435
1.42503
1.3943
1.29975
1.32796
1.24785
1.27675
1.20495
1.23326
1.16904
1.16447
1.18669
1.1333
1.14262
1.5
1.49998
1.5
1.49989
1.5
1.5
1.49915
1.5
1.5
1.49038
1.43609
1.44993
1.42184
1.32334
1.35264
1.26705
1.29923
1.22317
1.25397
1.18696
1.18114
1.20491
1.14889
1.16786
1.12462
1.5
1.49997
1.5
1.49996
1.4999
1.5
1.49935
1.5
1.5
1.4792
1.46083
1.42726
1.42302
1.39451
1.29912
1.32841
1.24984
1.27822
1.20623
1.23436
1.16987
1.16514
1.18695
1.13356
1.14236
1.49999
1.5
1.49991
1.5
1.49945
1.5
1.49416
1.5
1.42296
1.49827
1.37696
1.43609
1.33234
1.384
1.29333
1.28849
1.31769
1.29476
1.22257
1.24318
1.17923
1.19998
1.14279
1.16328
1.11217
1.5
1.5
1.49996
1.5
1.49953
1.5
1.49409
1.5
1.41846
1.49886
1.38429
1.43626
1.33184
1.37988
1.28431
1.32128
1.31277
1.23682
1.26077
1.19416
1.21768
1.1571
1.17951
1.12406
1.12264
1.5
1.5
1.5
1.49987
1.5
1.49993
1.49928
1.5
1.5
1.47746
1.47236
1.44822
1.34201
1.37736
1.28717
1.32358
1.24373
1.27748
1.20705
1.20243
1.22522
1.16558
1.18527
1.13187
1.13787
1.49998
1.5
1.49988
1.5
1.49987
1.49926
1.5
1.46954
1.5
1.41564
1.46649
1.35419
1.40432
1.3027
1.35105
1.26478
1.28083
1.29535
1.22298
1.24356
1.17997
1.20072
1.14324
1.16359
1.11214
1.49996
1.5
1.4999
1.5
1.5
1.49951
1.5
1.5
1.5
1.49448
1.4772
1.36289
1.40517
1.30762
1.34844
1.26298
1.30165
1.22865
1.22499
1.2477
1.18503
1.20438
1.14729
1.16452
1.12427
1.5
1.5
1.49993
1.5
1.49949
1.5
1.49404
1.5
1.41801
1.49939
1.38272
1.43654
1.33424
1.37923
1.28328
1.31803
1.31347
1.2354
1.25999
1.19299
1.21666
1.15615
1.17867
1.12333
1.12208
1.49999
1.5
1.49999
1.49996
1.5
1.49967
1.49316
1.48935
1.47557
1.48293
1.48534
1.5
1.47878
1.36307
1.38457
1.40755
1.35934
1.338
1.32664
1.31732
1.30861
1.30119
1.29383
1.28723
1.28074
1.5
1.49994
1.5
1.49988
1.5
1.49985
1.49535
1.48849
1.47621
1.48824
1.4812
1.5
1.4352
1.36402
1.39498
1.41502
1.31675
1.30878
1.30543
1.30213
1.29794
1.29388
1.28898
1.28402
1.27936
1.5
1.49994
1.5
1.49995
1.5
1.5
1.4947
1.48735
1.48436
1.46395
1.49514
1.44871
1.46252
1.47946
1.37469
1.34498
1.34666
1.33904
1.32928
1.31906
1.30972
1.30081
1.29299
1.28562
1.27902
1.49997
1.5
1.49993
1.5
1.49993
1.5
1.49032
1.48984
1.48272
1.45699
1.5
1.4306
1.46185
1.48909
1.38195
1.34013
1.34078
1.33396
1.32679
1.32042
1.31368
1.30733
1.30128
1.29473
1.28863
1.5
1.49995
1.5
1.5
1.49989
1.5
1.49458
1.48766
1.48374
1.46252
1.5
1.455
1.46958
1.47557
1.36002
1.35735
1.36251
1.33961
1.32674
1.31519
1.30556
1.29698
1.28982
1.28317
1.27736
1.5
1.49991
1.5
1.49988
1.5
1.5
1.49318
1.49005
1.47889
1.46871
1.48066
1.41116
1.5
1.45636
1.33911
1.34819
1.36051
1.33946
1.31527
1.30518
1.29636
1.2894
1.28301
1.27787
1.27285
1.5
1.49992
1.5
1.49986
1.5
1.49995
1.49263
1.48991
1.47908
1.46892
1.4789
1.43822
1.5
1.45988
1.34547
1.34799
1.35444
1.33817
1.32034
1.31068
1.30212
1.29524
1.28873
1.28324
1.27798
1.5
1.49998
1.49999
1.5
1.49988
1.5
1.49148
1.49109
1.4783
1.4691
1.49492
1.40004
1.49379
1.4517
1.33696
1.35007
1.35949
1.32773
1.31136
1.30208
1.29418
1.28808
1.2823
1.27744
1.27297
1.49997
1.5
1.49993
1.5
1.5
1.49991
1.49184
1.48971
1.47951
1.46901
1.48672
1.44703
1.5
1.46345
1.36249
1.34523
1.34259
1.33287
1.32597
1.31868
1.31167
1.30522
1.29829
1.29192
1.28514
1.5
1.49995
1.5
1.49993
1.5
1.5
1.49212
1.49205
1.47367
1.47325
1.5
1.44873
1.5
1.42662
1.33958
1.3669
1.37986
1.30634
1.30051
1.29498
1.2904
1.28594
1.28204
1.27797
1.27393
1.5
1.49998
1.49998
1.5
1.49972
1.5
1.49165
1.49432
1.4715
1.47781
1.5
1.45341
1.5
1.42659
1.33722
1.38549
1.36092
1.31627
1.3082
1.30208
1.29624
1.29113
1.28638
1.28123
1.27621
1.5
1.5
1.49995
1.5
1.49969
1.5
1.49146
1.49454
1.47154
1.47716
1.49721
1.45818
1.5
1.42549
1.34162
1.39286
1.35865
1.31403
1.30663
1.3011
1.29577
1.29105
1.2866
1.28154
1.27675
1.49998
1.5
1.4999
1.5
1.49987
1.5
1.48954
1.4937
1.4738
1.47087
1.49047
1.46653
1.5
1.43915
1.35242
1.39158
1.35947
1.31749
1.3127
1.308
1.3035
1.29921
1.29398
1.2887
1.28294
1.5
1.5
1.49995
1.5
1.49971
1.5
1.49148
1.4945
1.47152
1.47756
1.49681
1.45711
1.5
1.42711
1.33687
1.38218
1.35871
1.3197
1.31136
1.30498
1.29889
1.29354
1.28861
1.2832
1.27818
1.5
1.49997
1.5
1.49998
1.49998
1.5
1.49355
1.49181
1.47452
1.47718
1.49104
1.45942
1.5
1.41639
1.33555
1.35394
1.3669
1.33795
1.32002
1.30935
1.29999
1.29252
1.28562
1.27996
1.27442
1.5
1.49993
1.5
1.49987
1.5
1.5
1.49256
1.49187
1.47312
1.47639
1.4939
1.46287
1.5
1.41933
1.35202
1.37614
1.38521
1.31257
1.30598
1.29977
1.29456
1.28954
1.28517
1.28064
1.27648
1.5
1.49999
1.49997
1.5
1.49986
1.5
1.49368
1.48942
1.47368
1.5
1.46631
1.48259
1.47533
1.38566
1.43461
1.38607
1.31946
1.31779
1.31454
1.31053
1.30578
1.29985
1.29367
1.28697
1.28038
1.49996
1.5
1.49986
1.5
1.49994
1.49964
1.49188
1.48889
1.47723
1.48215
1.48192
1.5
1.45934
1.35176
1.39354
1.39384
1.34479
1.33604
1.3275
1.31983
1.31183
1.30444
1.29664
1.2895
1.28204
1.49997
1.5
1.49994
1.49999
1.5
1.49933
1.49373
1.48713
1.47891
1.47664
1.48612
1.5
1.48633
1.38117
1.38364
1.39501
1.35105
1.33328
1.32358
1.3159
1.30841
1.3017
1.29459
1.28798
1.28123
1.5
1.49991
1.5
1.49982
1.5
1.49972
1.4946
1.48945
1.47849
1.4702
1.45689
1.5
1.49304
1.38961
1.35268
1.37836
1.36562
1.30922
1.30252
1.29655
1.29166
1.28692
1.28271
1.27831
1.27396
1.5
1.5
1.5
1.5
1.5
1.49998
1.49073
1.48391
1.47378
1.46868
1.45896
1.45632
1.44637
1.44326
1.4344
1.43311
1.42279
1.42072
1.41097
1.40938
1.40089
1.39847
1.39413
1.37691
1.3973
1.5
1.49999
1.5
1.49999
1.5
1.5
1.49071
1.48388
1.47365
1.46858
1.45906
1.45618
1.44568
1.44327
1.43465
1.4333
1.42249
1.4204
1.41066
1.40916
1.40065
1.39832
1.39376
1.37715
1.39644
1.5
1.49999
1.5
1.5
1.5
1.5
1.49064
1.48394
1.47366
1.46869
1.45886
1.45527
1.44676
1.4447
1.43366
1.43189
1.42269
1.42119
1.41128
1.4096
1.40063
1.39905
1.38971
1.39904
1.36372
1.5
1.5
1.49999
1.5
1.49999
1.5
1.49036
1.48403
1.47352
1.46852
1.45909
1.45526
1.44688
1.44478
1.43401
1.43217
1.4224
1.42101
1.41146
1.41025
1.40157
1.39924
1.39446
1.37793
1.397
1.5
1.49999
1.5
1.5
1.49999
1.5
1.49059
1.484
1.47352
1.46871
1.45885
1.45524
1.44693
1.44465
1.43356
1.43227
1.42264
1.42095
1.41072
1.40934
1.40034
1.3987
1.39146
1.38895
1.3795
1.5
1.49999
1.5
1.49998
1.5
1.5
1.4906
1.48399
1.4735
1.46872
1.45853
1.4557
1.44714
1.44424
1.43328
1.43239
1.4232
1.42141
1.41089
1.40927
1.40025
1.39861
1.3916
1.38917
1.37941
1.5
1.49999
1.5
1.49999
1.5
1.49999
1.4906
1.48397
1.47353
1.46864
1.45871
1.45571
1.44715
1.44424
1.43338
1.43237
1.42314
1.42136
1.41115
1.40952
1.40074
1.39856
1.39409
1.37785
1.39639
1.5
1.5
1.5
1.5
1.49999
1.5
1.4905
1.48402
1.47355
1.46866
1.45881
1.45539
1.44713
1.4441
1.43327
1.43219
1.42268
1.42065
1.41057
1.40895
1.40015
1.39865
1.38946
1.39897
1.36354
1.5
1.5
1.49999
1.5
1.5
1.49999
1.49047
1.48397
1.47352
1.46871
1.45873
1.45563
1.44732
1.44441
1.43375
1.43196
1.42206
1.42055
1.41102
1.40966
1.40092
1.39932
1.38994
1.39934
1.36364
1.5
1.49999
1.5
1.49999
1.5
1.5
1.49059
1.484
1.47341
1.46883
1.45873
1.4557
1.44714
1.44363
1.43351
1.43288
1.42339
1.42091
1.41084
1.40924
1.40059
1.39909
1.38998
1.39953
1.36332
1.5
1.5
1.5
1.5
1.49998
1.5
1.49053
1.48416
1.47329
1.46896
1.45886
1.45603
1.447
1.44358
1.4336
1.43292
1.4226
1.42063
1.41065
1.40941
1.40048
1.39866
1.39129
1.38869
1.37907
1.5
1.5
1.5
1.5
1.49998
1.5
1.49054
1.48415
1.47333
1.46893
1.45896
1.45605
1.44709
1.44351
1.43372
1.43292
1.42262
1.42046
1.41071
1.40926
1.40067
1.39813
1.39357
1.37669
1.39645
1.5
1.5
1.49999
1.5
1.49999
1.5
1.49042
1.48407
1.47342
1.46872
1.45903
1.45591
1.44712
1.44362
1.43385
1.43289
1.42268
1.42076
1.41123
1.40981
1.40127
1.39866
1.39413
1.37717
1.39717
1.5
1.5
1.5
1.5
1.49998
1.5
1.49053
1.48415
1.47333
1.46892
1.45893
1.45605
1.44708
1.44356
1.43363
1.43279
1.42261
1.42059
1.4108
1.40938
1.40072
1.39826
1.39358
1.3769
1.39649
1.5
1.5
1.5
1.5
1.5
1.5
1.49062
1.48403
1.47349
1.46885
1.4586
1.45622
1.44716
1.44363
1.43307
1.43258
1.42304
1.42123
1.41071
1.40925
1.40008
1.39848
1.39119
1.38874
1.37961
1.5
1.49999
1.5
1.49999
1.5
1.49999
1.49057
1.484
1.47339
1.46883
1.45859
1.456
1.44703
1.44369
1.43356
1.43329
1.42352
1.42138
1.41087
1.40965
1.40057
1.39921
1.39202
1.38841
1.38078
1.5
1.5
1.5
1.5
1.49998
1.5
1.49058
1.48393
1.47363
1.4688
1.45878
1.45601
1.44593
1.44363
1.43483
1.43236
1.42204
1.4208
1.41133
1.40985
1.40091
1.39918
1.38973
1.39938
1.36318
1.49999
1.5
1.49998
1.5
1.49998
1.5
1.49043
1.48389
1.47368
1.46852
1.45896
1.45629
1.44588
1.4432
1.43445
1.43268
1.42233
1.42086
1.41113
1.40978
1.40076
1.3993
1.38963
1.39918
1.36345
1.5
1.5
1.49999
1.5
1.5
1.49996
1.49057
1.48378
1.47366
1.46865
1.45868
1.45635
1.44645
1.44321
1.43409
1.43257
1.42213
1.42069
1.41096
1.40971
1.40074
1.39886
1.39166
1.38757
1.38035
1.5
1.49999
1.5
1.49998
1.5
1.49999
1.49095
1.48417
1.47392
1.46872
1.45915
1.4567
1.44686
1.44332
1.43379
1.43317
1.42324
1.42085
1.4108
1.40922
1.40054
1.39909
1.3899
1.39955
1.36339
1.5
1.5
1.5
1.5
1.5
1.5
1.49043
1.48394
1.4732
1.46846
1.45818
1.45493
1.44489
1.44287
1.43304
1.43198
1.42241
1.42187
1.41284
1.4123
1.40445
1.40268
1.39928
1.38218
1.40458
1.5
1.5
1.5
1.5
1.5
1.5
1.49032
1.48388
1.47309
1.4684
1.45807
1.45488
1.44476
1.44284
1.43292
1.43197
1.42227
1.42187
1.41269
1.41232
1.40428
1.40274
1.39894
1.3827
1.40358
1.5
1.5
1.5
1.5
1.5
1.5
1.49032
1.48387
1.47309
1.4684
1.45805
1.45486
1.44478
1.44284
1.43289
1.43192
1.42227
1.42187
1.41272
1.41233
1.40417
1.40343
1.39488
1.40489
1.37045
1.5
1.5
1.5
1.5
1.5
1.5
1.49031
1.48387
1.47309
1.46839
1.45806
1.45485
1.44479
1.44283
1.43292
1.43191
1.42228
1.42183
1.41276
1.4123
1.40439
1.40268
1.39909
1.3827
1.40325
1.5
1.5
1.5
1.5
1.5
1.5
1.49029
1.48389
1.47305
1.46843
1.458
1.4549
1.44472
1.44289
1.43282
1.432
1.42217
1.42195
1.41259
1.41242
1.40409
1.40319
1.3968
1.39336
1.38718
1.5
1.5
1.5
1.5
1.5
1.5
1.49031
1.48388
1.47307
1.46841
1.45803
1.45488
1.44476
1.44284
1.43287
1.43195
1.42226
1.4219
1.41269
1.41234
1.40412
1.40346
1.39478
1.40525
1.36977
1.5
1.5
1.5
1.5
1.5
1.5
1.49031
1.48388
1.47308
1.4684
1.45804
1.45488
1.44477
1.44284
1.43287
1.43195
1.42226
1.4219
1.41269
1.41236
1.40413
1.40348
1.39483
1.40506
1.37031
1.5
1.5
1.5
1.5
1.5
1.5
1.49033
1.48387
1.4731
1.46839
1.45807
1.45486
1.4448
1.44281
1.43291
1.43191
1.42229
1.42183
1.41274
1.41225
1.40433
1.4026
1.39912
1.38247
1.40361
1.5
1.5
1.5
1.5
1.5
1.5
1.49032
1.48386
1.4731
1.46839
1.45807
1.45486
1.4448
1.44282
1.43292
1.43191
1.42227
1.42182
1.41273
1.41228
1.40434
1.40267
1.39905
1.38262
1.40345
1.5
1.5
1.5
1.5
1.5
1.5
1.49033
1.48387
1.47309
1.46839
1.45806
1.45486
1.44479
1.44281
1.43291
1.43192
1.42231
1.42184
1.41275
1.41229
1.40423
1.4034
1.39494
1.40497
1.37016
1.5
1.5
1.5
1.5
1.5
1.5
1.49029
1.48389
1.47304
1.46843
1.45801
1.45492
1.44472
1.44287
1.43282
1.43201
1.42217
1.42193
1.41259
1.41243
1.40412
1.4032
1.39671
1.39462
1.38621
1.5
1.5
1.5
1.5
1.5
1.5
1.49032
1.48388
1.47308
1.46841
1.45805
1.45488
1.44477
1.44283
1.43289
1.43195
1.42224
1.42185
1.41268
1.41233
1.40429
1.40272
1.39897
1.38253
1.40387
1.5
1.5
1.5
1.5
1.5
1.5
1.49032
1.48386
1.4731
1.46839
1.45807
1.45486
1.4448
1.4428
1.43292
1.43192
1.42228
1.42183
1.41275
1.4123
1.40437
1.40269
1.39905
1.38252
1.40383
1.5
1.5
1.5
1.5
1.5
1.5
1.49033
1.48387
1.47309
1.4684
1.45807
1.45487
1.44479
1.44281
1.43292
1.43192
1.42228
1.42182
1.41273
1.41228
1.40434
1.40267
1.39902
1.38249
1.40378
1.5
1.5
1.5
1.5
1.5
1.5
1.49031
1.48388
1.47307
1.46841
1.45803
1.45489
1.44476
1.44285
1.43285
1.43197
1.42224
1.42191
1.41266
1.41234
1.40423
1.40273
1.39889
1.38276
1.4034
1.5
1.5
1.5
1.5
1.5
1.5
1.49031
1.48388
1.47307
1.46841
1.45803
1.45488
1.44475
1.44284
1.43286
1.43197
1.42226
1.42191
1.41268
1.41238
1.40413
1.40353
1.39476
1.40526
1.37002
1.5
1.5
1.5
1.5
1.5
1.5
1.49031
1.48388
1.47307
1.46841
1.45804
1.45488
1.44474
1.44285
1.43289
1.43195
1.42221
1.4219
1.41268
1.4124
1.40413
1.40351
1.39476
1.40529
1.36972
1.5
1.5
1.5
1.5
1.5
1.5
1.4903
1.48388
1.47307
1.4684
1.45804
1.45489
1.44474
1.44284
1.43289
1.43196
1.42223
1.42188
1.41268
1.41235
1.40422
1.40307
1.39705
1.39303
1.38743
1.5
1.5
1.5
1.5
1.5
1.5
1.49032
1.48387
1.47309
1.4684
1.45806
1.45489
1.44478
1.44283
1.43293
1.43194
1.42229
1.42185
1.41276
1.4123
1.40438
1.40266
1.3991
1.38257
1.40347
1.5
1.5
1.5
1.5
1.5
1.5
1.49059
1.48417
1.47334
1.46869
1.4583
1.45518
1.44499
1.44312
1.4331
1.43227
1.42246
1.42219
1.41286
1.41265
1.40435
1.40344
1.39694
1.39488
1.38659
1.5
1.5
1.5
1.5
1.5
1.5
1.49039
1.48395
1.47314
1.46846
1.4581
1.45491
1.44479
1.44283
1.4329
1.43189
1.42224
1.42179
1.41271
1.41226
1.40437
1.40268
1.3992
1.38247
1.4042
1.5
1.5
1.5
1.5
1.5
1.5
1.49026
1.48389
1.47301
1.46842
1.45796
1.45488
1.44463
1.44283
1.43272
1.43193
1.42203
1.42187
1.41246
1.4124
1.404
1.40327
1.39664
1.39463
1.38704
1.5
1.5
1.5
1.5
1.5
1.5
1.49029
1.48387
1.47305
1.46839
1.45801
1.45483
1.44469
1.44277
1.4328
1.43183
1.42213
1.42175
1.4126
1.41222
1.40425
1.40266
1.39904
1.38276
1.40342
1.5
1.5
1.5
1.5
1.5
1.5
1.4903
1.48387
1.47306
1.46838
1.45802
1.45482
1.44471
1.44274
1.43283
1.4318
1.42217
1.4217
1.41265
1.41219
1.40418
1.40336
1.39489
1.40509
1.37011
1.5
1.5
1.5
1.5
1.5
1.5
1.49028
1.48388
1.47303
1.4684
1.45798
1.45485
1.44466
1.44279
1.43276
1.43186
1.4221
1.42177
1.41257
1.41226
1.40415
1.40307
1.39681
1.39474
1.38582
1.5
1.5
1.5
1.5
1.5
1.5
1.49026
1.48389
1.47301
1.46841
1.45796
1.45487
1.44463
1.44281
1.43273
1.43189
1.42205
1.42182
1.4125
1.41233
1.40406
1.40314
1.39689
1.39338
1.38726
1.5
1.5
1.5
1.5
1.5
1.5
1.49028
1.48388
1.47303
1.4684
1.45798
1.45485
1.44466
1.44279
1.43276
1.43186
1.42209
1.42178
1.41255
1.41228
1.40413
1.40307
1.397
1.39315
1.38753
1.5
1.5
1.5
1.5
1.5
1.5
1.4903
1.48387
1.47306
1.46838
1.45802
1.45482
1.44471
1.44275
1.43282
1.43181
1.42217
1.42171
1.41264
1.41218
1.4043
1.40262
1.39908
1.38257
1.40378
1.5
1.5
1.5
1.5
1.5
1.5
1.49031
1.48386
1.47307
1.46837
1.45804
1.45481
1.44473
1.44274
1.43284
1.4318
1.42218
1.4217
1.41266
1.41217
1.40431
1.4026
1.39914
1.38231
1.40443
1.5
1.5
1.5
1.5
1.5
1.5
1.4903
1.48387
1.47306
1.46838
1.45802
1.45482
1.44471
1.44275
1.43282
1.43181
1.42216
1.42171
1.41264
1.41218
1.40431
1.40261
1.39908
1.38272
1.40333
1.5
1.5
1.5
1.5
1.5
1.5
1.49026
1.48389
1.47301
1.46841
1.45796
1.45487
1.44464
1.44281
1.43273
1.4319
1.42204
1.42183
1.41249
1.41235
1.40405
1.40318
1.39682
1.39343
1.3873
1.5
1.5
1.5
1.5
1.5
1.5
1.49028
1.48388
1.47304
1.46839
1.45799
1.45485
1.44468
1.44278
1.43278
1.43185
1.42211
1.42176
1.41258
1.41225
1.40417
1.40307
1.39679
1.39474
1.38592
1.5
1.5
1.5
1.5
1.5
1.5
1.4903
1.48387
1.47306
1.46838
1.45802
1.45482
1.44471
1.44275
1.43282
1.43181
1.42216
1.42172
1.41263
1.41222
1.40415
1.40339
1.39489
1.40506
1.37024
1.5
1.5
1.5
1.5
1.5
1.5
1.4903
1.48387
1.47306
1.46838
1.45802
1.45482
1.44471
1.44275
1.43282
1.43181
1.42216
1.42171
1.41264
1.4122
1.40417
1.40336
1.39494
1.40497
1.37031
1.5
1.5
1.5
1.5
1.5
1.5
1.49027
1.48389
1.47301
1.46841
1.45796
1.45487
1.44464
1.44282
1.43272
1.4319
1.42204
1.42184
1.41248
1.41236
1.40403
1.4032
1.3967
1.39465
1.38662
1.5
1.5
1.5
1.5
1.5
1.5
1.49027
1.48388
1.47302
1.4684
1.45798
1.45486
1.44465
1.44279
1.43275
1.43187
1.42208
1.42179
1.41254
1.41229
1.40412
1.40307
1.397
1.39317
1.3875
1.5
1.5
1.5
1.5
1.5
1.5
1.49027
1.48388
1.47302
1.46841
1.45797
1.45486
1.44465
1.4428
1.43274
1.43188
1.42206
1.42181
1.41251
1.41233
1.40408
1.40314
1.39689
1.39337
1.38728
1.5
1.5
1.5
1.5
1.5
1.5
1.4903
1.48387
1.47306
1.46838
1.45802
1.45482
1.44471
1.44274
1.43282
1.4318
1.42217
1.4217
1.41266
1.41216
1.40434
1.40257
1.39912
1.38264
1.40333
1.5
1.5
1.5
1.5
1.5
1.5
1.49029
1.48388
1.47305
1.4684
1.45801
1.45485
1.4447
1.44279
1.43281
1.43186
1.42215
1.42177
1.41262
1.41226
1.40422
1.40306
1.39709
1.39297
1.38795
1.5
1.5
1.5
1.5
1.5
1.5
1.49058
1.48415
1.47334
1.46866
1.45829
1.4551
1.44497
1.44302
1.43308
1.43208
1.42241
1.42198
1.41288
1.41245
1.40453
1.40288
1.39933
1.38283
1.40391
1.5
1.5
1.5
1.5
1.5
1.5
1.49036
1.48396
1.47311
1.46848
1.45805
1.45493
1.44473
1.44286
1.43282
1.43194
1.42214
1.42186
1.41258
1.41237
1.40414
1.40319
1.39692
1.39337
1.38745
1.5
1.5
1.5
1.5
1.5
1.5
1.49028
1.48388
1.47303
1.46839
1.45799
1.45484
1.44467
1.44277
1.43277
1.43183
1.42211
1.42174
1.41258
1.41222
1.40418
1.40298
1.39709
1.39289
1.38785
1.5
1.5
1.5
1.5
1.5
1.5
1.49029
1.48387
1.47305
1.46838
1.458
1.45482
1.44469
1.44275
1.43279
1.43181
1.42213
1.42171
1.4126
1.41218
1.40425
1.40263
1.39897
1.3828
1.40324
1.5
1.5
1.5
1.5
1.5
1.5
1.49029
1.48387
1.47305
1.46838
1.458
1.45482
1.44468
1.44275
1.43279
1.43181
1.42212
1.42172
1.41258
1.41223
1.40408
1.40341
1.39477
1.40527
1.36983
1.5
1.5
1.5
1.5
1.5
1.5
1.4903
1.48386
1.47306
1.46837
1.45802
1.45481
1.4447
1.44273
1.43282
1.43178
1.42216
1.42167
1.41264
1.41215
1.40418
1.4033
1.39492
1.40518
1.36952
1.5
1.5
1.5
1.5
1.5
1.5
1.49026
1.48388
1.47301
1.46841
1.45795
1.45486
1.44462
1.4428
1.43271
1.43188
1.42203
1.42181
1.41247
1.41232
1.40403
1.40315
1.39671
1.39465
1.38639
1.5
1.5
1.5
1.5
1.5
1.5
1.49027
1.48388
1.47302
1.4684
1.45796
1.45485
1.44464
1.44279
1.43273
1.43186
1.42205
1.42179
1.4125
1.41229
1.40407
1.4031
1.39689
1.39326
1.38741
1.5
1.5
1.5
1.5
1.5
1.5
1.49029
1.48387
1.47305
1.46838
1.458
1.45482
1.44469
1.44275
1.43279
1.4318
1.42213
1.42171
1.4126
1.4122
1.40412
1.40336
1.39488
1.40492
1.37048
1.5
1.5
1.5
1.5
1.5
1.5
1.4903
1.48386
1.47306
1.46837
1.45801
1.45481
1.4447
1.44274
1.43281
1.4318
1.42214
1.4217
1.41261
1.41217
1.40426
1.40261
1.39904
1.38263
1.40359
1.5
1.5
1.5
1.5
1.5
1.5
1.49029
1.48387
1.47304
1.46838
1.458
1.45483
1.44468
1.44275
1.43278
1.43182
1.42211
1.42173
1.41257
1.41224
1.40407
1.40343
1.39475
1.40517
1.37019
1.5
1.5
1.5
1.5
1.5
1.5
1.4903
1.48386
1.47305
1.46837
1.45801
1.45482
1.44469
1.44274
1.4328
1.4318
1.42214
1.4217
1.4126
1.4122
1.40411
1.40338
1.39479
1.40538
1.36941
1.5
1.5
1.5
1.5
1.5
1.5
1.4903
1.48386
1.47306
1.46837
1.45802
1.45481
1.4447
1.44273
1.43281
1.43178
1.42216
1.42168
1.41263
1.41216
1.40417
1.4033
1.39496
1.40498
1.37004
1.5
1.5
1.5
1.5
1.5
1.5
1.4903
1.48386
1.47306
1.46837
1.45802
1.45481
1.44471
1.44273
1.43281
1.43179
1.42215
1.42169
1.41262
1.41216
1.40428
1.40257
1.39913
1.38251
1.40374
1.5
1.5
1.5
1.5
1.5
1.5
1.49031
1.48386
1.47307
1.46837
1.45803
1.4548
1.44471
1.44272
1.43282
1.43178
1.42216
1.42168
1.41263
1.41215
1.40429
1.40257
1.39912
1.3824
1.40407
1.5
1.5
1.5
1.5
1.5
1.5
1.4903
1.48386
1.47306
1.46837
1.45801
1.45481
1.4447
1.44273
1.43281
1.43179
1.42215
1.42169
1.41263
1.41215
1.40429
1.40257
1.39911
1.38242
1.404
1.5
1.5
1.5
1.5
1.5
1.5
1.4903
1.48386
1.47305
1.46837
1.45801
1.45481
1.4447
1.44273
1.43281
1.43178
1.42215
1.42168
1.41263
1.41214
1.4043
1.40256
1.39907
1.38259
1.40348
1.5
1.5
1.5
1.5
1.5
1.5
1.49029
1.48387
1.47305
1.46838
1.458
1.45482
1.44469
1.44275
1.43279
1.43181
1.42212
1.42172
1.41258
1.41222
1.40409
1.4034
1.39481
1.40509
1.37027
1.5
1.5
1.5
1.5
1.5
1.5
1.49029
1.48387
1.47305
1.46838
1.45801
1.45482
1.44469
1.44275
1.43279
1.43181
1.42213
1.42171
1.4126
1.41221
1.40411
1.40338
1.39485
1.40511
1.37007
1.5
1.5
1.5
1.5
1.5
1.5
1.49028
1.48388
1.47304
1.4684
1.45799
1.45485
1.44468
1.44279
1.43278
1.43186
1.42211
1.42177
1.41258
1.41227
1.40417
1.40308
1.39683
1.39475
1.38584
1.5
1.5
1.5
1.5
1.5
1.5
1.49059
1.48414
1.47335
1.46864
1.4583
1.45508
1.44499
1.44299
1.43309
1.43203
1.42244
1.42192
1.41291
1.4124
1.40443
1.40355
1.39513
1.4054
1.37
1.5
1.5
1.5
1.5
1.5
1.5
1.49038
1.48395
1.47313
1.46845
1.45809
1.45489
1.44477
1.44281
1.43287
1.43187
1.4222
1.42178
1.41266
1.41227
1.40417
1.40345
1.39485
1.40537
1.36978
1.5
1.5
1.5
1.5
1.5
1.5
1.4903
1.48387
1.47305
1.46838
1.45801
1.45482
1.44469
1.44274
1.4328
1.4318
1.42214
1.4217
1.41261
1.41217
1.40427
1.40259
1.39906
1.38266
1.40339
1.5
1.5
1.5
1.5
1.5
1.5
1.49029
1.48387
1.47304
1.46838
1.45799
1.45482
1.44467
1.44275
1.43277
1.43181
1.4221
1.42173
1.41256
1.41223
1.40405
1.40342
1.39474
1.40516
1.37018
1.5
1.5
1.5
1.5
1.5
1.5
1.49026
1.48388
1.473
1.4684
1.45795
1.45486
1.44461
1.4428
1.4327
1.43189
1.422
1.42182
1.41244
1.41234
1.40398
1.40318
1.39675
1.39358
1.38691
1.5
1.5
1.5
1.5
1.5
1.5
1.49029
1.48387
1.47304
1.46838
1.45799
1.45482
1.44467
1.44275
1.43277
1.43181
1.4221
1.42172
1.41256
1.41222
1.40407
1.40338
1.39486
1.40497
1.37041
1.5
1.5
1.5
1.5
1.5
1.5
1.49029
1.48386
1.47305
1.46837
1.458
1.45481
1.44468
1.44274
1.43279
1.4318
1.42212
1.4217
1.41259
1.41217
1.40424
1.40259
1.39908
1.38247
1.40392
1.5
1.5
1.5
1.5
1.5
1.5
1.49029
1.48387
1.47304
1.46837
1.458
1.45482
1.44468
1.44274
1.43278
1.4318
1.42211
1.42171
1.41258
1.41218
1.40423
1.40262
1.39902
1.38249
1.40398
1.5
1.5
1.5
1.5
1.5
1.5
1.49027
1.48387
1.47302
1.46839
1.45797
1.45484
1.44465
1.44277
1.43274
1.43185
1.42206
1.42177
1.41251
1.41227
1.40407
1.4031
1.39672
1.39466
1.38623
1.5
1.5
1.5
1.5
1.5
1.5
1.4903
1.48386
1.47305
1.46837
1.45801
1.45481
1.44469
1.44273
1.4328
1.43178
1.42214
1.42168
1.41261
1.41214
1.40427
1.40256
1.3991
1.3824
1.40399
1.5
1.5
1.5
1.5
1.5
1.5
1.49026
1.48388
1.473
1.4684
1.45795
1.45486
1.44461
1.44281
1.43269
1.43189
1.422
1.42183
1.41243
1.41236
1.40396
1.40321
1.39668
1.39363
1.38695
1.5
1.5
1.5
1.5
1.5
1.5
1.49028
1.48387
1.47303
1.46838
1.45799
1.45482
1.44467
1.44275
1.43277
1.43181
1.4221
1.42172
1.41256
1.41221
1.40408
1.40338
1.39481
1.40517
1.3699
1.5
1.5
1.5
1.5
1.5
1.5
1.49027
1.48388
1.47302
1.46839
1.45797
1.45484
1.44464
1.44278
1.43274
1.43185
1.42206
1.42177
1.41251
1.41227
1.40407
1.40309
1.39676
1.39467
1.38607
1.5
1.5
1.5
1.5
1.5
1.5
1.49029
1.48386
1.47305
1.46837
1.458
1.45481
1.44469
1.44274
1.43279
1.4318
1.42212
1.4217
1.41259
1.41218
1.40423
1.40262
1.399
1.3826
1.40375
1.5
1.5
1.5
1.5
1.5
1.5
1.4903
1.48386
1.47306
1.46836
1.45802
1.45479
1.44471
1.44271
1.43282
1.43176
1.42217
1.42165
1.41266
1.4121
1.40433
1.40251
1.39914
1.38235
1.4039
1.5
1.5
1.5
1.5
1.5
1.5
1.49028
1.48387
1.47303
1.46838
1.45798
1.45483
1.44466
1.44276
1.43275
1.43183
1.42208
1.42174
1.41254
1.41223
1.40412
1.40303
1.39695
1.39303
1.38772
1.5
1.5
1.5
1.5
1.5
1.5
1.49028
1.48387
1.47303
1.46839
1.45798
1.45484
1.44465
1.44277
1.43275
1.43184
1.42207
1.42175
1.41252
1.41225
1.40409
1.40306
1.39691
1.39315
1.38755
1.5
1.5
1.5
1.5
1.5
1.5
1.4903
1.48386
1.47306
1.46836
1.45801
1.4548
1.4447
1.44271
1.43282
1.43176
1.42217
1.42165
1.41265
1.4121
1.40433
1.40249
1.39917
1.38249
1.40338
1.5
1.5
1.5
1.5
1.5
1.5
1.49028
1.48387
1.47303
1.46838
1.45798
1.45483
1.44466
1.44276
1.43276
1.43182
1.42209
1.42173
1.41255
1.41222
1.40413
1.40301
1.397
1.39304
1.38763
1.5
1.5
1.5
1.5
1.5
1.5
1.49027
1.48388
1.47303
1.4684
1.45798
1.45485
1.44466
1.44279
1.43276
1.43186
1.42209
1.42178
1.41255
1.41227
1.40413
1.40307
1.397
1.39312
1.38762
1.5
1.5
1.5
1.5
1.5
1.5
1.49057
1.48415
1.47332
1.46866
1.45826
1.4551
1.44494
1.44302
1.43303
1.43208
1.42236
1.42198
1.41282
1.41246
1.4044
1.40326
1.39705
1.39497
1.38592
1.5
1.5
1.5
1.5
1.5
1.5
1.49037
1.48395
1.47312
1.46846
1.45808
1.4549
1.44475
1.44282
1.43285
1.43188
1.42218
1.42179
1.41263
1.41229
1.40414
1.40347
1.39484
1.40535
1.36987
1.5
1.5
1.5
1.5
1.5
1.5
1.49028
1.48387
1.47304
1.46838
1.45799
1.45483
1.44467
1.44276
1.43277
1.43182
1.42209
1.42174
1.41255
1.41222
1.40419
1.40267
1.39893
1.38283
1.40333
1.5
1.5
1.5
1.5
1.5
1.5
1.49029
1.48386
1.47304
1.46837
1.45799
1.45481
1.44467
1.44274
1.43277
1.4318
1.42211
1.4217
1.41257
1.4122
1.40409
1.40336
1.39483
1.4051
1.37002
1.5
1.5
1.5
1.5
1.5
1.5
1.49027
1.48387
1.47302
1.46839
1.45797
1.45484
1.44464
1.44277
1.43274
1.43183
1.42206
1.42175
1.41252
1.41224
1.4041
1.40303
1.39697
1.3931
1.3875
1.5
1.5
1.5
1.5
1.5
1.5
1.4903
1.48386
1.47305
1.46836
1.45801
1.4548
1.4447
1.44272
1.4328
1.43177
1.42214
1.42167
1.41262
1.41214
1.40428
1.40254
1.39913
1.3824
1.40389
1.5
1.5
1.5
1.5
1.5
1.5
1.4903
1.48386
1.47305
1.46836
1.45801
1.4548
1.44469
1.44272
1.4328
1.43178
1.42213
1.42169
1.4126
1.41216
1.40425
1.4026
1.39901
1.38251
1.4039
1.5
1.5
1.5
1.5
1.5
1.5
1.49029
1.48386
1.47305
1.46837
1.458
1.45481
1.44468
1.44273
1.43278
1.43179
1.42212
1.4217
1.41258
1.41218
1.40422
1.40263
1.39894
1.38275
1.4034
1.5
1.5
1.5
1.5
1.5
1.5
1.49029
1.48386
1.47305
1.46837
1.458
1.45481
1.44469
1.44273
1.43279
1.43179
1.42213
1.42169
1.41259
1.41218
1.40411
1.40334
1.39484
1.40503
1.37016
1.5
1.5
1.5
1.5
1.5
1.5
1.4903
1.48386
1.47305
1.46837
1.45801
1.45481
1.44469
1.44273
1.43279
1.43179
1.42213
1.42169
1.4126
1.41216
1.40424
1.40259
1.39903
1.38261
1.40358
1.5
1.5
1.5
1.5
1.5
1.5
1.49028
1.48387
1.47302
1.46838
1.45797
1.45483
1.44465
1.44276
1.43274
1.43183
1.42207
1.42175
1.41252
1.41226
1.40401
1.40344
1.39475
1.40502
1.37057
1.5
1.5
1.5
1.5
1.5
1.5
1.49026
1.48388
1.47301
1.46839
1.45796
1.45484
1.44463
1.44278
1.43272
1.43185
1.42204
1.42177
1.41249
1.41227
1.40406
1.40307
1.39691
1.39325
1.38728
1.5
1.5
1.5
1.5
1.5
1.5
1.49027
1.48388
1.47302
1.46839
1.45796
1.45484
1.44464
1.44277
1.43273
1.43183
1.42206
1.42174
1.41252
1.41223
1.4041
1.40305
1.39675
1.39469
1.3859
1.5
1.5
1.5
1.5
1.5
1.5
1.49028
1.48387
1.47303
1.46838
1.45798
1.45482
1.44466
1.44275
1.43276
1.43182
1.42208
1.42173
1.41254
1.41223
1.40405
1.4034
1.3948
1.40498
1.37047
1.5
1.5
1.5
1.5
1.5
1.5
1.49026
1.48388
1.47301
1.46839
1.45795
1.45485
1.44462
1.44279
1.43271
1.43186
1.42202
1.42179
1.41246
1.4123
1.40401
1.40313
1.39679
1.39341
1.38719
1.5
1.5
1.5
1.5
1.5
1.5
1.49025
1.48388
1.473
1.4684
1.45794
1.45486
1.4446
1.4428
1.43269
1.43188
1.422
1.42181
1.41244
1.41232
1.40399
1.40315
1.39676
1.39343
1.38717
1.5
1.5
1.5
1.5
1.5
1.5
1.49028
1.48387
1.47303
1.46838
1.45797
1.45483
1.44465
1.44276
1.43275
1.43182
1.42207
1.42174
1.41252
1.41225
1.40402
1.40344
1.3947
1.40529
1.36991
1.5
1.5
1.5
1.5
1.5
1.5
1.49027
1.48387
1.47302
1.46839
1.45797
1.45483
1.44465
1.44276
1.43274
1.43183
1.42207
1.42174
1.41253
1.41223
1.40411
1.40302
1.39697
1.39306
1.38759
1.5
1.5
1.5
1.5
1.5
1.5
1.4903
1.48386
1.47306
1.46836
1.45802
1.4548
1.4447
1.44271
1.43281
1.43176
1.42215
1.42166
1.41263
1.41212
1.4043
1.40253
1.39915
1.38231
1.40406
1.5
1.5
1.5
1.5
1.5
1.5
1.4903
1.48386
1.47306
1.46837
1.45802
1.45481
1.44471
1.44274
1.43282
1.43179
1.42217
1.42169
1.41265
1.41215
1.40432
1.40258
1.39909
1.38261
1.40351
1.5
1.5
1.5
1.5
1.5
1.5
1.49059
1.48414
1.47334
1.46864
1.45829
1.45508
1.44497
1.44299
1.43307
1.43204
1.4224
1.42194
1.41286
1.41242
1.40437
1.40359
1.39508
1.40534
1.37029
1.5
1.5
1.5
1.5
1.5
1.5
1.49036
1.48396
1.47311
1.46848
1.45806
1.45493
1.44474
1.44286
1.43283
1.43193
1.42216
1.42185
1.41262
1.41234
1.4042
1.40313
1.39707
1.39322
1.38757
1.5
1.5
1.5
1.5
1.5
1.5
1.49026
1.48389
1.47301
1.46841
1.45796
1.45487
1.44463
1.44281
1.43272
1.43189
1.42205
1.42182
1.4125
1.41233
1.40406
1.40317
1.3967
1.39467
1.38649
1.5
1.5
1.5
1.5
1.5
1.5
1.49026
1.48388
1.47301
1.4684
1.45797
1.45485
1.44464
1.44279
1.43274
1.43186
1.42207
1.42178
1.41252
1.41228
1.4041
1.40309
1.39678
1.39471
1.38603
1.5
1.5
1.5
1.5
1.5
1.5
1.49027
1.48388
1.47302
1.4684
1.45797
1.45485
1.44464
1.44279
1.43274
1.43187
1.42206
1.42179
1.41251
1.4123
1.40408
1.40311
1.3969
1.39327
1.38741
1.5
1.5
1.5
1.5
1.5
1.5
1.4903
1.48386
1.47306
1.46837
1.45802
1.45481
1.4447
1.44274
1.43281
1.4318
1.42215
1.4217
1.41263
1.41217
1.40429
1.4026
1.39907
1.38256
1.40377
1.5
1.5
1.5
1.5
1.5
1.5
1.49029
1.48387
1.47305
1.46838
1.458
1.45483
1.44468
1.44276
1.43279
1.43182
1.42212
1.42174
1.41258
1.41225
1.40408
1.40345
1.39476
1.40519
1.37021
1.5
1.5
1.5
1.5
1.5
1.5
1.49029
1.48387
1.47304
1.46838
1.458
1.45483
1.44469
1.44275
1.43279
1.43182
1.42212