/*--------------------------------*- C++ -*----------------------------------*\
  =========                 |
  \\      /  F ield         | OpenFOAM: The Open Source CFD Toolbox
   \\    /   O peration     | Website:  https://openfoam.org
    \\  /    A nd           | Version:  12
     \\/     M anipulation  |
\*---------------------------------------------------------------------------*/
FoamFile
{
    format      ascii;
    class       volScalarField;
    location    "200";
    object      p;
}
// * * * * * * * * * * * * * * * * * * * * * * * * * * * * * * * * * * * * * //

dimensions      [0 2 -2 0 0 0 0];

internalField   nonuniform List<scalar> 
5000
(
0.587594
0.432184
0.343674
0.310363
0.286632
0.261878
0.239187
0.219553
0.201936
0.185563
0.170112
0.155446
0.141377
0.127808
0.114688
0.10194
0.0895338
0.0773755
0.0653834
0.0535249
0.041772
0.0300203
0.0181016
0.00580107
-0.0112118
0.587352
0.432382
0.343704
0.310301
0.286618
0.261892
0.239182
0.21954
0.201947
0.185581
0.170115
0.155424
0.141332
0.127762
0.114676
0.10197
0.0895773
0.077419
0.0654261
0.0535677
0.0418131
0.0300536
0.0180979
0.0057646
-0.0111578
0.587323
0.432431
0.343696
0.310269
0.286606
0.261887
0.239164
0.219492
0.20185
0.18549
0.17008
0.155444
0.141455
0.127967
0.114832
0.102046
0.0896122
0.0774326
0.0654166
0.0535392
0.0417676
0.0300016
0.0180727
0.00576605
-0.0111222
0.58731
0.43243
0.343697
0.310259
0.286593
0.261874
0.239141
0.219463
0.201818
0.185437
0.16999
0.155333
0.141381
0.127951
0.114857
0.102101
0.0896959
0.0775267
0.0655175
0.053636
0.0418292
0.0300302
0.0180808
0.0057569
-0.0111258
0.587304
0.432427
0.343696
0.310249
0.286582
0.26186
0.23914
0.219465
0.201771
0.185374
0.169988
0.155415
0.141503
0.128043
0.114877
0.102088
0.0896851
0.0775181
0.0655019
0.053619
0.0418373
0.030063
0.0181234
0.0057779
-0.0111404
0.587299
0.432423
0.34369
0.310242
0.286571
0.261854
0.239137
0.219466
0.201796
0.185411
0.170007
0.155433
0.141522
0.128052
0.114886
0.102084
0.0896883
0.0775308
0.0655138
0.0536256
0.0418394
0.0300619
0.0181266
0.00580017
-0.0111265
0.587294
0.432417
0.343685
0.310234
0.286564
0.261845
0.239133
0.219481
0.201789
0.185366
0.169961
0.155409
0.141526
0.128075
0.114924
0.102134
0.0897416
0.0775783
0.0655535
0.0536526
0.0418557
0.0300671
0.0181216
0.00579358
-0.0111253
0.58729
0.432412
0.343678
0.310226
0.286553
0.261837
0.23912
0.219481
0.201881
0.185518
0.170068
0.155438
0.141491
0.127995
0.114858
0.102129
0.0897674
0.0776158
0.065594
0.0536873
0.0418793
0.0300718
0.0180847
0.00573839
-0.0111359
0.587286
0.432407
0.343672
0.310219
0.286544
0.26183
0.239113
0.219467
0.201859
0.185479
0.170019
0.155409
0.141505
0.12807
0.114973
0.102244
0.0898614
0.0776988
0.0656614
0.0537026
0.0418406
0.0300004
0.018022
0.0056972
-0.0111478
0.587282
0.432404
0.343667
0.310213
0.286537
0.261823
0.239115
0.219507
0.201946
0.185601
0.170163
0.155519
0.141545
0.128033
0.114891
0.102189
0.0898374
0.0776667
0.0656187
0.053678
0.0418266
0.0299908
0.0180152
0.00567579
-0.011176
0.58728
0.432401
0.343664
0.310209
0.28653
0.261816
0.239104
0.219473
0.201901
0.185569
0.170117
0.155459
0.141517
0.12807
0.115003
0.102319
0.0899409
0.0777457
0.065683
0.0537209
0.0418162
0.0299316
0.0179342
0.00561977
-0.0111795
0.587278
0.432399
0.343662
0.310206
0.286527
0.261811
0.239095
0.219457
0.201886
0.185562
0.170115
0.155457
0.141522
0.128083
0.115028
0.102351
0.0899688
0.0777682
0.0657008
0.053731
0.0418152
0.0299196
0.0179161
0.00560435
-0.0111848
0.587278
0.432399
0.343662
0.310207
0.286528
0.261813
0.239094
0.219444
0.201853
0.185518
0.170082
0.155462
0.141551
0.128118
0.115058
0.102371
0.0899769
0.0777717
0.0656976
0.0536994
0.0417881
0.0299044
0.0179117
0.00561065
-0.0111815
0.587278
0.4324
0.343663
0.31021
0.286533
0.26182
0.239108
0.219476
0.201902
0.185565
0.170103
0.155434
0.141485
0.128038
0.114974
0.102289
0.0899131
0.0777296
0.0656806
0.0537261
0.0418291
0.029951
0.0179588
0.00564347
-0.0111691
0.58728
0.432402
0.343666
0.310214
0.28654
0.261829
0.239126
0.219529
0.201984
0.185666
0.170252
0.1556
0.141598
0.128065
0.11489
0.102124
0.089743
0.0775788
0.0655445
0.0536195
0.0417839
0.0299619
0.0180068
0.00569733
-0.0111694
0.587281
0.432403
0.343668
0.310219
0.286546
0.261832
0.239118
0.219499
0.201911
0.185537
0.170103
0.155473
0.141493
0.127973
0.114839
0.102137
0.0897909
0.0776365
0.0656029
0.0536809
0.0418546
0.0300427
0.0180817
0.00573925
-0.0111519
0.587285
0.432403
0.343666
0.310223
0.286552
0.261832
0.239099
0.219414
0.201753
0.185349
0.169946
0.155396
0.141466
0.128024
0.114986
0.10227
0.0898729
0.0777064
0.0656465
0.0536985
0.0418566
0.0300363
0.0180772
0.00575384
-0.0111193
0.587296
0.432402
0.343662
0.310228
0.286558
0.26183
0.239101
0.219422
0.201771
0.185403
0.170015
0.155442
0.141455
0.127949
0.114881
0.102161
0.0897784
0.0776273
0.0656039
0.0536922
0.0418806
0.0300815
0.0181341
0.00580903
-0.0111157
0.587323
0.432351
0.343668
0.310255
0.286562
0.261821
0.239093
0.219417
0.201738
0.185341
0.169949
0.155387
0.141447
0.127979
0.114928
0.102237
0.089853
0.0776645
0.0656137
0.053687
0.0418679
0.0300656
0.0181149
0.00579188
-0.011117
0.587565
0.432153
0.343636
0.310316
0.286569
0.261799
0.239081
0.219448
0.201816
0.185399
0.169949
0.155353
0.141407
0.127908
0.114808
0.102137
0.0897989
0.0776435
0.0656165
0.0537087
0.0419058
0.0301163
0.0181632
0.00581198
-0.0111981
0.441076
0.376642
0.327965
0.305905
0.285974
0.264567
0.244466
0.226276
0.209376
0.193269
0.17783
0.16302
0.148767
0.134988
0.121575
0.108647
0.0961337
0.0838059
0.0715696
0.0594795
0.0475709
0.0358308
0.0242209
0.0131402
0.00117477
0.441197
0.376742
0.327947
0.305822
0.285929
0.264548
0.244444
0.226272
0.209387
0.19328
0.177847
0.163038
0.148779
0.134977
0.121515
0.108587
0.096122
0.08381
0.0715794
0.0594928
0.0475901
0.0358622
0.0242706
0.0131591
0.00117749
0.441217
0.376753
0.327925
0.30579
0.285913
0.264536
0.244415
0.226215
0.209308
0.193231
0.177825
0.163054
0.1488
0.134999
0.121616
0.108718
0.0962362
0.0838632
0.0715961
0.0594912
0.0475787
0.0358323
0.0242148
0.0131204
0.00116391
0.441219
0.376761
0.327926
0.305782
0.285901
0.264522
0.244404
0.226212
0.209318
0.193245
0.177835
0.163045
0.148766
0.134971
0.1216
0.1087
0.0962172
0.0838815
0.071639
0.0595562
0.0476689
0.0359002
0.0242573
0.0131474
0.00117997
0.441217
0.37676
0.327923
0.305773
0.285889
0.26451
0.244391
0.226181
0.20925
0.193175
0.177793
0.163056
0.148833
0.135063
0.121699
0.108748
0.0962221
0.08387
0.0716208
0.0595267
0.0476171
0.0358694
0.0242576
0.0131847
0.00121244
0.441213
0.376756
0.327918
0.305765
0.28588
0.264502
0.244386
0.226174
0.209261
0.193175
0.177793
0.163052
0.148827
0.135065
0.121714
0.108797
0.0962392
0.0838819
0.0716373
0.0595419
0.0476256
0.0358722
0.0242495
0.0131599
0.0012048
0.441208
0.376752
0.327913
0.305758
0.285872
0.264495
0.244386
0.226197
0.209277
0.193161
0.177777
0.163039
0.14882
0.135065
0.121721
0.108825
0.0962859
0.083934
0.0716843
0.0595764
0.047645
0.0358818
0.0242538
0.0131557
0.00120228
0.441204
0.376747
0.327907
0.305751
0.285863
0.264489
0.244387
0.226225
0.209357
0.193262
0.17785
0.163081
0.148843
0.135066
0.12167
0.108761
0.0962664
0.0839373
0.0716928
0.0595852
0.0476476
0.0358889
0.0242776
0.0131627
0.00119154
0.4412
0.376742
0.327901
0.305744
0.285855
0.264481
0.24438
0.226222
0.209359
0.193283
0.17785
0.163048
0.14882
0.135069
0.121724
0.108833
0.0963585
0.0840317
0.0717797
0.0596717
0.0476875
0.0358734
0.0242101
0.0130967
0.00116785
0.441196
0.376738
0.327896
0.305738
0.285849
0.264476
0.244382
0.226241
0.209384
0.193321
0.177916
0.16314
0.148897
0.135149
0.12179
0.10882
0.0963065
0.0839691
0.07171
0.0595838
0.0476232
0.0358248
0.0241819
0.0131079
0.00117748
0.441194
0.376735
0.327893
0.305734
0.285843
0.264469
0.244374
0.226231
0.209398
0.19335
0.177947
0.163144
0.148862
0.135118
0.121771
0.10885
0.0963585
0.0840242
0.0717568
0.059625
0.047673
0.0358359
0.0241508
0.013044
0.00113345
0.441192
0.376734
0.327891
0.305731
0.28584
0.264465
0.244368
0.226225
0.2094
0.193364
0.177963
0.163156
0.148876
0.135132
0.121782
0.108862
0.0963676
0.0840312
0.0717627
0.0596319
0.0476746
0.0358314
0.0241413
0.0130325
0.00113015
0.441192
0.376733
0.327891
0.305732
0.28584
0.264465
0.244365
0.226215
0.209381
0.193342
0.177928
0.163124
0.148888
0.135156
0.121813
0.108892
0.0963968
0.0840555
0.0717861
0.0596614
0.0476579
0.0358095
0.0241224
0.0130159
0.00113301
0.441192
0.376734
0.327892
0.305734
0.285845
0.264472
0.244376
0.226231
0.209393
0.193342
0.177928
0.163112
0.148833
0.135097
0.121763
0.108848
0.0963515
0.0840178
0.0717575
0.059632
0.0476801
0.0358476
0.0241647
0.0130565
0.00114346
0.441193
0.376735
0.327894
0.305738
0.285851
0.264481
0.244388
0.226247
0.209384
0.193324
0.177923
0.163134
0.148883
0.135147
0.121831
0.10888
0.0963149
0.0839564
0.0716865
0.0595478
0.0475846
0.0357863
0.0241399
0.0130609
0.00115857
0.441193
0.376735
0.327896
0.305742
0.285855
0.264481
0.244379
0.226219
0.20933
0.19324
0.177826
0.163059
0.14884
0.135118
0.121777
0.108819
0.0963128
0.0839863
0.0717339
0.0596021
0.0476392
0.0358486
0.0242121
0.0131389
0.00119025
0.441193
0.376733
0.327895
0.305746
0.28586
0.264479
0.244358
0.226163
0.209255
0.193144
0.177709
0.162962
0.148796
0.135086
0.121736
0.10886
0.0964117
0.0841
0.0718568
0.05969
0.0476944
0.0358789
0.0242144
0.0131103
0.00116418
0.44119
0.376723
0.327891
0.305749
0.285864
0.264479
0.244356
0.226142
0.209227
0.19313
0.177729
0.162986
0.148816
0.135105
0.121746
0.108861
0.0963814
0.0840592
0.0717957
0.0596511
0.0476812
0.0358857
0.0242351
0.0131344
0.00119677
0.441168
0.37671
0.327911
0.305777
0.285873
0.264477
0.244352
0.226146
0.209208
0.193079
0.177674
0.162928
0.148756
0.135064
0.121735
0.108865
0.096433
0.0841405
0.0718521
0.0596882
0.0477055
0.0359011
0.0242416
0.0131238
0.00117404
0.441047
0.376609
0.327927
0.305859
0.285914
0.264493
0.244375
0.226192
0.209258
0.193135
0.177707
0.162937
0.148751
0.135061
0.121731
0.108797
0.096336
0.0840356
0.0717819
0.0596525
0.047697
0.0359166
0.0242837
0.0132019
0.00119522
0.379612
0.361849
0.332612
0.306386
0.284136
0.263421
0.244017
0.225881
0.208833
0.192594
0.177067
0.162176
0.147815
0.133906
0.120195
0.107194
0.0949869
0.0827672
0.0705193
0.0584566
0.0466429
0.0350883
0.0239039
0.0133784
0.00392478
0.379585
0.361803
0.33259
0.306371
0.284133
0.263427
0.244023
0.225888
0.208842
0.192607
0.177081
0.162191
0.147831
0.133921
0.120201
0.107194
0.0949937
0.0827779
0.0705302
0.0584667
0.0466521
0.0350975
0.0239138
0.0133827
0.00392647
0.37958
0.361793
0.332585
0.306362
0.284128
0.263421
0.244011
0.225871
0.208824
0.192598
0.177087
0.162214
0.147857
0.13394
0.120232
0.107237
0.0950297
0.0827924
0.0705318
0.058462
0.0466451
0.0350875
0.0239006
0.0133731
0.00392323
0.379577
0.361787
0.332575
0.306351
0.284116
0.26341
0.243999
0.225859
0.208816
0.192595
0.177088
0.162219
0.147863
0.133956
0.120253
0.107249
0.0950408
0.0828122
0.0705563
0.0584889
0.0466731
0.0351084
0.0239134
0.0133803
0.00392686
0.379573
0.361782
0.332568
0.306343
0.284107
0.2634
0.243989
0.225845
0.208797
0.192579
0.177081
0.162226
0.147881
0.133979
0.120286
0.107279
0.095055
0.0828185
0.0705599
0.0584904
0.0466714
0.0351093
0.0239181
0.0133891
0.00393233
0.379569
0.361777
0.332562
0.306335
0.284098
0.263392
0.243982
0.225839
0.208793
0.192574
0.17708
0.162225
0.147883
0.133981
0.120299
0.107312
0.0950829
0.0828409
0.0705809
0.0585082
0.0466845
0.0351185
0.0239228
0.0133886
0.00393248
0.379565
0.361772
0.332556
0.306328
0.28409
0.263385
0.243979
0.225844
0.208803
0.192578
0.177082
0.162228
0.14789
0.133997
0.120319
0.107336
0.0951149
0.0828744
0.070609
0.0585273
0.0466932
0.0351192
0.023919
0.0133822
0.00392895
0.37956
0.361767
0.33255
0.306321
0.284083
0.263378
0.243977
0.225853
0.208825
0.192606
0.177105
0.162246
0.147907
0.13402
0.120336
0.107342
0.0951249
0.0828896
0.0706215
0.0585335
0.0466902
0.03511
0.0239092
0.0133728
0.00392431
0.379556
0.361763
0.332545
0.306315
0.284075
0.263372
0.243974
0.225856
0.208835
0.192625
0.177124
0.162263
0.14793
0.134056
0.120378
0.107378
0.0951654
0.0829265
0.0706471
0.0585463
0.0466839
0.0350852
0.0238727
0.0133408
0.00391105
0.379553
0.361759
0.33254
0.306309
0.28407
0.263367
0.243972
0.225861
0.208847
0.192647
0.177155
0.162297
0.147959
0.134081
0.120407
0.107398
0.0951635
0.082915
0.0706306
0.0585231
0.0466599
0.0350596
0.0238492
0.0133278
0.00390636
0.379551
0.361756
0.332537
0.306305
0.284065
0.263361
0.243967
0.22586
0.208855
0.192661
0.177173
0.162314
0.147974
0.134105
0.120431
0.107418
0.0951851
0.0829353
0.0706426
0.0585244
0.0466525
0.0350388
0.0238188
0.0132963
0.00389021
0.379549
0.361754
0.332535
0.306303
0.284062
0.263358
0.243964
0.225858
0.208858
0.19267
0.177185
0.162327
0.147988
0.13412
0.120443
0.107425
0.0951901
0.0829379
0.0706424
0.0585214
0.0466454
0.0350279
0.0238065
0.0132855
0.0038861
0.379548
0.361754
0.332534
0.306303
0.284062
0.263358
0.243963
0.225855
0.208853
0.192663
0.177176
0.16232
0.147989
0.134124
0.120444
0.107427
0.0951973
0.0829444
0.0706476
0.0585261
0.0466427
0.0350234
0.0238024
0.0132824
0.0038863
0.379548
0.361754
0.332535
0.306305
0.284065
0.263362
0.243967
0.225857
0.208847
0.19265
0.177158
0.162294
0.147955
0.134088
0.120418
0.107412
0.0951845
0.0829378
0.0706482
0.0585323
0.0466608
0.0350481
0.0238282
0.0133034
0.00389443
0.379549
0.361755
0.332537
0.306308
0.284069
0.263366
0.24397
0.225854
0.208832
0.192629
0.177136
0.162275
0.147939
0.134063
0.120405
0.107415
0.0951794
0.0829265
0.0706379
0.0585244
0.0466578
0.0350561
0.0238442
0.0133211
0.00390398
0.37955
0.361757
0.33254
0.306311
0.284073
0.263367
0.243964
0.225838
0.208802
0.192584
0.177085
0.162228
0.147903
0.134039
0.120382
0.107395
0.0951785
0.0829418
0.0706648
0.0585579
0.0466944
0.0350952
0.0238832
0.0133549
0.00391786
0.379551
0.361759
0.332544
0.306315
0.284076
0.263366
0.243954
0.225814
0.208767
0.19254
0.177035
0.162188
0.147885
0.134036
0.120368
0.107393
0.0952058
0.08298
0.0707041
0.05859
0.0467188
0.0351137
0.0238953
0.0133591
0.00391852
0.379552
0.361763
0.332551
0.306322
0.28408
0.263365
0.243948
0.225798
0.208744
0.192516
0.177018
0.162174
0.147873
0.134024
0.120357
0.107386
0.0951972
0.0829743
0.070701
0.058595
0.0467321
0.035133
0.023916
0.0133757
0.00392846
0.379556
0.361771
0.332553
0.306326
0.284079
0.26336
0.243942
0.225792
0.20873
0.192493
0.176993
0.16215
0.14785
0.134011
0.120352
0.107383
0.0952075
0.0829936
0.0707178
0.0586094
0.046745
0.0351443
0.0239251
0.0133798
0.00392713
0.379582
0.361817
0.332574
0.306339
0.284078
0.263349
0.243932
0.225786
0.208722
0.192484
0.176977
0.162125
0.147821
0.133982
0.120336
0.107365
0.0951814
0.0829689
0.0707032
0.0586065
0.0467517
0.0351575
0.0239429
0.0134015
0.00393346
0.343671
0.334676
0.313797
0.291799
0.273356
0.256469
0.239698
0.223331
0.207688
0.192641
0.178033
0.163793
0.149899
0.136335
0.123073
0.110227
0.0977265
0.0853352
0.0730766
0.0610404
0.0492497
0.0376149
0.026425
0.0148601
0.00601679
0.343665
0.33469
0.313837
0.291817
0.273351
0.25646
0.23969
0.223323
0.207678
0.192632
0.178027
0.163789
0.149895
0.136332
0.123069
0.110224
0.0977282
0.0853396
0.0730819
0.0610461
0.0492553
0.0376213
0.0264295
0.0148695
0.0060113
0.343663
0.334693
0.313843
0.291812
0.273339
0.256448
0.239679
0.223311
0.207667
0.192626
0.178027
0.163795
0.149906
0.136344
0.123086
0.110244
0.0977445
0.0853497
0.0730883
0.0610493
0.0492559
0.0376194
0.0264256
0.0148664
0.00600893
0.34366
0.334691
0.313842
0.29181
0.273334
0.256441
0.23967
0.223302
0.207658
0.192618
0.178021
0.163793
0.149906
0.136349
0.123095
0.110256
0.0977596
0.0853679
0.073108
0.0610695
0.0492748
0.0376346
0.0264361
0.0148733
0.00601068
0.343656
0.334687
0.313838
0.291806
0.273328
0.256433
0.239662
0.223293
0.20765
0.192612
0.178021
0.163799
0.14992
0.136367
0.123116
0.110275
0.0977745
0.0853793
0.0731158
0.0610739
0.0492767
0.0376361
0.0264384
0.0148768
0.00601363
0.343652
0.334683
0.313833
0.2918
0.273321
0.256426
0.239655
0.223288
0.207647
0.192612
0.178025
0.163808
0.149933
0.136385
0.123141
0.110304
0.0977993
0.0853992
0.0731312
0.061084
0.0492813
0.0376363
0.0264352
0.0148715
0.00601074
0.343648
0.334678
0.313828
0.291794
0.273314
0.25642
0.239651
0.223288
0.20765
0.192615
0.178028
0.163814
0.149944
0.136402
0.123161
0.110327
0.0978229
0.0854202
0.0731472
0.0610936
0.0492845
0.0376344
0.0264307
0.0148668
0.00600834
0.343644
0.334674
0.313823
0.291788
0.273308
0.256414
0.239648
0.223289
0.207657
0.192627
0.178041
0.163827
0.149956
0.136415
0.123173
0.110337
0.0978346
0.0854317
0.0731554
0.0610971
0.0492826
0.0376288
0.0264243
0.0148621
0.00600585
0.34364
0.33467
0.313818
0.291782
0.273302
0.256408
0.239645
0.223291
0.207664
0.192638
0.178055
0.163842
0.149975
0.136439
0.123201
0.110364
0.0978603
0.0854518
0.0731676
0.0610996
0.0492739
0.0376103
0.0264009
0.0148416
0.0059953
0.343637
0.334666
0.313814
0.291777
0.273296
0.256404
0.239642
0.223292
0.207671
0.192653
0.178075
0.163865
0.149998
0.136461
0.123221
0.110378
0.0978648
0.0854492
0.0731581
0.0610839
0.0492547
0.0375896
0.0263828
0.0148313
0.00599297
0.343634
0.334663
0.31381
0.291773
0.273292
0.256399
0.239639
0.223292
0.207675
0.19266
0.178084
0.163873
0.150007
0.136475
0.123237
0.110394
0.0978791
0.0854595
0.0731625
0.0610814
0.0492456
0.0375739
0.0263636
0.0148138
0.00598373
0.343633
0.334661
0.313808
0.291771
0.273289
0.256396
0.239636
0.22329
0.207675
0.192663
0.178088
0.163878
0.150012
0.13648
0.123242
0.110398
0.0978826
0.0854615
0.0731626
0.0610794
0.049241
0.0375672
0.0263566
0.0148089
0.00598213
0.343632
0.33466
0.313808
0.29177
0.273289
0.256396
0.239635
0.223288
0.207671
0.192658
0.178082
0.163874
0.150011
0.136481
0.123245
0.110402
0.0978878
0.0854661
0.0731663
0.0610812
0.0492396
0.0375641
0.0263529
0.0148054
0.00598072
0.343632
0.33466
0.313808
0.291771
0.27329
0.256397
0.239635
0.223286
0.207666
0.192648
0.178071
0.16386
0.149997
0.136468
0.123235
0.110398
0.0978878
0.0854701
0.073173
0.0610902
0.0492516
0.0375776
0.0263655
0.0148144
0.00598411
0.343632
0.334661
0.313809
0.291772
0.273292
0.256398
0.239635
0.223281
0.207655
0.192635
0.178059
0.163852
0.149992
0.136464
0.123235
0.110401
0.0978894
0.0854713
0.0731742
0.0610913
0.0492538
0.0375825
0.0263721
0.0148192
0.00598733
0.343633
0.334662
0.31381
0.291774
0.273293
0.256398
0.23963
0.22327
0.207635
0.192608
0.178028
0.163824
0.149969
0.136448
0.123223
0.110396
0.097893
0.085483
0.0731924
0.0611137
0.0492784
0.037608
0.0263958
0.0148373
0.00599453
0.343633
0.334663
0.31381
0.291774
0.273293
0.256397
0.239624
0.223256
0.207615
0.19258
0.177998
0.163797
0.149951
0.136438
0.123217
0.110397
0.0979044
0.0854995
0.0732123
0.0611338
0.0492969
0.0376238
0.0264072
0.0148423
0.00599553
0.343634
0.334662
0.313808
0.291771
0.273292
0.256394
0.239618
0.223246
0.207601
0.192565
0.177984
0.163785
0.149942
0.13643
0.12321
0.110391
0.0979003
0.0854999
0.0732168
0.0611432
0.0493109
0.0376405
0.0264238
0.0148553
0.00600288
0.343635
0.334657
0.3138
0.291772
0.273298
0.256397
0.239617
0.223242
0.207593
0.192553
0.177971
0.163773
0.149931
0.136424
0.123209
0.110394
0.0979088
0.0855119
0.0732298
0.0611557
0.0493221
0.0376491
0.0264291
0.0148552
0.00600188
0.34364
0.334642
0.313759
0.291753
0.2733
0.256402
0.23962
0.223245
0.207597
0.192556
0.177972
0.16377
0.149926
0.136418
0.123204
0.110389
0.0979035
0.0855096
0.0732312
0.0611618
0.0493321
0.0376608
0.0264438
0.0148625
0.00601429
0.31911
0.313801
0.300702
0.284888
0.269747
0.254809
0.239239
0.223658
0.208498
0.19372
0.179209
0.164958
0.151002
0.137356
0.124004
0.110956
0.0982131
0.0857146
0.0734177
0.0613118
0.0494258
0.0376697
0.026358
0.0146065
0.00604252
0.319109
0.313796
0.3007
0.284876
0.269729
0.254797
0.239234
0.223655
0.208496
0.193719
0.179211
0.164962
0.151008
0.137361
0.12401
0.110963
0.0982202
0.0857217
0.0734245
0.0613183
0.0494315
0.0376753
0.0263606
0.0146144
0.00603421
0.319107
0.313794
0.300698
0.284869
0.269718
0.25479
0.23923
0.223651
0.208492
0.193717
0.179212
0.164967
0.151015
0.13737
0.124021
0.110975
0.0982311
0.0857305
0.0734313
0.061323
0.0494343
0.0376765
0.0263604
0.0146145
0.00603222
0.319104
0.313791
0.300694
0.284862
0.26971
0.254781
0.239221
0.223643
0.208485
0.193713
0.179211
0.164968
0.15102
0.137379
0.124033
0.110989
0.0982459
0.0857455
0.0734455
0.0613354
0.0494442
0.0376836
0.0263647
0.014617
0.0060327
0.319101
0.313787
0.300689
0.284857
0.269702
0.254772
0.239214
0.223636
0.20848
0.19371
0.179212
0.164975
0.151031
0.137393
0.12405
0.111006
0.0982609
0.0857577
0.0734546
0.0613414
0.0494474
0.037685
0.0263651
0.0146171
0.00603269
0.319097
0.313783
0.300684
0.284851
0.269695
0.254765
0.239207
0.223632
0.208477
0.19371
0.179216
0.164983
0.151043
0.137409
0.124068
0.111025
0.0982777
0.0857712
0.0734644
0.0613474
0.0494498
0.0376845
0.0263627
0.0146139
0.00603074
0.319093
0.313779
0.300679
0.284845
0.269689
0.254759
0.239202
0.223629
0.208477
0.193713
0.179221
0.164991
0.151055
0.137424
0.124086
0.111042
0.0982936
0.0857842
0.0734733
0.0613518
0.04945
0.0376818
0.0263587
0.0146106
0.00602937
0.319089
0.313775
0.300674
0.284839
0.269683
0.254753
0.239198
0.223628
0.20848
0.193719
0.17923
0.165002
0.151067
0.137438
0.1241
0.111055
0.0983054
0.0857933
0.0734785
0.0613524
0.0494466
0.0376758
0.0263525
0.0146065
0.00602834
0.319086
0.313771
0.30067
0.284834
0.269677
0.254748
0.239195
0.223628
0.208484
0.193727
0.17924
0.165015
0.151083
0.137457
0.124119
0.111074
0.0983206
0.0858037
0.0734828
0.0613501
0.0494381
0.037663
0.026339
0.0145963
0.00602397
0.319082
0.313767
0.300666
0.284829
0.269672
0.254744
0.239192
0.223628
0.208488
0.193735
0.179253
0.165029
0.151099
0.137473
0.124135
0.111085
0.0983272
0.0858046
0.0734783
0.0613409
0.0494257
0.0376497
0.0263276
0.0145898
0.00602256
0.31908
0.313764
0.300663
0.284826
0.269668
0.25474
0.239189
0.223627
0.208489
0.19374
0.179259
0.165037
0.151108
0.137484
0.124147
0.111096
0.0983354
0.0858089
0.0734779
0.0613357
0.0494165
0.0376377
0.0263156
0.0145809
0.0060189
0.319078
0.313762
0.300661
0.284824
0.269666
0.254737
0.239187
0.223625
0.208489
0.19374
0.179261
0.16504
0.151112
0.13749
0.124152
0.111101
0.0983394
0.0858112
0.0734778
0.0613333
0.0494121
0.0376324
0.0263108
0.0145784
0.00601854
0.319077
0.313761
0.30066
0.284823
0.269665
0.254736
0.239185
0.223623
0.208486
0.193737
0.179258
0.165037
0.151111
0.13749
0.124154
0.111105
0.0983434
0.0858148
0.0734802
0.061334
0.0494111
0.0376305
0.0263089
0.014577
0.00601806
0.319076
0.313761
0.30066
0.284823
0.269665
0.254736
0.239184
0.22362
0.208481
0.19373
0.179249
0.165029
0.151104
0.137484
0.124152
0.111106
0.0983468
0.0858198
0.073486
0.0613399
0.049417
0.0376359
0.0263132
0.0145792
0.00601826
0.319077
0.313761
0.30066
0.284823
0.269666
0.254736
0.239183
0.223616
0.208473
0.193719
0.179239
0.16502
0.151097
0.13748
0.12415
0.111107
0.0983506
0.0858247
0.0734913
0.0613453
0.0494224
0.0376413
0.0263177
0.0145813
0.00601855
0.319077
0.313762
0.300661
0.284825
0.269667
0.254736
0.23918
0.223608
0.20846
0.193703
0.179221
0.165003
0.151083
0.137469
0.124143
0.111105
0.0983535
0.0858328
0.0735035
0.06136
0.0494382
0.0376567
0.0263307
0.0145897
0.00602118
0.319077
0.313762
0.300662
0.284826
0.269668
0.254737
0.239176
0.2236
0.208447
0.193685
0.179201
0.164985
0.151068
0.137459
0.124136
0.111103
0.0983577
0.0858421
0.0735162
0.0613745
0.0494529
0.0376701
0.0263412
0.0145956
0.00602322
0.319078
0.313763
0.300663
0.284828
0.269671
0.254738
0.239174
0.223594
0.208437
0.193673
0.179188
0.164972
0.151057
0.13745
0.124129
0.111099
0.0983572
0.0858457
0.0735236
0.061385
0.0494655
0.037683
0.0263524
0.0146031
0.00602659
0.319078
0.313763
0.300664
0.284833
0.269678
0.254738
0.23917
0.223587
0.208429
0.193663
0.179177
0.164962
0.151049
0.137444
0.124127
0.1111
0.0983621
0.0858535
0.0735331
0.0613949
0.0494747
0.0376906
0.0263576
0.0146042
0.00602802
0.319079
0.313768
0.300664
0.284843
0.269694
0.254748
0.239169
0.223584
0.208425
0.193658
0.17917
0.164954
0.151041
0.137437
0.124121
0.111095
0.0983588
0.0858525
0.0735341
0.0613974
0.0494784
0.0376938
0.0263627
0.0146017
0.00603827
0.301961
0.298435
0.289211
0.276639
0.263213
0.249478
0.235285
0.220895
0.206597
0.192462
0.178483
0.164682
0.151097
0.137746
0.124632
0.111761
0.0991352
0.0867205
0.0744807
0.0623983
0.0505119
0.0387185
0.0273474
0.0153704
0.00657965
0.30196
0.298429
0.289214
0.276644
0.263216
0.24948
0.235287
0.220896
0.206596
0.192462
0.178483
0.164683
0.151098
0.137747
0.124634
0.111763
0.0991372
0.0867226
0.0744827
0.0624002
0.050513
0.0387198
0.0273459
0.0153762
0.00656897
0.301958
0.298427
0.289213
0.276642
0.263212
0.249476
0.235284
0.220893
0.206593
0.192459
0.178483
0.164685
0.151102
0.137753
0.124641
0.111771
0.0991444
0.0867288
0.0744877
0.0624037
0.0505151
0.0387209
0.0273462
0.0153773
0.00656746
0.301955
0.298424
0.28921
0.276639
0.263208
0.249472
0.23528
0.220889
0.20659
0.192458
0.178484
0.164688
0.151107
0.137761
0.12465
0.111781
0.0991548
0.0867384
0.0744958
0.06241
0.0505194
0.0387235
0.0273472
0.0153777
0.00656698
0.301952
0.29842
0.289206
0.276634
0.263203
0.249466
0.235275
0.220885
0.206587
0.192458
0.178486
0.164694
0.151116
0.137772
0.124662
0.111793
0.0991653
0.0867469
0.074502
0.0624139
0.0505213
0.038724
0.027347
0.0153776
0.00656705
0.301948
0.298416
0.289201
0.276629
0.263197
0.249461
0.23527
0.220882
0.206586
0.192459
0.17849
0.164701
0.151126
0.137784
0.124676
0.111807
0.0991775
0.0867565
0.0745085
0.0624173
0.0505219
0.0387224
0.0273442
0.0153747
0.00656534
0.301944
0.298412
0.289197
0.276624
0.263192
0.249456
0.235266
0.220879
0.206586
0.192461
0.178496
0.164709
0.151137
0.137798
0.124691
0.11182
0.0991894
0.0867656
0.0745143
0.0624196
0.0505212
0.0387199
0.027341
0.0153723
0.00656442
0.301941
0.298408
0.289192
0.276619
0.263186
0.249451
0.235262
0.220878
0.206587
0.192466
0.178502
0.164719
0.151149
0.13781
0.124704
0.111832
0.0991992
0.0867725
0.0745177
0.0624195
0.0505184
0.0387156
0.027337
0.01537
0.00656401
0.301937
0.298404
0.289188
0.276614
0.263181
0.249446
0.235259
0.220877
0.206589
0.192471
0.178511
0.16473
0.151162
0.137825
0.124719
0.111846
0.0992097
0.0867788
0.0745193
0.0624166
0.0505118
0.0387072
0.0273291
0.0153646
0.00656191
0.301934
0.298401
0.289184
0.27661
0.263177
0.249442
0.235256
0.220876
0.206592
0.192476
0.178519
0.16474
0.151174
0.137838
0.124731
0.111855
0.0992158
0.0867808
0.0745172
0.0624111
0.0505042
0.0386992
0.0273227
0.0153614
0.00656154
0.301931
0.298398
0.289181
0.276607
0.263173
0.249438
0.235254
0.220875
0.206593
0.192479
0.178524
0.164747
0.151183
0.137847
0.12474
0.111864
0.0992218
0.0867835
0.0745161
0.0624067
0.0504974
0.0386914
0.0273158
0.015357
0.00655997
0.301929
0.298396
0.289179
0.276604
0.263171
0.249436
0.235251
0.220873
0.206592
0.19248
0.178526
0.16475
0.151187
0.137853
0.124746
0.111869
0.0992258
0.0867856
0.0745161
0.0624046
0.050494
0.0386877
0.0273129
0.0153558
0.00655994
0.301928
0.298395
0.289177
0.276603
0.263169
0.249434
0.235249
0.220871
0.206589
0.192477
0.178523
0.164749
0.151187
0.137854
0.124749
0.111873
0.0992293
0.0867883
0.0745175
0.0624046
0.0504929
0.0386862
0.0273118
0.0153554
0.00656
0.301928
0.298394
0.289177
0.276602
0.263168
0.249433
0.235247
0.220867
0.206584
0.192471
0.178517
0.164743
0.151182
0.137852
0.124748
0.111874
0.0992321
0.0867917
0.0745209
0.0624077
0.0504956
0.0386885
0.0273135
0.0153562
0.00656004
0.301927
0.298394
0.289177
0.276602
0.263168
0.249432
0.235244
0.220862
0.206577
0.192463
0.178509
0.164735
0.151176
0.137848
0.124747
0.111875
0.0992345
0.0867953
0.0745252
0.0624122
0.0504999
0.0386924
0.0273164
0.0153577
0.00656062
0.301928
0.298395
0.289177
0.276602
0.263168
0.249431
0.235241
0.220856
0.206568
0.192451
0.178496
0.164723
0.151167
0.137841
0.124743
0.111874
0.0992381
0.0868023
0.0745346
0.0624228
0.0505106
0.0387018
0.0273234
0.0153614
0.00656139
0.301928
0.298395
0.289178
0.276603
0.263168
0.249429
0.235237
0.220849
0.206558
0.192439
0.178483
0.164711
0.151157
0.137834
0.124739
0.111875
0.0992427
0.0868104
0.074545
0.0624342
0.0505217
0.0387114
0.0273302
0.0153646
0.00656209
0.301928
0.298396
0.289178
0.276603
0.263167
0.249427
0.235233
0.220843
0.206549
0.192429
0.178472
0.164701
0.151148
0.137828
0.124735
0.111874
0.0992454
0.0868164
0.0745537
0.0624446
0.0505327
0.0387216
0.0273383
0.0153693
0.0065641
0.301929
0.298396
0.289177
0.276601
0.263167
0.249425
0.23523
0.220839
0.206544
0.192423
0.178466
0.164695
0.151144
0.137825
0.124735
0.111876
0.0992499
0.0868227
0.0745611
0.0624523
0.0505399
0.0387271
0.0273421
0.0153694
0.00656558
0.301929
0.298401
0.289173
0.276595
0.263163
0.249421
0.235224
0.220834
0.20654
0.192419
0.178463
0.164693
0.151142
0.137824
0.124736
0.111878
0.0992526
0.0868266
0.0745657
0.0624573
0.0505453
0.0387315
0.027348
0.0153662
0.00657704
0.289799
0.287129
0.280041
0.269862
0.258338
0.246126
0.233265
0.219902
0.206305
0.192651
0.179016
0.165449
0.152004
0.138719
0.125619
0.112716
0.100015
0.0875037
0.0751685
0.062992
0.0510043
0.0390917
0.0275862
0.0154442
0.00656573
0.289798
0.287125
0.280042
0.269863
0.258335
0.246121
0.23326
0.219898
0.206302
0.19265
0.179015
0.16545
0.152005
0.138722
0.125622
0.11272
0.100019
0.0875074
0.075172
0.0629951
0.0510066
0.0390944
0.0275861
0.0154515
0.00655557
0.289796
0.287123
0.280041
0.269861
0.258331
0.246116
0.233256
0.219895
0.2063
0.192649
0.179016
0.165453
0.15201
0.138727
0.125628
0.112726
0.100025
0.0875124
0.075176
0.0629982
0.0510086
0.0390958
0.0275866
0.0154529
0.00655387
0.289793
0.28712
0.280038
0.269858
0.258327
0.246111
0.233252
0.219891
0.206297
0.192648
0.179017
0.165455
0.152014
0.138733
0.125636
0.112734
0.100032
0.0875192
0.0751817
0.0630026
0.0510117
0.0390978
0.0275877
0.0154536
0.00655375
0.28979
0.287117
0.280035
0.269854
0.258322
0.246106
0.233247
0.219888
0.206295
0.192647
0.179019
0.16546
0.152022
0.138742
0.125645
0.112743
0.100041
0.0875263
0.075187
0.0630061
0.0510136
0.0390986
0.0275878
0.0154537
0.0065538
0.289787
0.287113
0.28003
0.269849
0.258317
0.246101
0.233242
0.219884
0.206294
0.192648
0.179023
0.165466
0.15203
0.138752
0.125656
0.112754
0.10005
0.0875336
0.0751919
0.0630086
0.051014
0.0390975
0.0275862
0.0154522
0.00655312
0.289783
0.287109
0.280026