/*--------------------------------*- C++ -*----------------------------------*\
  =========                 |
  \\      /  F ield         | OpenFOAM: The Open Source CFD Toolbox
   \\    /   O peration     | Website:  https://openfoam.org
    \\  /    A nd           | Version:  12
     \\/     M anipulation  |
\*---------------------------------------------------------------------------*/
FoamFile
{
    format      ascii;
    class       surfaceScalarField;
    location    "200";
    object      phi;
}
// * * * * * * * * * * * * * * * * * * * * * * * * * * * * * * * * * * * * * //

dimensions      [0 3 -1 0 0 0 0];

internalField   nonuniform List<scalar> 
14050
(
1958.43
0.00344493
1.56215
1956.2
-0.000557953
2.23267
1953.79
-0.000459124
2.40995
1951.36
0.000564138
2.42854
1948.92
0.000543642
2.4392
1946.5
0.000231433
2.42454
1944.11
0.000308906
2.38738
1941.78
-0.000541446
2.33533
1939.5
-0.00174815
2.28277
1937.27
-0.00116497
2.22592
1935.1
-4.67468e-05
2.16872
1932.99
0.00137707
2.11311
1930.93
0.00272731
2.0582
1928.92
0.00367374
2.00327
1926.97
0.00251774
1.95214
1925.06
-3.42796e-05
1.90729
1923.21
-0.00179235
1.85331
1921.41
-0.00295281
1.80437
1919.65
-0.00359442
1.75874
1917.94
-0.00382211
1.71581
1916.27
-0.00375509
1.67433
1914.64
-0.00355263
1.63248
1913.06
-0.00162609
1.58136
1911.53
0.000686473
1.5304
-0.00100729
1.34672
1958.44
0.000746689
1.56712
1956.2
0.000615568
2.2354
1953.79
-6.70883e-05
2.4111
1951.36
0.000202077
2.42863
1948.92
0.00044183
2.43893
1946.5
0.000426212
2.42433
1944.11
0.000528209
2.38677
1941.77
0.00119152
2.3381
1939.48
0.00282034
2.28624
1937.25
0.00398903
2.22616
1935.07
0.00425452
2.1693
1932.96
0.00556174
2.11357
1930.9
0.00289272
2.05709
1928.9
-0.00388417
2.00274
1926.97
-0.0062229
1.9447
1925.08
-0.00529407
1.89677
1923.23
-0.00441322
1.84953
1921.43
-0.00482739
1.8032
1919.67
-0.00494327
1.75931
1917.95
-0.00417104
1.7176
1916.28
-0.0022412
1.67638
1914.64
0.000186967
1.63406
1913.05
0.00068579
1.58865
1911.51
0.000545581
1.53624
-0.000841491
1.34618
1958.43
0.000206674
1.56648
1956.2
0.000274187
2.23544
1953.79
1.20903e-05
2.41156
1951.36
0.000108279
2.42869
1948.92
0.000348675
2.43897
1946.5
0.000362217
2.42437
1944.11
0.000339074
2.38571
1941.78
-0.000135322
2.33614
1939.5
-0.000887856
2.27998
1937.28
-4.92174e-05
2.22383
1935.12
0.00274849
2.16595
1933.01
0.00587808
2.10885
1930.95
0.0059066
2.0547
1928.94
0.00364731
2.00344
1926.98
0.00252278
1.95365
1925.07
0.0010827
1.90483
1923.2
-0.00214602
1.86124
1921.39
-0.00429384
1.80974
1919.63
-0.00582314
1.76313
1917.91
-0.00690071
1.71945
1916.24
-0.00576153
1.67646
1914.61
-0.00443715
1.63336
1913.03
-0.00337558
1.58073
1911.51
-0.00159018
1.52877
-0.000246685
1.34011
1958.43
7.54032e-05
1.56631
1956.2
0.000184843
2.23517
1953.79
0.000147517
2.41132
1951.36
0.000198853
2.4286
1948.92
0.000225114
2.43887
1946.5
0.000347233
2.42433
1944.11
0.000181456
2.38665
1941.77
0.000651997
2.33796
1939.48
0.0026293
2.28503
1937.25
0.00355684
2.22718
1935.08
0.00204429
2.16848
1932.98
-0.000852756
2.10747
1930.95
-0.00345016
2.04558
1928.96
-0.00349157
1.99477
1927.02
-0.000296171
1.94573
1925.12
0.00143493
1.89849
1923.26
0.00108785
1.85286
1921.45
0.000291863
1.8086
1919.68
7.74168e-05
1.76587
1917.95
0.0005048
1.72373
1916.25
-0.000695291
1.68777
1914.61
-0.00235839
1.64294
1913.02
-0.00431661
1.5886
1911.49
-0.00392652
1.53533
-0.00112872
1.34553
1958.43
5.50088e-05
1.56627
1956.2
0.000152835
2.23508
1953.79
0.000195449
2.41131
1951.36
0.000184386
2.42859
1948.92
0.000183919
2.4389
1946.5
0.000147401
2.42428
1944.11
3.59293e-05
2.38669
1941.77
0.000446888
2.3375
1939.49
0.000528389
2.28006
1937.27
0.000253186
2.2228
1935.11
0.000502601
2.16408
1933.01
-0.000686531
2.1064
1930.95
-0.00203416
2.05289
1928.95
-0.00172045
2.00324
1926.99
-0.00114279
1.95597
1925.09
0.000825618
1.9005
1923.24
0.00164782
1.85269
1921.43
0.00180624
1.80718
1919.67
0.00202108
1.76365
1917.94
0.00221095
1.72206
1916.26
0.0017453
1.68021
1914.62
0.00121907
1.63767
1913.03
0.000795333
1.58537
1911.48
-0.000993833
1.53824
-0.00103068
1.35195
1958.43
5.23908e-05
1.56625
1956.2
0.000159866
2.23507
1953.79
0.000193314
2.41127
1951.36
0.000210514
2.42858
1948.92
0.000168222
2.43889
1946.5
0.000155327
2.42418
1944.11
0.000150186
2.38689
1941.78
-0.000881992
2.33462
1939.5
-0.000847689
2.28156
1937.27
0.00109903
2.22343
1935.1
0.00247287
2.16504
1932.99
0.00278606
2.10848
1930.93
0.00267684
2.05622
1928.92
0.00249425
2.0057
1926.96
0.00165862
1.95416
1925.06
0.000347385
1.907
1923.21
-0.000747876
1.85353
1921.4
-0.00125393
1.80676
1919.65
-0.00165571
1.76188
1917.93
-0.00165756
1.7188
1916.26
-0.00167881
1.67636
1914.63
-0.0013672
1.63355
1913.04
-0.000453525
1.58194
1911.51
8.64297e-05
1.52969
0.000292382
1.34642
1958.43
5.35189e-05
1.56625
1956.2
0.000149625
2.23506
1953.79
0.000213264
2.41127
1951.36
0.000193164
2.42858
1948.92
0.000201359
2.4389
1946.5
5.55601e-05
2.42433
1944.11
-6.76848e-05
2.38663
1941.77
-0.000701001
2.33829
1939.49
-0.00281097
2.28407
1937.27
-0.00341951
2.22069
1935.11
-0.00149133
2.16186
1933.01
0.00108461
2.10505
1930.96
0.00343236
2.05294
1928.95
0.00615801
2.00278
1926.99
0.00618904
1.95257
1925.09
0.00229915
1.90717
1923.23
-0.00109052
1.85509
1921.42
-0.00270261
1.80835
1919.66
-0.00382894
1.76344
1917.94
-0.00405666
1.72015
1916.27
-0.00383359
1.67774
1914.64
-0.00352534
1.63477
1913.05
-0.000974385
1.58263
1911.52
0.00174534
1.53023
0.00134782
1.34678
1958.43
5.32455e-05
1.56624
1956.2
0.000144208
2.23505
1953.79
0.00018829
2.41124
1951.36
0.000173479
2.42858
1948.92
0.000159824
2.43885
1946.5
8.37825e-06
2.42429
1944.11
-0.000114809
2.38658
1941.77
-2.0033e-05
2.33808
1939.48
0.000233537
2.28615
1937.25
0.000960289
2.22494
1935.08
0.00278935
2.16592
1932.97
0.00427685
2.10808
1930.91
0.00441096
2.05437
1928.91
0.00274835
2.00446
1926.97
0.000476052
1.94536
1925.08
-0.00184866
1.89589
1923.24
-0.00344561
1.85042
1921.43
-0.00437754
1.80603
1919.67
-0.00583222
1.76292
1917.95
-0.00503633
1.72086
1916.27
-0.00302884
1.67917
1914.63
-0.000510514
1.636
1913.04
0.000685229
1.58955
1911.5
0.00125539
1.53646
0.00112231
1.34646
1958.43
5.21968e-05
1.56624
1956.2
0.000118106
2.23504
1953.79
0.00016093
2.41123
1951.36
0.000144147
2.42859
1948.92
6.75877e-05
2.43881
1946.5
-1.34677e-05
2.42429
1944.11
-0.00021684
2.3866
1941.77
-0.000957943
2.33802
1939.49
-0.00110548
2.28479
1937.26
-0.00134798
2.22699
1935.1
-0.00276269
2.1654
1933.01
-0.00238295
2.10079
1930.97
-0.000708848
2.04761
1928.97
0.00170716
1.99701
1927.02
0.00413063
1.94711
1925.11
0.00322427
1.90072
1923.25
0.00103548
1.85625
1921.44
1.69759e-05
1.81193
1919.66
-9.82845e-05
1.76767
1917.93
-0.00105555
1.73076
1916.24
-0.00159838
1.68593
1914.6
-0.00166638
1.64055
1913.02
-0.00203524
1.58603
1911.49
-0.00108059
1.53075
-0.000117871
1.34558
1958.43
4.64756e-05
1.56623
1956.2
9.71907e-05
2.23505
1953.79
0.000119982
2.41123
1951.36
7.91789e-05
2.42858
1948.92
4.82127e-05
2.43881
1946.5
1.94266e-07
2.4243
1944.11
-0.000141636
2.38643
1941.77
0.000101553
2.33852
1939.48
-0.000443968
2.28267
1937.26
-0.000917934
2.22563
1935.09
0.0014945
2.16621
1932.97
0.00469699
2.10848
1930.91
0.00638307
2.05478
1928.9
0.00547376
2.00191
1926.96
0.00169651
1.95166
1925.06
-0.00205838
1.89768
1923.22
-0.00389476
1.85229
1921.41
-0.0045492
1.80722
1919.66
-0.00540172
1.76357
1917.94
-0.00613624
1.72118
1916.26
-0.00456328
1.67849
1914.63
-0.00191316
1.63524
1913.04
0.000854591
1.58228
1911.51
0.00154632
1.53467
0.000249134
1.34926
1958.43
3.93401e-05
1.56623
1956.2
6.853e-05
2.23505
1953.79
6.36472e-05
2.41122
1951.36
2.15867e-05
2.42859
1948.92
-3.8342e-05
2.43881
1946.5
-0.000120086
2.42423
1944.11
-0.000183673
2.38657
1941.77
-0.000227965
2.33824
1939.48
-0.000451304
2.28549
1937.26
-0.000232287
2.2268
1935.09
0.000802471
2.16753
1932.99
0.00147007
2.1069
1930.95
0.00143217
2.04531
1928.96
0.00033654
1.99244
1927.02
-0.00140692
1.94213
1925.12
-0.00292998
1.89814
1923.27
-0.00318116
1.85557
1921.45
-0.0029366
1.81167
1919.68
-0.00253195
1.76854
1917.95
-0.00189512
1.72552
1916.26
-0.00062382
1.68817
1914.62
0.000786468
1.64229
1913.03
0.00177259
1.58736
1911.49
0.00193887
1.53335
0.00112171
1.34384
1958.43
3.14971e-05
1.56623
1956.2
3.84284e-05
2.23505
1953.79
5.3194e-06
2.41122
1951.36
-4.77952e-05
2.42859
1948.92
-0.000139845
2.4388
1946.5
-0.000252921
2.42422
1944.11
-0.000281797
2.38652
1941.77
-0.000166312
2.33804
1939.48
7.98377e-05
2.28519
1937.26
0.00041572
2.22702
1935.09
0.000401447
2.16719
1932.99
-0.00147364
2.10549
1930.95
-0.00336244
2.04402
1928.96
-0.00439112
1.99129
1927.02
-0.00422545
1.94166
1925.12
-0.00316594
1.89836
1923.27
-0.00155733
1.85628
1921.45
-0.000281974
1.81285
1919.68
0.000282658
1.77012
1917.95
0.00257741
1.72719
1916.25
0.00322882
1.68971
1914.61
0.00327927
1.64346
1913.02
0.0029493
1.58801
1911.49
0.00205967
1.53367
0.00170108
1.34402
1958.43
2.45862e-05
1.56624
1956.2
6.27865e-06
2.23505
1953.79
-3.36006e-05
2.41124
1951.36
-0.000108772
2.4286
1948.92
-0.000227534
2.43881
1946.5
-0.000309588
2.42428
1944.11
-0.000453458
2.38654
1941.77
-0.000807569
2.33783
1939.49
-0.00139915
2.28432
1937.26
-0.00333462
2.22663
1935.11
-0.00572665
2.16493
1933.01
-0.00645771
2.09913
1930.97
-0.0067744
2.04535
1928.98
-0.00551081
1.99396
1927.03
-0.00257574
1.94478
1925.13
0.00136571
1.90122
1923.26
0.00386606
1.85856
1921.44
0.00527828
1.81443
1919.66
0.0066051
1.77032
1917.93
0.00561952
1.73345
1916.24
0.00467171
1.68766
1914.6
0.00340527
1.64114
1913.01
0.00183546
1.58605
1911.48
0.000801413
1.53075
0.000512044
1.34589
1958.43
1.94706e-05
1.56624
1956.2
-1.2292e-05
2.23506
1953.79
-6.21758e-05
2.41124
1951.36
-0.000118374
2.42861
1948.92
-0.000257831
2.43884
1946.5
-0.000349479
2.42428
1944.11
-0.000417405
2.38664
1941.77
-0.000887405
2.33834
1939.48
-0.000782841
2.2856
1937.25
-0.00237889
2.22775
1935.09
-0.00659508
2.16844
1932.98
-0.0110234
2.10752
1930.94
-0.0131986
2.04658
1928.96
-0.0115012
1.99396
1927.02
-0.00581355
1.94329
1925.12
0.00218412
1.89838
1923.26
0.00682396
1.85535
1921.44
0.00882147
1.8115
1919.67
0.0104207
1.76853
1917.94
0.0115774
1.72532
1916.25
0.00964021
1.68818
1914.6
0.00641502
1.64232
1913.01
0.0029747
1.58749
1911.48
0.000138814
1.5338
0.000593844
1.34407
1958.43
1.64753e-05
1.56624
1956.2
-2.75794e-05
2.23507
1953.79
-5.43917e-05
2.41126
1951.36
-9.92786e-05
2.42861
1948.92
-0.000168873
2.43887
1946.49
-0.000208933
2.42437
1944.11
-3.41606e-05
2.38661
1941.77
0.000319054
2.33894
1939.48
0.000944784
2.28371
1937.25
0.00154247
2.22781
1935.07
0.00085247
2.16983
1932.95
-0.00151561
2.11394
1930.88
-0.00295571
2.0614
1928.86
-0.00242939
2.00655
1926.9
-0.00184292
1.95829
1925
-0.00262299
1.90749
1923.15
-0.00159298
1.85231
1921.36
0.000660769
1.80441
1919.61
0.00281671
1.75875
1917.9
0.00463804
1.71559
1916.23
0.00490327
1.673
1914.6
0.0039016
1.63043
1913.02
0.0024089
1.57918
1911.49
0.00271877
1.52745
0.00252072
1.34544
1958.43
-5.47963e-06
1.56626
1956.2
-5.91676e-05
2.2351
1953.79
-2.6623e-05
2.41129
1951.36
-6.35727e-05
2.42863
1948.92
-0.000128133
2.4389
1946.49
-0.000123865
2.42444
1944.11
0.00019623
2.38662
1941.77
0.00175208
2.33882
1939.48
0.00260512
2.28291
1937.26
0.00322042
2.22593
1935.09
0.00360596
2.16769
1932.97
0.00144022
2.11167
1930.91
0.000130857
2.05853
1928.9
-0.00154877
2.00497
1926.96
-0.00690841
1.95393
1925.06
-0.00892773
1.89866
1923.22
-0.00576224
1.85185
1921.41
-0.00292555
1.80542
1919.66
-5.24933e-05
1.76027
1917.94
0.00251087
1.71734
1916.27
0.00412446
1.67497
1914.63
0.00511
1.63232
1913.05
0.00572867
1.58044
1911.51
0.00469929
1.53401
0.00204264
1.34893
1958.43
-0.000145267
1.5663
1956.2
-0.000184835
2.23517
1953.79
0.000101084
2.41133
1951.36
1.53975e-05
2.42862
1948.92
-0.000216489
2.43888
1946.5
-0.000144425
2.42446
1944.11
-0.000274041
2.38672
1941.77
0.000297414
2.33761
1939.49
0.000886271
2.2844
1937.27
-0.000994099
2.22509
1935.12
-0.00329644
2.16102
1933.02
-0.00487639
2.10562
1930.97
-0.00504807
2.05266
1928.97
-0.00430874
2.00054
1927.02
-0.00295065
1.95167
1925.1
-0.000820001
1.90536
1923.24
0.00166978
1.8586
1921.42
0.00448293
1.8107
1919.64
0.00524318
1.77051
1917.92
0.00530177
1.72432
1916.23
0.00494185
1.67926
1914.6
0.0042371
1.63456
1913.02
0.00297023
1.58136
1911.5
0.000924063
1.52977
0.00118914
1.34149
1958.43
-0.000704925
1.56647
1956.2
-0.000542653
2.23544
1953.79
0.000135912
2.41157
1951.36
-6.42412e-05
2.42871
1948.92
-0.000305674
2.43904
1946.5
-0.000197706
2.42434
1944.11
0.000274048
2.38693
1941.77
-0.000192489
2.33452
1939.49
0.0001883
2.28163
1937.27
0.001195
2.22403
1935.1
0.00105224
2.16713
1932.98
0.00105972
2.11263
1930.91
6.63491e-05
2.05957
1928.9
-0.000686956
2.00618
1926.94
0.000122646
1.9554
1925.03
-0.000944384
1.91067
1923.18
-0.00219689
1.85593
1921.38
-0.000923868
1.80613
1919.63
0.000412029
1.75923
1917.92
0.00127601
1.71525
1916.25
0.00163971
1.67276
1914.62
0.00164719
1.63014
1913.04
0.0020439
1.57879
1911.51
0.00257706
1.52711
0.00232343
1.34461
1958.44
-0.0034224
1.56711
1956.2
0.000579205
2.23539
1953.79
0.000515794
2.41111
1951.36
-0.000499188
2.42865
1948.92
-0.000421678
2.43898
1946.5
-0.000105061
2.42446
1944.11
-0.000125941
2.38655
1941.77
-0.00114806
2.33763
1939.49
-0.00215676
2.28321
1937.28
-0.00197222
2.22058
1935.11
-0.00159987
2.16386
1933.01
-0.000483096
2.10957
1930.95
0.000463746
2.05779
1928.94
0.00210873
2.0053
1926.98
0.00594564
1.95511
1925.06
0.0073627
1.90865
1923.19
0.0054454
1.85993
1921.37
0.00291715
1.81609
1919.61
0.00124261
1.76598
1917.89
-2.26511e-05
1.71921
1916.22
-0.00100998
1.67444
1914.59
-0.00197985
1.6303
1913.02
-0.00289351
1.57808
1911.5
-0.00173686
1.52536
0.00170604
1.34133
1958.43
1.56215
1956.2
2.23268
1953.79
2.40995
1951.36
2.42859
1948.92
2.43918
1946.5
2.42468
1944.11
2.38689
1941.77
2.33903
1939.49
2.28296
1937.26
2.22588
1935.09
2.16799
1932.98
2.11283
1930.92
2.05954
1928.91
2.0051
1926.97
1.95394
1925.07
1.8994
1923.23
1.8519
1921.43
1.8041
1919.67
1.75864
1917.95
1.71584
1916.28
1.67411
1914.64
1.63228
1913.06
1.58101
1911.52
1.53463
1.3486
1960.94
-0.00119423
0.622819
1961.7
-0.00265363
1.48055
1962.26
-0.00185603
1.84922
1962.64
-0.000682129
2.0498
1962.91
-0.0002588
2.16529
1963.11
-0.000184906
2.2216
1963.26
-9.72947e-05
2.23873
1963.37
-0.000955736
2.2338
1963.43
-0.000697413
2.21927
1963.46
0.000366467
2.19506
1963.46
0.000689377
2.16637
1963.44
0.00106975
2.13356
1963.4
0.00131805
2.09893
1963.34
0.00144773
2.06468
1963.26
0.00365379
2.03164
1963.16
0.00376398
1.99667
1963.06
0.000691226
1.95507
1962.95
-0.00063114
1.9171
1962.82
-0.00144686
1.88261
1962.69
-0.00196821
1.85045
1962.55
-0.00226076
1.81858
1962.4
-0.00222795
1.78655
1962.24
-0.00365697
1.74638
1962.05
-0.00264179
1.71696
-0.000388446
1.58937
1960.94
-8.16524e-05
0.621988
1961.7
-0.00102458
1.47963
1962.26
-0.00106737
1.84844
1962.64
-0.000648554
2.04901
1962.91
-0.000191926
2.16473
1963.12
8.78335e-05
2.22131
1963.26
0.00055421
2.23861
1963.37
0.00103849
2.2347
1963.43
0.00236363
2.22007
1963.46
0.00177327
2.19545
1963.46
0.00247821
2.16659
1963.44
0.00247278
2.13321
1963.4
0.00336977
2.09838
1963.33
0.00525589
2.06406
1963.25
0.00170964
2.02862
1963.16
-0.00250163
1.99311
1963.06
-0.00574266
1.95443
1962.95
-0.00505037
1.91786
1962.83
-0.00451714
1.88411
1962.7
-0.00426696
1.85246
1962.55
-0.00451529
1.82081
1962.4
-0.00364823
1.78882
1962.24
-0.000693872
1.74991
1962.05
0.00055834
1.71982
0.000688261
1.59029
1960.94
1.84452e-05
0.62225
1961.7
-0.000196427
1.47985
1962.26
-0.00028289
1.84878
1962.64
-0.000128667
2.04884
1962.91
6.97539e-05
2.16452
1963.12
0.000142434
2.22109
1963.27
-0.000138476
2.23814
1963.37
-0.000327213
2.23415
1963.43
-0.000688858
2.21849
1963.47
-0.000347601
2.19436
1963.47
0.000179369
2.16505
1963.45
0.00156885
2.13292
1963.4
0.00393081
2.09827
1963.35
0.00402899
2.06205
1963.27
0.00242537
2.02992
1963.17
0.00157762
1.99801
1963.06
0.00239405
1.96028
1962.95
0.000215863
1.92085
1962.82
-0.00175786
1.88531
1962.69
-0.00305097
1.85245
1962.55
-0.00562683
1.82012
1962.39
-0.00536258
1.78746
1962.23
-0.00444278
1.74676
1962.05
-0.00434983
1.7168
-0.00322176
1.5883
1960.94
3.9107e-05
0.622288
1961.7
4.76693e-05
1.48003
1962.26
1.66449e-05
1.84889
1962.64
5.74939e-05
2.04901
1962.91
0.000111195
2.16463
1963.12
0.000172621
2.22116
1963.27
0.000327131
2.23845
1963.37
0.000934302
2.23452
1963.43
0.00228325
2.21945
1963.46
0.00280551
2.19535
1963.46
0.00305007
2.16543
1963.44
0.00192846
2.13131
1963.39
-0.000600749
2.09428
1963.34
-0.00221088
2.05783
1963.26
-0.00445193
2.02657
1963.17
-0.00274818
1.99522
1963.07
-0.00025576
1.95798
1962.95
0.000734204
1.92163
1962.83
0.000770819
1.88812
1962.69
0.000758962
1.85655
1962.55
0.00242911
1.82613
1962.39
0.00210995
1.79298
1962.22
0.000950188
1.75111
1962.03
-0.00186429
1.72032
-0.00304155
1.59033
1960.94
4.81514e-05
0.622297
1961.7
0.000116061
1.48008
1962.26
0.00014163
1.84895
1962.64
0.000156327
2.04906
1962.91
0.00017143
2.16463
1963.12
0.000199805
2.22114
1963.27
0.000221939
2.23836
1963.37
0.000911853
2.23412
1963.43
0.000140269
2.21807
1963.47
0.000906004
2.19362
1963.47
0.000773947
2.16372
1963.44
0.000454643
2.13114
1963.4
0.000158961
2.09637
1963.34
-0.000352363
2.06087
1963.26
-0.000866055
2.03041
1963.17
-0.00350935
1.99665
1963.07
-0.0014404
1.95711
1962.95
-0.0003164
1.9195
1962.83
0.000218863
1.88563
1962.7
0.000954939
1.85405
1962.56
0.00171348
1.82261
1962.41
0.00189804
1.7904
1962.24
0.00154255
1.74982
1962.05
0.00253177
1.72141
0.00100852
1.59268
1960.94
4.93899e-05
0.622295
1961.7
0.000137047
1.48009
1962.26
0.000183567
1.84895
1962.64
0.00019317
2.04908
1962.91
0.000157696
2.16465
1963.12
3.99414e-05
2.22114
1963.27
-0.000193705
2.23835
1963.37
-0.00141216
2.23342
1963.44
-0.00126054
2.21837
1963.47
0.000503749
2.19356
1963.47
0.00112661
2.16432
1963.44
0.00169309
2.13186
1963.4
0.00200703
2.09681
1963.34
0.00232088
2.06154
1963.26
0.00253791
2.03108
1963.16
0.00161274
1.99921
1963.06
0.00038455
1.95759
1962.95
-0.000761432
1.91892
1962.83
-0.00160329
1.88466
1962.69
-0.00195007
1.85268
1962.55
-0.00197008
1.82075
1962.4
-0.0017791
1.78844
1962.24
-0.00184704
1.74782
1962.05
-0.000747543
1.71818
0.000149724
1.59077
1960.94
5.10169e-05
0.622295
1961.7
0.000145335
1.48009
1962.26
0.000198067
1.84896
1962.64
0.00020005
2.04909
1962.91
0.000167593
2.16468
1963.12
4.42413e-05
2.22123
1963.27
-0.000249724
2.23853
1963.37
-0.00077883
2.23461
1963.43
-0.00157663
2.2194
1963.46
-0.00192239
2.19295
1963.47
-0.0010818
2.16303
1963.44
0.000239488
2.13022
1963.4
0.00113719
2.0953
1963.34
0.00160729
2.06024
1963.26
0.00461421
2.02998
1963.17
0.00643941
1.99905
1963.06
0.0035485
1.95833
1962.95
0.000786286
1.92011
1962.83
-0.00159412
1.88598
1962.69
-0.00324629
1.85394
1962.55
-0.00376333
1.82177
1962.4
-0.00352929
1.78925
1962.23
-0.00471705
1.74855
1962.05
-0.00315059
1.7185
7.51754e-05
1.59077
1960.94
5.06755e-05
0.622289
1961.7
0.000137858
1.48009
1962.26
0.000183318
1.84894
1962.64
0.000182029
2.04909
1962.91
0.000150322
2.16467
1963.12
5.21247e-05
2.22125
1963.27
-9.10565e-05
2.23868
1963.37
-0.000283803
2.23501
1963.43
-0.000346576
2.2203
1963.46
-0.00159504
2.19461
1963.46
-0.0004879
2.16462
1963.44
0.00247844
2.13113
1963.39
0.00369372
2.09525
1963.34
0.00427832
2.05932
1963.26
0.00253597
2.02619
1963.17
0.0019436
1.99349
1963.06
-0.00016439
1.95475
1962.96
-0.00222206
1.9183
1962.84
-0.0037232
1.88538
1962.7
-0.00629549
1.85452
1962.56
-0.00621914
1.82296
1962.41
-0.00489072
1.79078
1962.25
-0.00163742
1.75159
1962.06
0.000342343
1.72123
0.00041661
1.59124
1960.94
4.99541e-05
0.622286
1961.7
0.000116694
1.48008
1962.26
0.000151403
1.84893
1962.64
0.000143335
2.04908
1962.91
9.09202e-05
2.16466
1963.12
-8.41088e-06
2.22126
1963.27
-0.000104039
2.23872
1963.37
-0.000243276
2.2351
1963.43
0.000203735
2.22018
1963.46
-3.11953e-07
2.19538
1963.46
-1.3766e-05
2.16414
1963.44
-0.000807462
2.12847
1963.4
0.000126193
2.09266
1963.34
-0.000374142
2.05717
1963.27
-0.00190592
2.02648
1963.17
0.000322718
1.99511
1963.07
0.00121792
1.95828
1962.96
0.000891585
1.92265
1962.83
-1.79618e-05
1.88949
1962.7
0.000604891
1.85942
1962.55
-0.000436166
1.82661
1962.39
-0.000519349
1.79265
1962.23
0.000145555
1.75043
1962.04
-0.000958206
1.71888
-0.000310765
1.58959
1960.94
4.51956e-05
0.622283
1961.7
9.4727e-05
1.48008
1962.26
0.000113382
1.84892
1962.64
9.13212e-05
2.04908
1962.91
4.71211e-05
2.16466
1963.12
-2.70279e-05
2.22127
1963.27
-0.000228639
2.23872
1963.37
-0.000466077
2.23516
1963.43
-0.00159339
2.21977
1963.46
-0.00155114
2.1955
1963.47
-0.00141096
2.16514
1963.44
0.00035599
2.13109
1963.4
0.0039036
2.09452
1963.34
0.00475567
2.05906
1963.25
0.00484174
2.02865
1963.16
0.00231909
1.9936
1963.05
0.00035747
1.95456
1962.95
-0.00127163
1.91857
1962.83
-0.00238993
1.88596
1962.7
-0.00293895
1.85532
1962.56
-0.0054369
1.82408
1962.4
-0.00478404
1.7915
1962.24
-0.00298736
1.75031
1962.05
0.000281489
1.72113
0.0018633
1.59186
1960.94
3.94228e-05
0.622281
1961.7
6.822e-05
1.48008
1962.26
6.37591e-05
1.84892
1962.64
2.79083e-05
2.04908
1962.91
-2.34159e-05
2.16466
1963.12
-0.000101133
2.22126
1963.27
-0.000222319
2.23878
1963.37
-0.000369734
2.23528
1963.43
-0.000676823
2.22077
1963.46
-0.000879092
2.19599
1963.46
-0.00031096
2.16534
1963.44
0.000795266
2.12964
1963.4
0.0011237
2.09044
1963.34
0.00115174
2.05509
1963.26
0.000745303
2.02517
1963.17
-0.000119759
1.99301
1963.07
-0.00100705
1.95618
1962.96
-0.00173619
1.92161
1962.84
-0.0022829
1.88933
1962.7
-0.00252889
1.85848
1962.56
-0.00237392
1.8283
1962.41
-0.00146538
1.79458
1962.24
-0.000167553
1.75177
1962.05
0.00133279
1.71999
0.00152579
1.58951
1960.94
3.34975e-05
0.622281
1961.7
4.02036e-05
1.48008
1962.26
1.20746e-05
1.84892
1962.64
-4.13706e-05
2.04908
1962.91
-0.000112449
2.16466
1963.12
-0.000187817
2.22126
1963.26
-0.000268167
2.23878
1963.37
-0.000313606
2.23531
1963.43
-0.000273137
2.22098
1963.46
-0.000590355
2.19641
1963.46
-0.000242335
2.16546
1963.44
0.00035272
2.12912
1963.4
-0.00201994
2.08969
1963.34
-0.00268799
2.05435
1963.26
-0.00283735
2.02447
1963.17
-0.0025795
1.99264
1963.07
-0.002036
1.95621
1962.96
-0.00130745
1.92197
1962.84
-0.000407179
1.88993
1962.7
-0.0011737
1.85946
1962.56
0.0016067
1.82936
1962.41
0.00247688
1.79557
1962.24
0.00266266
1.75258
1962.05
0.00273638
1.72047
0.00106099
1.58985
1960.94
2.83688e-05
0.622282
1961.7
1.63958e-05
1.48008
1962.26
-2.78504e-05
1.84893
1962.64
-9.77989e-05
2.04909
1962.91
-0.000195917
2.16467
1963.12
-0.000307036
2.22127
1963.27
-0.000381076
2.23879
1963.37
-0.000499603
2.23526
1963.43
-0.000652821
2.22077
1963.46
-0.00105557
2.19625
1963.46
-0.00282696
2.16463
1963.44
-0.00546259
2.12786
1963.4
-0.0050416
2.09069
1963.34
-0.00541238
2.05588
1963.26
-0.005077
2.02631
1963.17
-0.00332532
1.99457
1963.07
-0.000390082
1.958
1962.96
0.00235481
1.92334
1962.83
0.00464337
1.89071
1962.69
0.00770496
1.86101
1962.55
0.00691322
1.82857
1962.39
0.00612024
1.79413
1962.23
0.00478706
1.75095
1962.04
0.00254341
1.71871
0.0016786
1.58941
1960.94
2.55849e-05
0.622283
1961.7
6.06832e-06
1.48009
1962.26
-4.17107e-05
1.84894
1962.64
-0.000105647
2.04911
1962.91
-0.000200413
2.16471
1963.12
-0.000287435
2.22134
1963.26
-0.000227002
2.23888
1963.37
-0.000164369
2.2354
1963.43
0.000724069
2.22092
1963.46
0.000178915
2.19653
1963.46
-0.00139961
2.16598
1963.44
-0.00457156
2.13036
1963.4
-0.00808609
2.09172
1963.34
-0.00910909
2.0566
1963.26
-0.0100941
2.02677
1963.17
-0.00777202
1.99438
1963.07
-0.00214852
1.95675
1962.96
0.00245544
1.92158
1962.84
0.00590547
1.88896
1962.7
0.00849069
1.85802
1962.56
0.0116065
1.82752
1962.4
0.0108418
1.79384
1962.24
0.00854318
1.75116
1962.05
0.00521451
1.71946
0.00137491
1.58938
1960.94
2.64521e-05
0.622285
1961.7
1.54282e-05
1.48009
1962.26
-5.10899e-06
1.84895
1962.64
-5.22413e-05
2.04912
1962.91
-0.000111847
2.16474
1963.12
-0.000119789
2.22141
1963.26
2.05387e-07
2.2389
1963.37
0.000265631
2.23539
1963.43
0.000715591
2.22005
1963.46
0.00101783
2.19629
1963.46
0.000633266
2.16701
1963.44
-0.000896495
2.13415
1963.4
-0.00312323
2.09828
1963.34
-0.00466916
2.06308
1963.25
-0.00302386
2.0338
1963.15
-8.05357e-05
1.99948
1963.05
-0.000912313
1.95694
1962.94
-0.00061389
1.91832
1962.82
0.000295406
1.88395
1962.69
0.00218146
1.85175
1962.55
0.00417141
1.8197
1962.4
0.00470983
1.787
1962.24
0.00409354
1.74602
1962.05
0.00151164
1.71629
0.00147031
1.58936
1960.94
2.99801e-05
0.622285
1961.7
7.39071e-05
1.48008
1962.26
0.000108852
1.84894
1962.64
6.66005e-05
2.04911
1962.91
4.86577e-06
2.16472
1963.12
3.90844e-05
2.22138
1963.26
0.000209559
2.23881
1963.37
0.000632514
2.23515
1963.43
0.000239751
2.21952
1963.46
0.000977394
2.19537
1963.46
0.0020495
2.1657
1963.44
0.00177389
2.13305
1963.4
-1.09512e-05
2.09792
1963.34
-0.0011578
2.06338
1963.25
0.00101516
2.03305
1963.15
-0.000638046
1.9969
1963.05
-0.00307626
1.9559
1962.94
-0.00386087
1.9183
1962.82
-0.00443317
1.88455
1962.69
-0.00220765
1.85252
1962.55
0.00013795
1.82033
1962.4
0.00172266
1.78763
1962.23
0.0028197
1.74683
1962.05
0.00469402
1.71844
0.00458545
1.59041
1960.94
4.15053e-05
0.622276
1961.7
0.000295953
1.48003
1962.26
0.000394687
1.8489
1962.64
0.000247438
2.04906
1962.91
5.88359e-05
2.16471
1963.12
9.90283e-05
2.22135
1963.27
0.000253041
2.23869
1963.37
0.00128937
2.23475
1963.43
0.00132123
2.21965
1963.46
0.000855795
2.19428
1963.46
-0.00128501
2.16299
1963.44
-0.00204771
2.12992
1963.4
-0.00279838
2.09666
1963.34
-0.00354616
2.06361
1963.27
-0.00378692
2.03145
1963.18
-0.00420251
1.99806
1963.07
-0.00192517
1.96034
1962.96
-0.000542192
1.92325
1962.83
0.00276351
1.88986
1962.69
0.00388751
1.85595
1962.55
0.00426865
1.82168
1962.39
0.00431494
1.78734
1962.23
0.00429515
1.74523
1962.04
0.00451179
1.71496
0.00228026
1.58687
1960.94
0.000127278
0.622236
1961.7
0.00109083
1.47985
1962.26
0.00114771
1.84879
1962.64
0.000744981
2.04889
1962.91
0.000324748
2.1646
1963.12
0.000102561
2.22121
1963.27
1.82029e-05
2.2385
1963.37
-0.000856365
2.23373
1963.43
-0.000419656
2.21887
1963.46
0.00060951
2.19412
1963.47
6.23816e-05
2.16508
1963.44
-0.000436583
2.13263
1963.4
1.02734e-05
2.09948
1963.34
0.000315819
2.06646
1963.26
-0.000383818
2.03376
1963.16
0.000791094
1.99924
1963.06
7.95559e-05
1.95843
1962.94
-0.00137424
1.92039
1962.82
-0.000270679
1.88527
1962.69
0.000525576
1.85188
1962.54
0.000933917
1.81868
1962.39
0.000879042
1.78551
1962.23
0.000453641
1.74443
1962.05
3.99543e-05
1.71461
0.000395494
1.58798
1960.94
0.00121568
0.621972
1961.7
0.00268208
1.47963
1962.26
0.00189543
1.84845
1962.64
0.000726492
2.04905
1962.91
0.000317381
2.16479
1963.12
0.000164661
2.2214
1963.27
-9.22931e-05
2.23864
1963.37
-0.00057287
2.23464
1963.43
-0.000343643
2.21916
1963.46
-0.00201661
2.19302
1963.46
-0.00211029
2.16404
1963.44
-0.00158136
2.13202
1963.4
-0.000769394
2.09846
1963.34
-0.000595923
2.06552
1963.27
-0.00152165
2.03457
1963.17
0.00127766
2.00036
1963.07
0.00306736
1.96084
1962.95
0.00535221
1.9242
1962.83
0.00453564
1.8881
1962.69
0.00314169
1.85353
1962.54
0.00177847
1.81922
1962.39
0.000420674
1.78512
1962.23
-0.0009721
1.74341
1962.04
-0.00375334
1.71313
-0.00258586
1.58617
1960.94
0.622802
1961.7
1.48055
1962.26
1.84923
1962.64
2.04986
1962.91
2.16536
1963.11
2.22176
1963.26
2.23895
1963.37
2.23501
1963.43
2.21894
1963.46
2.19469
1963.46
2.16557
1963.44
2.13272
1963.4
2.0978
1963.34
2.06397
1963.26
2.03328
1963.16
1.99645
1963.06
1.95561
1962.95
1.91812
1962.83
1.88353
1962.7
1.85094
1962.56
1.8185
1962.4
1.78594
1962.24
1.74547
1962.05
1.71765
1.58925
1960.26
0.000242284
0.361397
1960.72
0.000927285
1.0251
1961.18
0.000998673
1.38437
1961.64
0.00103331
1.58558
1962.08
0.000923327
1.72726
1962.48
0.000726992
1.82357
1962.84
0.000543976
1.87091
1963.19
0.000256753
1.89256
1963.51
0.000225919
1.8989
1963.81
0.000294679
1.89397
1964.09
0.000403741
1.88138
1964.36
0.000477421
1.86279
1964.62
0.000421777
1.84005
1964.87
0.000373053
1.81492
1965.12
0.000536318
1.78448
1965.36
0.000266534
1.75383
1965.59
-0.000569565
1.72739
1965.8
-0.00100202
1.70232
1966.01
-0.00124576
1.67763
1966.21
-0.00139137
1.65416
1966.4
-0.00142179
1.6309
1966.57
-0.00134914
1.60947
1966.74
-0.00140702
1.58551
1966.88
-0.0011397
1.57868
-0.000644758
1.53864
1960.26
1.42099e-05
0.360525
1960.72
0.000346834
1.02565
1961.18
0.000536684
1.38563
1961.64
0.000713617
1.58658
1962.08
0.000750765
1.72783
1962.48
0.000741649
1.82396
1962.84
0.000727741
1.87124
1963.19
0.00071332
1.89294
1963.51
0.000889246
1.89912
1963.81
0.000866818
1.89401
1964.09
0.00098489
1.88129
1964.36
0.000744393
1.86251
1964.62
0.000753251
1.83954
1964.87
0.00111435
1.81405
1965.12
0.000490019
1.78301
1965.36
-0.000875992
1.7524
1965.59
-0.00206301
1.72693
1965.8
-0.00197791
1.70249
1966.01
-0.00178479
1.67812
1966.21
-0.00167257
1.65491
1966.4
-0.00160195
1.63183
1966.57
-0.00133479
1.61054
1966.74
-0.000778722
1.58687
1966.88
-0.000516292
1.57976
-0.000376581
1.53908
1960.26
2.87642e-05
0.360479
1960.72
0.00015422
1.02558
1961.18
0.000293836
1.38562
1961.64
0.000386
1.58652
1962.08
0.000466812
1.72768
1962.48
0.000476428
1.8239
1962.84
0.000433827
1.87114
1963.19
0.00046271
1.89278
1963.51
0.000483817
1.89873
1963.81
0.000579809
1.89356
1964.09
0.000778614
1.88066
1964.36
0.00105019
1.86209
1964.62
0.00143902
1.83924
1964.87
0.00133016
1.81362
1965.12
0.000455127
1.78339
1965.36
-7.60075e-05
1.75416
1965.59
-0.000134086
1.72926
1965.8
-0.000713525
1.70395
1966.01
-0.00132065
1.67896
1966.21
-0.00177555
1.6552
1966.4
-0.00222749
1.63172
1966.57
-0.00215076
1.60997
1966.74
-0.00185395
1.5857
1966.88
-0.00161073
1.57848
-0.0010954
1.53832
1960.26
3.71032e-05
0.360468
1960.72
0.000125977
1.02554
1961.18
0.000217163
1.38555
1961.64
0.000291341
1.58644
1962.08
0.000347874
1.72764
1962.48
0.000383762
1.8238
1962.84
0.000451169
1.87108
1963.19
0.0006274
1.89273
1963.51
0.000912477
1.89872
1963.81
0.00112334
1.89352
1964.09
0.00116403
1.88033
1964.36
0.000868797
1.86112
1964.62
0.000382228
1.83755
1964.87
4.75093e-06
1.81181
1965.11
-0.000635457
1.78205
1965.36
-0.00079111
1.75304
1965.59
-0.000379483
1.72863
1965.8
-9.14438e-05
1.70454
1966.01
-9.19217e-05
1.68042