/*--------------------------------*- C++ -*----------------------------------*\
  =========                 |
  \\      /  F ield         | OpenFOAM: The Open Source CFD Toolbox
   \\    /   O peration     | Website:  https://openfoam.org
    \\  /    A nd           | Version:  12
     \\/     M anipulation  |
\*---------------------------------------------------------------------------*/
FoamFile
{
    format      ascii;
    class       volVectorField;
    location    "200";
    object      U;
}
// * * * * * * * * * * * * * * * * * * * * * * * * * * * * * * * * * * * * * //

dimensions      [0 1 -1 0 0 0 0];

internalField   nonuniform List<vector> 
5000
(
(9.9911 9.29938e-06 0.0034243)
(9.98604 3.04032e-06 0.00850362)
(9.97559 -7.86497e-07 0.0102192)
(9.96256 1.35099e-06 0.0109537)
(9.94966 1.96616e-06 0.0113567)
(9.93721 1.27588e-06 0.0115424)
(9.92498 7.65327e-07 0.0115687)
(9.9129 9.52778e-07 0.0114579)
(9.90115 1.32796e-06 0.011332)
(9.88964 2.88928e-06 0.0111366)
(9.87846 7.92436e-06 0.0109096)
(9.86752 1.37095e-05 0.0106705)
(9.85688 1.69943e-05 0.0104274)
(9.84648 1.74518e-05 0.0101843)
(9.8364 7.42872e-06 0.00995261)
(9.82654 -4.4228e-06 0.00977119)
(9.81695 -1.31351e-05 0.00945496)
(9.80764 -1.84855e-05 0.00918903)
(9.79856 -2.18748e-05 0.00894107)
(9.78973 -2.3717e-05 0.00870657)
(9.78109 -2.44321e-05 0.00848034)
(9.77268 -1.89352e-05 0.0082502)
(9.76447 -1.00075e-05 0.00799626)
(9.7567 -2.5062e-06 0.00769143)
(9.74717 -4.04795e-06 0.00711004)
(9.99108 1.19418e-05 0.00341355)
(9.986 2.6928e-06 0.0084842)
(9.97557 -1.81132e-06 0.0102066)
(9.96254 1.31606e-06 0.0109446)
(9.94964 2.83615e-06 0.0113501)
(9.9372 2.19077e-06 0.0115399)
(9.92496 1.9659e-06 0.0115679)
(9.91291 3.43759e-06 0.011496)
(9.90108 7.29356e-06 0.0113673)
(9.88952 1.21105e-05 0.0111319)
(9.87832 1.59715e-05 0.010914)
(9.86736 1.85113e-05 0.0106847)
(9.8567 1.06094e-05 0.0104442)
(9.84635 -4.73922e-06 0.0102303)
(9.83636 -1.23546e-05 0.00990751)
(9.82661 -1.45e-05 0.00965937)
(9.81705 -1.72305e-05 0.0094132)
(9.80776 -2.10734e-05 0.00917102)
(9.79867 -2.18648e-05 0.00893825)
(9.78982 -1.92216e-05 0.00871225)
(9.78115 -1.36149e-05 0.00848439)
(9.7727 -6.44741e-06 0.00824165)
(9.76442 -1.76587e-06 0.00807497)
(9.7566 8.22182e-07 0.00777806)
(9.74708 -5.75215e-06 0.00710834)
(9.99108 1.69007e-06 0.00341181)
(9.986 1.65597e-07 0.00848238)
(9.97557 -4.73115e-07 0.0102058)
(9.96254 8.508e-07 0.0109443)
(9.94964 1.86304e-06 0.0113498)
(9.93719 2.11565e-06 0.0115394)
(9.92496 3.1207e-06 0.0115552)
(9.91292 5.38038e-06 0.0114769)
(9.90113 1.08055e-05 0.0113084)
(9.88969 2.09883e-05 0.011129)
(9.87849 2.88163e-05 0.0108959)
(9.8676 3.23732e-05 0.0106568)
(9.85697 1.90789e-05 0.010418)
(9.84661 -1.44276e-06 0.0101815)
(9.83644 -1.04162e-05 0.00994198)
(9.82658 -1.78488e-05 0.00970316)
(9.81694 -2.58314e-05 0.00953478)
(9.80757 -3.13001e-05 0.00924472)
(9.79847 -3.41852e-05 0.00898499)
(9.78959 -2.92732e-05 0.00874033)
(9.78095 -1.73812e-05 0.00850461)
(9.77252 -8.52008e-06 0.00826775)
(9.76432 -3.57346e-06 0.00800822)
(9.75656 -7.38554e-07 0.00770741)
(9.74709 -2.22129e-06 0.0070403)
(9.99108 5.79773e-07 0.00341154)
(9.986 9.80584e-07 0.00848083)
(9.97557 8.07547e-07 0.0102045)
(9.96254 1.14157e-06 0.0109431)
(9.94964 1.7524e-06 0.0113487)
(9.93719 2.35409e-06 0.0115388)
(9.92496 3.0386e-06 0.0115672)
(9.91291 3.90493e-06 0.0114976)
(9.90109 7.22175e-06 0.0113574)
(9.88955 1.24948e-05 0.0111604)
(9.87832 1.76283e-05 0.0109425)
(9.86742 1.96416e-05 0.0106875)
(9.8569 1.67649e-05 0.0103616)
(9.84666 1.40924e-05 0.0101152)
(9.8366 1.40239e-05 0.00987931)
(9.82683 4.77114e-06 0.00965056)
(9.81725 -8.58673e-06 0.00942461)
(9.8079 -1.80588e-05 0.00919801)
(9.79875 -2.4228e-05 0.00896945)
(9.78982 -2.79547e-05 0.00872956)
(9.78107 -3.02108e-05 0.00858922)
(9.77254 -3.11703e-05 0.00834621)
(9.76428 -2.90773e-05 0.00807556)
(9.75647 -1.90718e-05 0.00777878)
(9.74697 -9.61231e-06 0.00710961)
(9.99108 2.98086e-07 0.00341152)
(9.986 8.1053e-07 0.0084804)
(9.97557 9.42526e-07 0.0102043)
(9.96254 1.16101e-06 0.0109428)
(9.94964 1.597e-06 0.0113486)
(9.93719 2.32393e-06 0.0115384)
(9.92497 2.47639e-06 0.011565)
(9.9129 2.72817e-06 0.0114885)
(9.9011 3.35382e-06 0.0113091)
(9.88966 5.9439e-07 0.0111263)
(9.87846 -5.74318e-06 0.0108908)
(9.86759 -1.4362e-05 0.0106466)
(9.85698 -2.01309e-05 0.0104027)
(9.84663 -1.3196e-05 0.0101747)
(9.83649 1.1276e-06 0.00999797)
(9.82668 1.34854e-05 0.00969464)
(9.81713 1.76415e-05 0.00944275)
(9.80778 1.92121e-05 0.00920047)
(9.79867 2.00444e-05 0.00896723)
(9.78976 1.84704e-05 0.00874165)
(9.78108 1.0818e-05 0.0085166)
(9.77259 1.45323e-06 0.00828043)
(9.76433 -7.71305e-06 0.00800983)
(9.75648 -1.16123e-05 0.00778372)
(9.74693 -4.82859e-06 0.00717631)
(9.99108 2.67519e-07 0.00341147)
(9.986 8.05756e-07 0.00848025)
(9.97557 1.11926e-06 0.0102041)
(9.96254 1.40539e-06 0.0109425)
(9.94964 1.71567e-06 0.0113482)
(9.93719 2.2091e-06 0.0115363)
(9.92497 2.55999e-06 0.0115647)
(9.91289 2.35282e-06 0.0114552)
(9.90114 3.2684e-06 0.0113284)
(9.88963 5.43402e-06 0.0111301)
(9.87845 6.11319e-06 0.0108998)
(9.86752 3.28758e-06 0.0106605)
(9.85691 -7.33389e-07 0.010423)
(9.8465 -3.16199e-06 0.0101827)
(9.83638 -3.20144e-06 0.00995147)
(9.82651 -1.46348e-06 0.00976936)
(9.81695 -2.49733e-07 0.00945719)
(9.80763 1.09078e-06 0.00920278)
(9.79854 2.56998e-06 0.00896002)
(9.78969 4.0498e-06 0.0087252)
(9.78104 4.94878e-06 0.00849584)
(9.77261 5.85953e-06 0.0082609)
(9.7644 5.36766e-06 0.00800018)
(9.75662 2.97654e-06 0.00768961)
(9.74709 2.86258e-06 0.00711037)
(9.99108 2.57779e-07 0.0034115)
(9.986 8.40271e-07 0.00848027)
(9.97557 1.18084e-06 0.0102042)
(9.96254 1.44228e-06 0.0109425)
(9.94964 1.78973e-06 0.0113483)
(9.93719 2.30597e-06 0.0115386)
(9.92497 2.98807e-06 0.0115653)
(9.91291 3.42102e-06 0.0114967)
(9.90108 3.46579e-06 0.011355)
(9.88961 6.34578e-06 0.0111048)
(9.87847 1.32537e-05 0.0108782)
(9.8676 2.05928e-05 0.0106355)
(9.85703 2.66205e-05 0.0103968)
(9.84664 3.03419e-05 0.0101561)
(9.83653 2.38327e-05 0.00992859)
(9.82666 9.43444e-06 0.00976213)
(9.81708 -3.69011e-06 0.00946351)
(9.80774 -1.34538e-05 0.00921048)
(9.79863 -2.14504e-05 0.00896899)
(9.78977 -2.59773e-05 0.00873499)
(9.7811 -2.79942e-05 0.00850574)
(9.77267 -2.48776e-05 0.00827)
(9.76444 -1.45131e-05 0.00800927)
(9.75666 -5.37738e-06 0.00769731)
(9.74713 -1.60517e-06 0.00711522)
(9.99108 2.5634e-07 0.00341146)
(9.986 7.67838e-07 0.0084802)
(9.97557 1.13812e-06 0.0102041)
(9.96255 1.37028e-06 0.0109425)
(9.94964 1.77449e-06 0.0113481)
(9.9372 2.01708e-06 0.0115384)
(9.92497 3.02361e-06 0.0115663)
(9.91292 5.10354e-06 0.0114946)
(9.90109 5.61249e-06 0.0113639)
(9.88953 9.02415e-06 0.0111257)
(9.87833 1.51341e-05 0.0109022)
(9.86739 2.02121e-05 0.0106624)
(9.8568 2.36098e-05 0.0104283)
(9.84641 1.93276e-05 0.0102272)
(9.83636 5.93749e-06 0.00990241)
(9.82663 -1.08366e-05 0.00965581)
(9.81708 -2.50798e-05 0.00941801)
(9.80777 -3.16103e-05 0.00918296)
(9.79867 -3.5283e-05 0.00895381)
(9.7898 -3.10467e-05 0.00872846)
(9.78112 -2.18902e-05 0.00849867)
(9.77266 -1.03962e-05 0.00825153)
(9.76438 1.84515e-06 0.008078)
(9.75656 9.62682e-06 0.0077834)
(9.74705 8.26396e-06 0.0071188)
(9.99108 2.36787e-07 0.00341146)
(9.986 6.64221e-07 0.00848017)
(9.97557 9.95467e-07 0.010204)
(9.96255 1.13358e-06 0.0109426)
(9.94964 1.32169e-06 0.011348)
(9.9372 1.63892e-06 0.0115381)
(9.92497 2.13891e-06 0.0115663)
(9.91292 2.42041e-06 0.0114954)
(9.90111 2.27219e-06 0.0113529)
(9.88958 2.00817e-06 0.0111664)
(9.87838 1.89866e-06 0.0109295)
(9.86755 2.9704e-06 0.010611)
(9.85703 4.63491e-06 0.0103672)
(9.84671 7.1212e-06 0.0101309)
(9.83664 6.37661e-06 0.00990022)
(9.82681 4.6437e-07 0.00967362)
(9.81722 -6.45169e-06 0.00944558)
(9.80783 -1.14615e-05 0.00921155)
(9.79869 -1.43986e-05 0.00896416)
(9.78972 -1.45297e-05 0.0088196)
(9.78099 -1.20024e-05 0.00857802)
(9.77251 -9.47961e-06 0.00832756)
(9.76426 -6.65978e-06 0.00805891)
(9.75649 -2.80857e-06 0.0077396)
(9.74701 -1.04595e-06 0.00712939)
(9.99108 2.06065e-07 0.00341145)
(9.986 5.05553e-07 0.00848019)
(9.97557 7.36824e-07 0.0102041)
(9.96255 7.38624e-07 0.0109425)
(9.94964 8.18941e-07 0.0113479)
(9.9372 1.07365e-06 0.0115382)
(9.92497 1.33681e-06 0.0115635)
(9.91292 1.75591e-06 0.0114937)
(9.90107 1.72312e-06 0.011319)
(9.88959 2.38867e-06 0.0111373)
(9.87835 8.19003e-06 0.0109018)
(9.86743 1.53835e-05 0.0106631)
(9.85677 1.89143e-05 0.0104253)
(9.84639 2.00623e-05 0.0101887)
(9.83628 1.55752e-05 0.00999333)
(9.82652 4.89255e-06 0.00967911)
(9.81699 -5.42648e-06 0.00943161)
(9.80767 -1.3151e-05 0.00918923)
(9.7986 -2.08387e-05 0.00895338)
(9.78973 -2.4051e-05 0.00872603)
(9.78109 -2.31688e-05 0.00849922)
(9.77264 -1.81986e-05 0.00826158)
(9.76441 -1.17369e-05 0.00799115)
(9.75659 -6.11661e-06 0.00776556)
(9.74707 -2.59576e-06 0.00715929)
(9.99108 1.27827e-07 0.00341145)
(9.986 3.37721e-07 0.00848019)
(9.97557 3.90255e-07 0.010204)
(9.96255 2.64331e-07 0.0109425)
(9.94964 1.44286e-07 0.011348)
(9.9372 5.29617e-08 0.0115377)
(9.92497 2.99965e-07 0.0115658)
(9.91292 1.88455e-06 0.0114957)
(9.9011 4.72842e-06 0.0113561)
(9.88957 1.15757e-05 0.0111517)
(9.87834 2.24945e-05 0.0109367)
(9.86744 2.6596e-05 0.0106917)
(9.85689 2.53601e-05 0.010361)
(9.84662 1.14582e-05 0.0101093)
(9.8366 -7.20902e-06 0.00987632)
(9.82686 -2.294e-05 0.00965569)
(9.81726 -3.02563e-05 0.00943225)
(9.80791 -3.33249e-05 0.00920452)
(9.79876 -3.45916e-05 0.00897331)
(9.78984 -3.07383e-05 0.00873066)
(9.7811 -1.88745e-05 0.00858859)
(9.77258 -5.12294e-06 0.00834404)
(9.76432 4.73093e-06 0.00807292)
(9.75651 8.9523e-06 0.007771)
(9.74702 6.6052e-06 0.00710086)
(9.99108 7.65067e-08 0.00341145)
(9.986 1.35858e-07 0.00848019)
(9.97557 2.17384e-08 0.010204)
(9.96255 -2.49435e-07 0.0109425)
(9.94964 -7.70625e-07 0.011348)
(9.9372 -1.26281e-06 0.0115378)
(9.92497 -1.50556e-06 0.0115658)
(9.91292 -1.13768e-06 0.0114953)
(9.9011 2.44459e-07 0.0113548)
(9.88957 2.19726e-06 0.0111561)
(9.87834 2.05835e-06 0.0109385)
(9.86744 -9.40242e-07 0.0106842)
(9.8569 -4.97388e-06 0.0103545)
(9.84663 -8.61227e-06 0.0101037)
(9.83662 -1.10423e-05 0.00987177)
(9.82687 -1.11477e-05 0.0096543)
(9.81727 -7.7642e-06 0.00943376)
(9.8079 -3.83745e-06 0.00920881)
(9.79875 7.64729e-07 0.00897994)
(9.78982 5.47765e-06 0.00873919)
(9.78107 8.262e-06 0.00859754)
(9.77254 9.8779e-06 0.00835268)
(9.76428 9.73493e-06 0.00808006)
(9.75647 7.39293e-06 0.00777483)
(9.74698 3.40953e-06 0.00710261)
(9.99108 2.11713e-08 0.00341147)
(9.986 -5.27055e-08 0.00848019)
(9.97557 -2.96856e-07 0.0102041)
(9.96255 -7.63376e-07 0.0109426)
(9.94964 -1.50823e-06 0.011348)
(9.9372 -2.4493e-06 0.011538)
(9.92497 -3.66735e-06 0.011566)
(9.91292 -5.53376e-06 0.0114946)
(9.90111 -8.27765e-06 0.0113493)
(9.8896 -1.24725e-05 0.0111633)
(9.87839 -1.79683e-05 0.0109279)
(9.86756 -2.25292e-05 0.0106065)
(9.85704 -2.42807e-05 0.0103564)
(9.84672 -2.16245e-05 0.0101143)
(9.83669 -1.42505e-05 0.00988774)
(9.82688 -4.00973e-06 0.00967095)
(9.81726 4.75067e-06 0.00944979)
(9.80786 1.17388e-05 0.00922009)
(9.7987 1.71598e-05 0.00897407)
(9.78972 2.05377e-05 0.00883001)
(9.78098 2.05902e-05 0.00859075)
(9.77249 1.90479e-05 0.00834)
(9.76424 1.59067e-05 0.00806905)
(9.75646 1.25488e-05 0.00774659)
(9.74698 1.00504e-05 0.00713337)
(9.99108 -3.19604e-08 0.00341146)
(9.986 -2.07744e-07 0.00848023)
(9.97557 -5.23064e-07 0.0102041)
(9.96255 -1.12039e-06 0.0109426)
(9.94964 -2.06966e-06 0.0113481)
(9.9372 -3.14313e-06 0.011538)
(9.92497 -5.0962e-06 0.0115662)
(9.91292 -9.33464e-06 0.0114963)
(9.9011 -1.74886e-05 0.0113564)
(9.88956 -3.49127e-05 0.0111604)
(9.87832 -5.12974e-05 0.0109437)
(9.86743 -5.90237e-05 0.0106906)
(9.85689 -6.02926e-05 0.0103637)
(9.84661 -4.385e-05 0.0101127)
(9.83659 -1.35196e-05 0.00988046)
(9.82683 1.94461e-05 0.00965954)
(9.81723 4.02172e-05 0.00943376)
(9.80787 5.13371e-05 0.00920542)
(9.79871 5.69738e-05 0.0089744)
(9.78979 5.55877e-05 0.00873272)
(9.78104 4.54496e-05 0.0085908)
(9.77251 3.09126e-05 0.0083468)
(9.76425 1.5958e-05 0.00807551)
(9.75644 4.47119e-06 0.00777254)
(9.74695 3.56081e-06 0.00710265)
(9.99108 -5.94668e-08 0.00341146)
(9.986 -2.88458e-07 0.00848028)
(9.97557 -6.31193e-07 0.0102042)
(9.96255 -1.23039e-06 0.0109427)
(9.94964 -2.21958e-06 0.0113482)
(9.9372 -3.31868e-06 0.0115385)
(9.92496 -4.73399e-06 0.0115642)
(9.91291 -7.3194e-06 0.0114956)
(9.90106 -1.13992e-05 0.0113263)
(9.88957 -2.21756e-05 0.0111483)
(9.87829 -3.43625e-05 0.0109157)
(9.86735 -4.33563e-05 0.0106882)
(9.85664 -4.29502e-05 0.0104516)
(9.84621 -2.79207e-05 0.0101856)
(9.83604 -5.86933e-06 0.0100265)
(9.82618 1.67481e-05 0.00979075)
(9.81665 3.2596e-05 0.00944862)
(9.80737 4.36207e-05 0.00918484)
(9.79832 5.02114e-05 0.00893547)
(9.78951 5.23293e-05 0.00869942)
(9.78089 4.41366e-05 0.00847246)
(9.77248 2.99671e-05 0.00824162)
(9.76428 1.61278e-05 0.00798532)
(9.75652 7.78167e-06 0.00768078)
(9.747 6.21939e-06 0.00710578)
(9.99108 -1.09634e-07 0.00341148)
(9.986 -3.47169e-07 0.00848042)
(9.97557 -5.09145e-07 0.0102043)
(9.96254 -1.0186e-06 0.0109429)
(9.94964 -1.93664e-06 0.0113484)
(9.9372 -3.00333e-06 0.0115389)
(9.92496 -3.48421e-06 0.0115646)
(9.91291 -1.8705e-06 0.0114956)
(9.90106 2.22678e-06 0.0113224)
(9.88958 8.51513e-06 0.0111413)
(9.87834 1.15688e-05 0.0109056)
(9.86744 7.52983e-06 0.0106699)
(9.85678 2.27929e-06 0.0104339)
(9.84639 -7.75754e-06 0.0101963)
(9.83628 -2.35418e-05 0.010001)
(9.82652 -3.26111e-05 0.00968537)
(9.81699 -2.40105e-05 0.00943285)
(9.80766 -8.80492e-06 0.00918553)
(9.79859 6.00747e-06 0.00894646)
(9.78973 1.81991e-05 0.00871567)
(9.78109 2.44992e-05 0.00848667)
(9.77265 2.74491e-05 0.00824862)
(9.76443 2.8468e-05 0.00798015)
(9.75661 2.68917e-05 0.00775755)
(9.74709 1.78483e-05 0.00715352)
(9.99108 -4.15909e-07 0.00341155)
(9.986 -7.32964e-07 0.00848085)
(9.97557 -5.16999e-07 0.0102046)
(9.96254 -9.29025e-07 0.0109431)
(9.94964 -1.7985e-06 0.0113485)
(9.9372 -2.5303e-06 0.0115392)
(9.92496 -2.91687e-06 0.0115671)
(9.91292 -2.00943e-06 0.0114953)
(9.90112 -5.73372e-07 0.0113604)
(9.8896 -8.63991e-07 0.011158)
(9.87846 -5.29199e-06 0.0108632)
(9.86765 -1.17326e-05 0.0106235)
(9.85704 -1.37861e-05 0.0103838)
(9.84674 -1.61437e-05 0.0101514)
(9.83666 -1.91676e-05 0.00992715)
(9.82678 -1.26842e-05 0.00969837)
(9.81712 2.85081e-06 0.00945872)
(9.80774 1.65645e-05 0.00920184)
(9.79856 2.31276e-05 0.00904449)
(9.78962 2.6617e-05 0.00879424)
(9.78094 2.79769e-05 0.00854616)
(9.77248 2.58927e-05 0.00829771)
(9.76427 1.90068e-05 0.00802821)
(9.75651 1.01027e-05 0.00773865)
(9.74704 5.62779e-06 0.00707838)
(9.99108 -1.56357e-06 0.00341183)
(9.986 7.73736e-08 0.00848244)
(9.97557 6.39116e-07 0.0102059)
(9.96254 -7.45284e-07 0.0109443)
(9.94964 -1.79263e-06 0.0113499)
(9.93719 -1.88977e-06 0.0115382)
(9.92497 -2.26508e-06 0.0115662)
(9.91289 -3.48411e-06 0.0114568)
(9.90114 -5.00948e-06 0.0113311)
(9.88962 -9.91661e-06 0.0111323)
(9.87843 -1.55192e-05 0.0109062)
(9.86748 -1.87338e-05 0.0106686)
(9.85681 -1.92067e-05 0.0104345)
(9.84639 -1.7198e-05 0.010205)
(9.8363 -9.28804e-06 0.00997626)
(9.8264 -1.5286e-06 0.00979135)
(9.8168 7.70532e-06 0.0094696)
(9.8075 1.6817e-05 0.00920153)
(9.79842 2.18022e-05 0.00895174)
(9.78959 2.39627e-05 0.00871359)
(9.78096 2.32771e-05 0.00848352)
(9.77256 2.05153e-05 0.0082494)
(9.76436 1.70469e-05 0.00799002)
(9.7566 1.17644e-05 0.00768182)
(9.74709 9.58457e-06 0.00710273)
(9.99108 -1.18883e-05 0.00341356)
(9.986 -2.6063e-06 0.00848422)
(9.97557 1.8787e-06 0.0102067)
(9.96254 -9.77173e-07 0.0109447)
(9.94964 -2.73403e-06 0.0113501)
(9.9372 -1.71399e-06 0.0115406)
(9.92497 -8.74968e-07 0.0115667)
(9.91292 -2.09108e-06 0.011494)
(9.90111 -3.78871e-06 0.0113511)
(9.88964 -4.22371e-06 0.0111036)
(9.8785 -2.82447e-06 0.010884)
(9.8676 1.33918e-06 0.0106505)
(9.85699 4.54718e-06 0.0104163)
(9.84658 1.02765e-05 0.0101801)
(9.83649 1.57041e-05 0.0099521)
(9.82658 1.24052e-05 0.00972292)
(9.81692 5.3806e-06 0.00946572)
(9.8075 3.45146e-06 0.00929257)
(9.79835 3.70891e-06 0.00901917)
(9.78947 3.8139e-06 0.0087588)
(9.78082 2.91398e-06 0.00851041)
(9.77241 2.25926e-06 0.00826443)
(9.76423 5.05216e-06 0.00800217)
(9.7565 6.61575e-06 0.00769278)
(9.74705 1.15981e-05 0.00708786)
(9.9911 -9.23005e-06 0.0034243)
(9.98604 -3.00306e-06 0.00850372)
(9.97559 8.22941e-07 0.0102193)
(9.96256 -1.33531e-06 0.010954)
(9.94966 -1.91109e-06 0.0113568)
(9.93722 -1.07053e-06 0.0115447)
(9.92498 -1.88857e-07 0.0115684)
(9.91293 -8.73602e-07 0.011498)
(9.90108 -3.05311e-06 0.011324)
(9.8896 -4.79322e-06 0.011142)
(9.87837 -2.72429e-06 0.0109109)
(9.86748 5.34628e-06 0.0106721)
(9.85682 1.55845e-05 0.0104251)
(9.84645 2.4624e-05 0.010185)
(9.83634 3.13417e-05 0.00999156)
(9.82658 3.38021e-05 0.00967634)
(9.81705 2.23442e-05 0.0094229)
(9.80773 9.95462e-06 0.00917648)
(9.79866 6.9073e-07 0.00893792)
(9.78979 -7.20065e-06 0.00870904)
(9.78115 -1.30299e-05 0.00848271)
(9.77271 -1.69363e-05 0.00824747)
(9.76449 -1.88846e-05 0.00798183)
(9.75667 -1.32494e-05 0.00776104)
(9.74715 -9.79571e-07 0.00715316)
(10.0012 -2.62984e-06 0.00553084)
(10.0059 -9.25076e-06 0.0111434)
(10.011 -9.00546e-06 0.0131991)
(10.0128 -5.7916e-06 0.0135213)
(10.0142 -2.97803e-06 0.0135491)
(10.0154 -1.58637e-06 0.0134093)
(10.0163 -4.39801e-07 0.0131476)
(10.017 3.68559e-07 0.0128198)
(10.0174 1.58867e-06 0.0124762)
(10.0176 2.99071e-06 0.0121109)
(10.0177 3.96608e-06 0.0117562)
(10.0176 5.46819e-06 0.0114092)
(10.0175 8.12805e-06 0.011075)
(10.0172 1.17462e-05 0.0107612)
(10.0169 1.59537e-05 0.0104743)
(10.0164 1.18642e-05 0.0102036)
(10.0159 3.46984e-06 0.00993889)
(10.0153 -2.66858e-06 0.00968737)
(10.0147 -7.4896e-06 0.00945167)
(10.0141 -1.09671e-05 0.00923191)
(10.0134 -1.4479e-05 0.00902003)
(10.0126 -1.64669e-05 0.00881543)
(10.0118 -1.77717e-05 0.00855022)
(10.011 -1.06665e-05 0.00838381)
(10.0095 -3.612e-06 0.00736283)
(10.0012 -2.91158e-06 0.00552304)
(10.0059 -1.16691e-05 0.0111425)
(10.011 -1.03841e-05 0.0132032)
(10.0128 -5.61109e-06 0.0135232)
(10.0142 -1.97366e-06 0.0135502)
(10.0154 -2.51645e-07 0.0134107)
(10.0163 1.57527e-06 0.0131488)
(10.017 4.29906e-06 0.0128206)
(10.0174 8.27703e-06 0.0124748)
(10.0176 1.10189e-05 0.012111)
(10.0177 1.33496e-05 0.0117519)
(10.0176 1.3886e-05 0.0113977)
(10.0175 1.55165e-05 0.0110609)
(10.0172 1.62586e-05 0.010748)
(10.0168 7.32791e-06 0.0104621)
(10.0164 -7.62378e-06 0.0101987)
(10.0159 -1.55459e-05 0.00994315)
(10.0154 -1.5949e-05 0.00969741)
(10.0147 -1.57572e-05 0.00946537)
(10.0141 -1.59537e-05 0.00924789)
(10.0134 -1.5406e-05 0.00903643)
(10.0127 -1.26395e-05 0.00882934)
(10.0118 -7.77114e-06 0.00855871)
(10.011 -9.10319e-07 0.00838559)
(10.0095 7.66447e-07 0.00736676)
(10.0012 -4.49472e-07 0.00552199)
(10.006 -1.71643e-06 0.0111429)
(10.011 -1.55689e-06 0.0132071)
(10.0128 -1.87228e-07 0.0135234)
(10.0142 8.78721e-07 0.0135502)
(10.0154 1.59223e-06 0.0134108)
(10.0164 2.6469e-06 0.0131489)
(10.017 4.94324e-06 0.0128217)
(10.0174 8.34335e-06 0.0124722)
(10.0176 1.18551e-05 0.0121035)
(10.0177 1.72257e-05 0.0117425)
(10.0177 2.17675e-05 0.0113989)
(10.0175 2.5117e-05 0.011071)
(10.0172 2.01386e-05 0.0107544)
(10.0169 4.82197e-06 0.0104734)
(10.0165 -8.87068e-06 0.0102227)
(10.0159 -1.65295e-05 0.00996314)
(10.0153 -2.188e-05 0.00970446)
(10.0147 -2.69606e-05 0.00946395)
(10.0141 -2.96674e-05 0.00924021)
(10.0134 -3.25502e-05 0.00902334)
(10.0126 -2.48587e-05 0.00881283)
(10.0118 -1.41383e-05 0.00854331)
(10.011 -6.60107e-06 0.00837419)
(10.0095 -3.03686e-06 0.00736144)
(10.0012 1.08747e-07 0.00552163)
(10.006 -1.47394e-07 0.0111428)
(10.011 -4.14227e-07 0.0132065)
(10.0128 -1.35452e-07 0.0135239)
(10.0142 4.24131e-07 0.0135506)
(10.0154 1.16746e-06 0.0134112)
(10.0164 1.91086e-06 0.013149)
(10.017 3.24888e-06 0.0128195)
(10.0174 6.02969e-06 0.01247)
(10.0176 9.58484e-06 0.0120994)
(10.0177 1.22672e-05 0.0117307)
(10.0176 1.25487e-05 0.0113771)
(10.0174 1.04645e-05 0.011047)
(10.0172 7.16468e-06 0.0107349)
(10.0169 4.85501e-06 0.0104615)
(10.0164 6.57054e-06 0.0102185)
(10.0159 8.4208e-06 0.00996928)
(10.0154 2.30376e-06 0.00972436)
(10.0148 -4.74083e-06 0.00949387)
(10.0141 -1.07648e-05 0.00927403)
(10.0134 -1.46856e-05 0.00905462)
(10.0126 -1.87664e-05 0.00883805)
(10.0118 -2.33539e-05 0.00856089)
(10.0109 -2.77669e-05 0.00838318)
(10.0094 -2.12589e-05 0.00736551)
(10.0012 1.98098e-07 0.00552156)
(10.0059 4.6554e-07 0.0111428)
(10.011 6.01963e-07 0.0132065)
(10.0129 9.21937e-07 0.0135242)
(10.0142 1.39539e-06 0.0135507)
(10.0154 1.90876e-06 0.0134112)
(10.0164 2.49653e-06 0.0131493)
(10.017 3.58231e-06 0.0128212)
(10.0174 4.8621e-06 0.0124705)
(10.0176 6.15433e-06 0.0120981)
(10.0177 3.51846e-06 0.0117326)
(10.0177 -2.11105e-06 0.0113871)
(10.0175 -8.50892e-06 0.0110598)
(10.0172 -1.31252e-05 0.0107445)
(10.0169 -1.72057e-05 0.010464)
(10.0164 -1.26584e-05 0.0102133)
(10.0159 -1.36136e-06 0.009958)
(10.0154 7.36547e-06 0.00970817)
(10.0148 1.27073e-05 0.00947601)
(10.0141 1.8689e-05 0.00925771)
(10.0134 2.2771e-05 0.00904479)
(10.0127 2.16263e-05 0.00883713)
(10.0119 1.38775e-05 0.00856781)
(10.0111 3.10323e-06 0.00839385)
(10.0095 -4.49914e-06 0.00737342)
(10.0012 2.61018e-07 0.00552151)
(10.006 6.90433e-07 0.0111428)
(10.011 9.99288e-07 0.0132063)
(10.0129 1.27553e-06 0.0135242)
(10.0142 1.57829e-06 0.0135507)
(10.0154 1.93933e-06 0.0134112)
(10.0164 2.18776e-06 0.0131493)
(10.017 2.02521e-06 0.01282)
(10.0174 2.6863e-06 0.0124724)
(10.0176 5.55094e-06 0.0121006)
(10.0177 6.43609e-06 0.0117402)
(10.0176 6.74002e-06 0.0113958)
(10.0175 5.66123e-06 0.0110668)
(10.0172 2.08608e-06 0.0107519)
(10.0169 -3.77077e-06 0.0104722)
(10.0164 -8.88805e-06 0.0102176)
(10.0159 -8.62011e-06 0.00995605)
(10.0153 -9.3154e-06 0.0097009)
(10.0147 -8.40875e-06 0.00946534)
(10.0141 -5.66416e-06 0.00924421)
(10.0134 -2.09608e-06 0.00902937)
(10.0127 1.84742e-06 0.00882179)
(10.0118 5.41678e-06 0.00855466)
(10.0111 8.81844e-06 0.008385)
(10.0096 6.93663e-06 0.00736795)
(10.0012 2.54821e-07 0.00552152)
(10.006 7.71892e-07 0.0111428)
(10.011 1.13846e-06 0.0132063)
(10.0129 1.4133e-06 0.0135242)
(10.0142 1.71048e-06 0.0135508)
(10.0154 2.0688e-06 0.0134112)
(10.0164 2.31409e-06 0.0131491)
(10.017 1.80559e-06 0.0128209)
(10.0174 1.6774e-06 0.0124725)
(10.0176 2.82428e-06 0.012097)
(10.0177 5.2412e-06 0.011733)
(10.0176 9.15717e-06 0.0113878)
(10.0175 1.40423e-05 0.0110607)
(10.0172 2.09398e-05 0.0107484)
(10.0169 2.61851e-05 0.010472)
(10.0164 2.36565e-05 0.0102205)
(10.0159 1.27247e-05 0.00996155)
(10.0153 9.82373e-07 0.00970795)
(10.0147 -9.59789e-06 0.00947215)
(10.0141 -1.7101e-05 0.00925013)
(10.0134 -2.28122e-05 0.00903428)
(10.0126 -2.54053e-05 0.00882518)
(10.0118 -2.69638e-05 0.00855617)
(10.011 -1.8176e-05 0.00838474)
(10.0095 -6.1968e-06 0.00736692)
(10.0012 2.51131e-07 0.00552149)
(10.006 7.67208e-07 0.0111428)
(10.011 1.11217e-06 0.0132062)
(10.0129 1.37063e-06 0.0135242)
(10.0142 1.67126e-06 0.0135506)
(10.0154 2.00383e-06 0.0134109)
(10.0164 2.52343e-06 0.0131485)
(10.017 2.8814e-06 0.0128192)
(10.0174 2.10566e-06 0.012471)
(10.0176 2.02999e-06 0.0120997)
(10.0177 7.04565e-06 0.0117351)
(10.0176 1.40063e-05 0.0113847)
(10.0175 1.84591e-05 0.0110487)
(10.0172 2.06897e-05 0.010729)
(10.0168 2.13939e-05 0.0104523)
(10.0164 1.55739e-05 0.0102049)
(10.0159 -4.91457e-08 0.00995192)
(10.0154 -1.51816e-05 0.00970661)
(10.0148 -2.87414e-05 0.00947793)
(10.0142 -3.61184e-05 0.00926158)
(10.0134 -3.55619e-05 0.0090492)
(10.0127 -2.88154e-05 0.00883954)
(10.0119 -1.79477e-05 0.00856539)
(10.0111 -1.97385e-06 0.00838743)
(10.0096 7.88796e-06 0.00736714)
(10.0012 2.41161e-07 0.00552149)
(10.006 6.5462e-07 0.0111428)
(10.011 9.45553e-07 0.0132062)
(10.0129 1.13491e-06 0.0135242)
(10.0142 1.32487e-06 0.0135504)
(10.0154 1.54188e-06 0.0134108)
(10.0164 1.90028e-06 0.0131482)
(10.017 2.09072e-06 0.0128182)
(10.0174 2.28282e-06 0.012468)
(10.0176 2.33661e-06 0.0120954)
(10.0177 4.35245e-06 0.0117256)
(10.0176 6.38544e-06 0.0113749)
(10.0175 6.19513e-06 0.0110456)
(10.0172 1.41927e-06 0.0107347)
(10.0169 -2.24866e-06 0.0104643)
(10.0164 -1.72095e-06 0.0102225)
(10.0159 -4.73898e-06 0.00997667)
(10.0154 -9.554e-06 0.00973406)
(10.0148 -1.43129e-05 0.0095013)
(10.0141 -1.72507e-05 0.00927611)
(10.0134 -1.57689e-05 0.00905311)
(10.0126 -1.04445e-05 0.00883406)
(10.0118 -5.03832e-06 0.00855393)
(10.011 -2.30505e-06 0.00837297)
(10.0095 -3.94868e-08 0.00735623)
(10.0012 2.07909e-07 0.00552148)
(10.006 5.03663e-07 0.0111428)
(10.011 6.94739e-07 0.0132061)
(10.0129 7.62328e-07 0.0135241)
(10.0142 8.28578e-07 0.0135503)
(10.0154 9.43876e-07 0.0134106)
(10.0164 1.12717e-06 0.013148)
(10.017 1.33417e-06 0.0128189)
(10.0174 1.05479e-06 0.0124697)
(10.0176 1.05687e-06 0.0121009)
(10.0177 2.16818e-06 0.011736)
(10.0177 6.66555e-06 0.0113852)
(10.0175 1.22324e-05 0.0110477)
(10.0172 1.10036e-05 0.0107312)
(10.0168 7.7676e-06 0.0104571)
(10.0163 5.46382e-06 0.0102072)
(10.0158 2.23544e-06 0.00995364)
(10.0153 -1.57396e-06 0.00971021)
(10.0147 -5.63081e-06 0.00948226)
(10.0141 -1.07971e-05 0.0092647)
(10.0134 -1.62413e-05 0.00905011)
(10.0127 -1.54801e-05 0.00883888)
(10.0119 -1.07813e-05 0.00856501)
(10.0111 -5.51941e-06 0.00838678)
(10.0095 -9.60975e-07 0.00736725)
(10.0012 1.33271e-07 0.00552148)
(10.006 3.3733e-07 0.0111428)
(10.011 3.86628e-07 0.0132061)
(10.0129 2.99111e-07 0.0135242)
(10.0142 2.07414e-07 0.0135503)
(10.0154 1.25475e-07 0.0134105)
(10.0164 2.13898e-07 0.0131478)
(10.017 9.41588e-07 0.0128177)
(10.0174 1.65321e-06 0.0124682)
(10.0176 3.64983e-06 0.0120941)
(10.0177 8.8581e-06 0.0117233)
(10.0176 1.67457e-05 0.0113652)
(10.0174 2.07411e-05 0.0110287)
(10.0172 2.01066e-05 0.0107225)
(10.0168 1.26426e-05 0.0104593)
(10.0164 1.75848e-06 0.0102171)
(10.0159 -9.07772e-06 0.00997126)
(10.0154 -1.79207e-05 0.00973354)
(10.0148 -2.51313e-05 0.0095066)
(10.0142 -2.84503e-05 0.00928645)
(10.0135 -3.08928e-05 0.00906389)
(10.0127 -2.26895e-05 0.0088428)
(10.0119 -9.40885e-06 0.00856055)
(10.011 5.19013e-06 0.00837731)
(10.0095 9.96581e-06 0.00735917)
(10.0012 8.42605e-08 0.00552148)
(10.006 1.46865e-07 0.0111428)
(10.011 4.26967e-08 0.0132061)
(10.0129 -2.13523e-07 0.0135242)
(10.0142 -5.76956e-07 0.0135503)
(10.0154 -9.83259e-07 0.0134106)
(10.0164 -1.32737e-06 0.0131477)
(10.017 -1.30122e-06 0.0128172)
(10.0174 -8.30586e-07 0.0124671)
(10.0176 2.13485e-07 0.0120917)
(10.0177 2.11906e-06 0.0117188)
(10.0176 1.65362e-06 0.0113591)
(10.0174 -2.34863e-06 0.0110227)
(10.0172 -4.67297e-06 0.010718)
(10.0168 -6.39375e-06 0.0104572)
(10.0164 -7.8107e-06 0.0102172)
(10.0159 -8.79973e-06 0.00997392)
(10.0154 -9.29512e-06 0.00973875)
(10.0148 -8.9811e-06 0.00951344)
(10.0142 -6.57645e-06 0.00929376)
(10.0135 -2.93409e-07 0.00907035)
(10.0127 3.71027e-06 0.00884765)
(10.0119 6.58326e-06 0.00856374)
(10.011 8.48056e-06 0.00837904)
(10.0095 6.31571e-06 0.00736008)
(10.0012 3.53245e-08 0.00552149)
(10.006 -2.46044e-08 0.0111428)
(10.011 -2.64491e-07 0.0132062)
(10.0129 -6.97649e-07 0.0135243)
(10.0142 -1.3416e-06 0.0135505)
(10.0154 -2.20842e-06 0.0134108)
(10.0164 -3.34742e-06 0.013148)
(10.017 -4.88186e-06 0.0128173)
(10.0174 -6.74311e-06 0.0124666)
(10.0176 -9.29605e-06 0.0120906)
(10.0177 -1.26501e-05 0.0117169)
(10.0176 -1.61558e-05 0.0113621)
(10.0175 -1.82247e-05 0.0110306)
(10.0172 -1.76942e-05 0.0107266)
(10.0169 -1.46025e-05 0.0104654)
(10.0164 -8.77859e-06 0.010224)
(10.0159 -1.45606e-06 0.00998001)
(10.0154 5.7791e-06 0.00974303)
(10.0148 1.21948e-05 0.00951387)
(10.0141 1.73994e-05 0.00928897)
(10.0134 2.0421e-05 0.00906279)
(10.0126 2.04837e-05 0.00883943)
(10.0118 1.79842e-05 0.00855595)
(10.011 1.38422e-05 0.00837295)
(10.0095 8.87757e-06 0.00735666)
(10.0012 -1.55741e-08 0.0055215)
(10.006 -1.43927e-07 0.0111428)
(10.011 -4.68956e-07 0.0132062)
(10.0129 -1.01304e-06 0.0135244)
(10.0142 -1.86347e-06 0.0135507)
(10.0154 -3.07429e-06 0.0134111)
(10.0164 -4.80092e-06 0.0131486)
(10.017 -7.90977e-06 0.0128189)
(10.0174 -1.18842e-05 0.0124698)
(10.0176 -1.92147e-05 0.0120974)
(10.0177 -3.09022e-05 0.0117282)
(10.0176 -4.08722e-05 0.0113722)
(10.0174 -4.36531e-05 0.011037)
(10.0172 -4.43185e-05 0.0107302)
(10.0168 -3.5878e-05 0.0104644)
(10.0164 -1.72648e-05 0.0102192)
(10.0159 6.99382e-06 0.00997134)
(10.0154 2.88262e-05 0.0097323)
(10.0148 4.84831e-05 0.00950422)
(10.0142 5.78656e-05 0.00928316)
(10.0134 6.13548e-05 0.00906035)
(10.0127 5.39921e-05 0.00883974)
(10.0118 4.04295e-05 0.00855873)
(10.011 2.09743e-05 0.00837661)
(10.0095 5.53738e-06 0.00735852)
(10.0012 -2.53502e-08 0.00552152)
(10.006 -1.72451e-07 0.0111429)
(10.011 -4.95631e-07 0.0132063)
(10.0129 -1.04488e-06 0.0135244)
(10.0142 -1.8934e-06 0.0135509)
(10.0154 -2.92849e-06 0.0134114)
(10.0164 -4.12277e-06 0.0131493)
(10.017 -5.88106e-06 0.0128213)
(10.0174 -7.44183e-06 0.012474)
(10.0176 -1.07783e-05 0.0121107)
(10.0177 -1.88008e-05 0.0117543)
(10.0176 -2.93515e-05 0.0114103)
(10.0174 -3.64579e-05 0.0110764)
(10.0172 -3.65245e-05 0.0107586)
(10.0169 -2.66516e-05 0.010477)
(10.0164 -1.09965e-05 0.0102184)
(10.0158 5.23979e-06 0.00995458)
(10.0153 2.19126e-05 0.00969917)
(10.0147 3.4309e-05 0.00946256)
(10.0141 4.61581e-05 0.00924024)
(10.0134 5.29866e-05 0.00902399)
(10.0126 4.69127e-05 0.00881506)
(10.0118 3.31379e-05 0.00854696)
(10.011 1.55667e-05 0.00837722)
(10.0095 5.58129e-06 0.00736342)
(10.0012 5.60253e-09 0.00552155)
(10.006 -2.43071e-08 0.0111429)
(10.011 -1.98335e-07 0.0132064)
(10.0129 -7.28039e-07 0.0135245)
(10.0142 -1.55066e-06 0.013551)
(10.0154 -2.31842e-06 0.0134117)
(10.0164 -2.61498e-06 0.0131496)
(10.017 -1.5709e-06 0.0128214)
(10.0174 9.23819e-07 0.0124734)
(10.0176 4.36871e-06 0.0121085)
(10.0177 7.06008e-06 0.0117501)
(10.0176 5.89453e-06 0.0114048)
(10.0175 1.5353e-06 0.0110693)
(10.0172 4.59331e-07 0.0107519)
(10.0168 2.7841e-06 0.0104731)
(10.0163 -5.05693e-07 0.0102142)
(10.0158 -1.0529e-05 0.00995056)
(10.0153 -1.62556e-05 0.00969808)
(10.0147 -1.41663e-05 0.00946318)
(10.0141 -4.67777e-06 0.00924222)
(10.0134 4.92753e-06 0.00902803)
(10.0126 1.17651e-05 0.00882039)
(10.0118 1.62063e-05 0.00855205)
(10.011 2.0412e-05 0.00837981)
(10.0095 2.13254e-05 0.007364)
(10.0012 5.9221e-08 0.00552165)
(10.006 5.02204e-07 0.0111429)