/*--------------------------------*- C++ -*----------------------------------*\
  =========                 |
  \\      /  F ield         | OpenFOAM: The Open Source CFD Toolbox
   \\    /   O peration     | Website:  https://openfoam.org
    \\  /    A nd           | Version:  12
     \\/     M anipulation  |
\*---------------------------------------------------------------------------*/
FoamFile
{
    format      ascii;
    class       volScalarField;
    location    "16.68";
    object      p;
}
// * * * * * * * * * * * * * * * * * * * * * * * * * * * * * * * * * * * * * //

dimensions      [1 -1 -2 0 0 0 0];

internalField   nonuniform List<scalar> 
3829
(
-610.792
-610.793
-610.796
-610.799
-610.804
-610.811
-610.818
-610.827
-610.838
-610.851
-610.865
-610.881
-610.899
-610.919
-610.941
-610.965
-610.992
-611.021
-611.052
-611.086
-611.123
-611.163
-611.205
-611.251
-611.299
-611.351
-611.405
-611.462
-611.523
-611.587
-611.653
-611.723
-611.795
-611.87
-611.948
-612.028
-612.11
-612.194
-612.28
-612.367
-612.456
-612.546
-612.636
-612.727
-612.818
-612.909
-612.999
-613.088
-613.175
-613.261
-613.344
-613.425
-613.503
-613.578
-613.648
-613.715
-613.777
-613.834
-613.886
-613.932
-613.974
-614.01
-614.04
-614.064
-614.082
-614.093
-614.099
-614.1
-614.095
-614.086
-614.072
-614.054
-614.032
-614.008
-613.982
-613.954
-613.926
-613.898
-613.87
-613.845
-613.823
-613.803
-613.789
-613.779
-613.775
-613.777
-613.786
-613.804
-613.828
-613.86
-613.899
-613.944
-613.995
-614.051
-614.112
-614.176
-614.242
-614.308
-614.374
-614.437
-614.496
-614.55
-614.597
-614.635
-614.664
-614.682
-614.689
-614.681
-614.66
-614.628
-614.585
-614.533
-614.472
-614.405
-614.334
-614.261
-614.189
-614.121
-614.06
-614.009
-613.969
-613.942
-613.931
-613.936
-613.958
-613.996
-614.049
-614.114
-614.189
-614.271
-614.355
-614.438
-614.515
-614.582
-614.636
-614.674
-614.693
-614.687
-614.662
-614.619
-614.56
-614.49
-614.413
-614.334
-614.259
-614.194
-614.143
-614.111
-614.099
-614.11
-614.141
-614.19
-614.252
-614.321
-614.39
-614.451
-614.498
-614.527
-614.533
-614.513
-614.471
-614.41
-614.336
-614.255
-614.18
-614.116
-614.072
-614.052
-614.061
-614.096
-614.151
-614.219
-614.308
-614.375
-614.428
-614.46
-614.466
-614.445
-614.403
-614.345
-614.282
-614.225
-614.183
-614.161
-614.162
-614.186
-614.226
-614.275
-614.324
-614.364
-614.391
-614.401
-614.397
-614.38
-614.363
-614.346
-614.334
-614.327
-614.325
-614.325
-1769.05
-1769.05
-1769.05
-1769.06
-1769.06
-1769.07
-1769.07
-1769.08
-1769.09
-1769.1
-1769.11
-1769.13
-1769.14
-1769.16
-1769.18
-1769.2
-1769.23
-1769.26
-1769.29
-1769.32
-1769.36
-1769.4
-1769.44
-1769.49
-1769.54
-1769.6
-1769.66
-1769.72
-1769.78
-1769.85
-1769.92
-1770
-1770.08
-1770.16
-1770.25
-1770.34
-1770.43
-1770.52
-1770.62
-1770.72
-1770.82
-1770.92
-1771.02
-1771.12
-1771.23
-1771.33
-1771.43
-1771.53
-1771.62
-1771.72
-1771.81
-1771.9
-1771.98
-1772.06
-1772.14
-1772.21
-1772.28
-1772.34
-1772.39
-1772.44
-1772.48
-1772.51
-1772.54
-1772.56
-1772.57
-1772.58
-1772.58
-1772.57
-1772.56
-1772.54
-1772.51
-1772.48
-1772.45
-1772.41
-1772.37
-1772.33
-1772.29
-1772.25
-1772.21
-1772.17
-1772.14
-1772.11
-1772.09
-1772.08
-1772.07
-1772.07
-1772.07
-1772.09
-1772.12
-1772.16
-1772.2
-1772.25
-1772.32
-1772.38
-1772.46
-1772.53
-1772.61
-1772.69
-1772.77
-1772.85
-1772.92
-1772.98
-1773.04
-1773.09
-1773.12
-1773.14
-1773.14
-1773.14
-1773.11
-1773.07
-1773.02
-1772.96
-1772.88
-1772.8
-1772.71
-1772.62
-1772.53
-1772.45
-1772.37
-1772.31
-1772.26
-1772.23
-1772.22
-1772.22
-1772.25
-1772.3
-1772.36
-1772.44
-1772.53
-1772.63
-1772.73
-1772.83
-1772.93
-1773.01
-1773.07
-1773.11
-1773.13
-1773.13
-1773.1
-1773.04
-1772.97
-1772.88
-1772.79
-1772.69
-1772.6
-1772.52
-1772.46
-1772.42
-1772.41
-1772.42
-1772.46
-1772.53
-1772.6
-1772.69
-1772.78
-1772.85
-1772.91
-1772.95
-1772.96
-1772.93
-1772.88
-1772.81
-1772.72
-1772.62
-1772.53
-1772.45
-1772.4
-1772.37
-1772.39
-1772.43
-1772.5
-1772.58
-1772.68
-1772.77
-1772.83
-1772.87
-1772.87
-1772.85
-1772.79
-1772.72
-1772.65
-1772.58
-1772.53
-1772.5
-1772.5
-1772.53
-1772.58
-1772.64
-1772.7
-1772.75
-1772.78
-1772.79
-1772.78
-1772.76
-1772.73
-1772.71
-1772.7
-1772.69
-1772.69
-1772.69
-2795.05
-2795.05
-2795.05
-2795.05
-2795.06
-2795.06
-2795.06
-2795.06
-2795.07
-2795.07
-2795.08
-2795.09
-2795.1
-2795.11
-2795.13
-2795.15
-2795.17
-2795.19
-2795.22
-2795.25
-2795.29
-2795.33
-2795.38
-2795.43
-2795.49
-2795.55
-2795.61
-2795.68
-2795.76
-2795.84
-2795.93
-2796.02
-2796.12
-2796.21
-2796.31
-2796.42
-2796.53
-2796.64
-2796.75
-2796.87
-2796.99
-2797.11
-2797.23
-2797.35
-2797.47
-2797.59
-2797.7
-2797.82
-2797.93
-2798.05
-2798.15
-2798.26
-2798.35
-2798.44
-2798.53
-2798.61
-2798.68
-2798.75
-2798.8
-2798.85
-2798.89
-2798.92
-2798.94
-2798.95
-2798.96
-2798.95
-2798.93
-2798.91
-2798.88
-2798.84
-2798.79
-2798.74
-2798.69
-2798.63
-2798.56
-2798.5
-2798.44
-2798.37
-2798.31
-2798.26
-2798.2
-2798.16
-2798.12
-2798.1
-2798.08
-2798.07
-2798.08
-2798.1
-2798.13
-2798.18
-2798.23
-2798.3
-2798.38
-2798.47
-2798.56
-2798.67
-2798.77
-2798.88
-2798.98
-2799.08
-2799.18
-2799.26
-2799.34
-2799.4
-2799.44
-2799.47
-2799.47
-2799.46
-2799.43
-2799.37
-2799.3
-2799.21
-2799.11
-2799
-2798.88
-2798.76
-2798.64
-2798.53
-2798.43
-2798.34
-2798.28
-2798.24
-2798.22
-2798.23
-2798.26
-2798.33
-2798.41
-2798.52
-2798.64
-2798.78
-2798.91
-2799.05
-2799.17
-2799.27
-2799.36
-2799.41
-2799.43
-2799.42
-2799.38
-2799.3
-2799.2
-2799.08
-2798.95
-2798.82
-2798.7
-2798.59
-2798.51
-2798.46
-2798.45
-2798.47
-2798.53
-2798.62
-2798.73
-2798.85
-2798.97
-2799.08
-2799.16
-2799.21
-2799.22
-2799.19
-2799.12
-2799.02
-2798.89
-2798.76
-2798.64
-2798.54
-2798.47
-2798.44
-2798.46
-2798.52
-2798.62
-2798.73
-2798.86
-2798.97
-2799.06
-2799.1
-2799.11
-2799.07
-2798.99
-2798.9
-2798.79
-2798.7
-2798.63
-2798.6
-2798.61
-2798.66
-2798.73
-2798.81
-2798.88
-2798.94
-2798.97
-2798.97
-2798.96
-2798.93
-2798.89
-2798.87
-2798.85
-2798.85
-2798.85
-2798.85
-3703.91
-3703.91
-3703.91
-3703.91
-3703.9
-3703.9
-3703.89
-3703.88
-3703.88
-3703.87
-3703.87
-3703.86
-3703.86
-3703.86
-3703.87
-3703.87
-3703.88
-3703.9
-3703.92
-3703.95
-3703.98
-3704.02
-3704.07
-3704.12
-3704.18
-3704.25
-3704.32
-3704.41
-3704.5
-3704.59
-3704.7
-3704.8
-3704.92
-3705.04
-3705.17
-3705.3
-3705.44
-3705.58
-3705.72
-3705.87
-3706.02
-3706.16
-3706.31
-3706.46
-3706.61
-3706.76
-3706.9
-3707.04
-3707.18
-3707.32
-3707.45
-3707.57
-3707.68
-3707.79
-3707.89
-3707.98
-3708.06
-3708.13
-3708.19
-3708.24
-3708.28
-3708.31
-3708.32
-3708.32
-3708.31
-3708.28
-3708.25
-3708.2
-3708.14
-3708.08
-3708
-3707.92
-3707.83
-3707.74
-3707.64
-3707.54
-3707.44
-3707.35
-3707.26
-3707.17
-3707.09
-3707.03
-3706.97
-3706.93
-3706.9
-3706.89
-3706.89
-3706.92
-3706.95
-3707.01
-3707.09
-3707.18
-3707.28
-3707.4
-3707.53
-3707.67
-3707.81
-3707.95
-3708.1
-3708.23
-3708.36
-3708.48
-3708.58
-3708.66
-3708.71
-3708.75
-3708.75
-3708.73
-3708.69
-3708.61
-3708.51
-3708.39
-3708.25
-3708.1
-3707.94
-3707.77
-3707.61
-3707.45
-3707.31
-3707.2
-3707.11
-3707.05
-3707.03
-3707.04
-3707.09
-3707.18
-3707.3
-3707.44
-3707.61
-3707.79
-3707.98
-3708.16
-3708.33
-3708.47
-3708.58
-3708.65
-3708.67
-3708.65
-3708.59
-3708.48
-3708.34
-3708.18
-3708
-3707.82
-3707.65
-3707.5
-3707.4
-3707.33
-3707.32
-3707.36
-3707.44
-3707.57
-3707.73
-3707.9
-3708.07
-3708.21
-3708.33
-3708.39
-3708.41
-3708.36
-3708.27
-3708.13
-3707.96
-3707.78
-3707.61
-3707.47
-3707.38
-3707.35
-3707.38
-3707.46
-3707.59
-3707.75
-3707.93
-3708.07
-3708.19
-3708.25
-3708.25
-3708.19
-3708.09
-3707.96
-3707.81
-3707.68
-3707.6
-3707.56
-3707.58
-3707.64
-3707.74
-3707.85
-3707.95
-3708.02
-3708.05
-3708.05
-3708.02
-3707.97
-3707.93
-3707.89
-3707.87
-3707.87
-3707.88
-3707.89
-4509.08
-4509.08
-4509.07
-4509.06
-4509.04
-4509.02
-4509
-4508.97
-4508.94
-4508.91
-4508.88
-4508.85
-4508.82
-4508.8
-4508.78
-4508.76
-4508.75
-4508.75
-4508.76
-4508.77
-4508.8
-4508.84
-4508.88
-4508.94
-4509.01
-4509.09
-4509.19
-4509.29
-4509.4
-4509.53
-4509.66
-4509.8
-4509.95
-4510.1
-4510.26
-4510.43
-4510.6
-4510.77
-4510.95
-4511.13
-4511.31
-4511.5
-4511.68
-4511.87
-4512.05
-4512.23
-4512.41
-4512.58
-4512.75
-4512.91
-4513.06
-4513.21
-4513.35
-4513.48
-4513.59
-4513.7
-4513.79
-4513.87
-4513.93
-4513.98
-4514.01
-4514.03
-4514.03
-4514.02
-4513.99
-4513.94
-4513.88
-4513.8
-4513.71
-4513.61
-4513.5
-4513.37
-4513.24
-4513.1
-4512.96
-4512.82
-4512.68
-4512.54
-4512.41
-4512.29
-4512.18
-4512.08
-4512
-4511.94
-4511.9
-4511.88
-4511.88
-4511.9
-4511.95
-4512.03
-4512.12
-4512.24
-4512.39
-4512.54
-4512.72
-4512.9
-4513.09
-4513.29
-4513.48
-4513.67
-4513.84
-4513.99
-4514.13
-4514.23
-4514.31
-4514.35
-4514.36
-4514.33
-4514.27
-4514.17
-4514.03
-4513.87
-4513.68
-4513.47
-4513.24
-4513.02
-4512.8
-4512.59
-4512.4
-4512.24
-4512.12
-4512.05
-4512.02
-4512.04
-4512.11
-4512.22
-4512.39
-4512.59
-4512.81
-4513.06
-4513.31
-4513.56
-4513.78
-4513.96
-4514.11
-4514.2
-4514.23
-4514.2
-4514.11
-4513.96
-4513.77
-4513.54
-4513.29
-4513.05
-4512.82
-4512.62
-4512.48
-4512.4
-4512.38
-4512.44
-4512.56
-4512.74
-4512.96
-4513.2
-4513.43
-4513.63
-4513.79
-4513.87
-4513.89
-4513.83
-4513.7
-4513.51
-4513.28
-4513.03
-4512.81
-4512.63
-4512.51
-4512.47
-4512.51
-4512.63
-4512.81
-4513.02
-4513.25
-4513.45
-4513.6
-4513.68
-4513.67
-4513.59
-4513.45
-4513.27
-4513.06
-4512.9
-4512.79
-4512.75
-4512.78
-4512.87
-4513
-4513.15
-4513.27
-4513.36
-4513.4
-4513.39
-4513.34
-4513.27
-4513.21
-4513.16
-4513.14
-4513.15
-4513.16
-4513.18
-5222.5
-5222.49
-5222.46
-5222.43
-5222.39
-5222.34
-5222.29
-5222.22
-5222.15
-5222.08
-5222
-5221.92
-5221.85
-5221.78
-5221.72
-5221.66
-5221.62
-5221.59
-5221.57
-5221.56
-5221.58
-5221.61
-5221.65
-5221.72
-5221.8
-5221.9
-5222.01
-5222.14
-5222.29
-5222.44
-5222.61
-5222.8
-5222.98
-5223.18
-5223.38
-5223.59
-5223.81
-5224.03
-5224.25
-5224.48
-5224.7
-5224.93
-5225.16
-5225.38
-5225.61
-5225.83
-5226.04
-5226.25
-5226.46
-5226.65
-5226.84
-5227.01
-5227.18
-5227.33
-5227.47
-5227.59
-5227.69
-5227.78
-5227.85
-5227.9
-5227.93
-5227.94
-5227.92
-5227.89
-5227.84
-5227.76
-5227.67
-5227.55
-5227.42
-5227.28
-5227.11
-5226.94
-5226.76
-5226.57
-5226.37
-5226.17
-5225.98
-5225.79
-5225.61
-5225.44
-5225.29
-5225.16
-5225.04
-5224.96
-5224.9
-5224.87
-5224.87
-5224.9
-5224.97
-5225.06
-5225.19
-5225.35
-5225.53
-5225.74
-5225.97
-5226.21
-5226.47
-5226.72
-5226.98
-5227.22
-5227.45
-5227.65
-5227.83
-5227.97
-5228.07
-5228.12
-5228.13
-5228.09
-5228
-5227.87
-5227.69
-5227.47
-5227.21
-5226.94
-5226.64
-5226.34
-5226.05
-5225.78
-5225.53
-5225.32
-5225.17
-5225.06
-5225.03
-5225.05
-5225.15
-5225.31
-5225.52
-5225.79
-5226.09
-5226.41
-5226.75
-5227.07
-5227.35
-5227.6
-5227.79
-5227.9
-5227.94
-5227.89
-5227.76
-5227.57
-5227.31
-5227
-5226.67
-5226.35
-5226.04
-5225.79
-5225.6
-5225.5
-5225.49
-5225.57
-5225.73
-5225.97
-5226.27
-5226.59
-5226.9
-5227.17
-5227.37
-5227.49
-5227.51
-5227.43
-5227.25
-5226.99
-5226.69
-5226.37
-5226.07
-5225.83
-5225.68
-5225.63
-5225.69
-5225.85
-5226.09
-5226.38
-5226.68
-5226.94
-5227.13
-5227.22
-5227.21
-5227.1
-5226.91
-5226.67
-5226.4
-5226.19
-5226.05
-5226
-5226.04
-5226.17
-5226.34
-5226.54
-5226.71
-5226.82
-5226.86
-5226.83
-5226.76
-5226.66
-5226.57
-5226.51
-5226.49
-5226.51
-5226.54
-5226.56
-5854.71
-5854.69
-5854.65
-5854.59
-5854.51
-5854.42
-5854.3
-5854.18
-5854.03
-5853.88
-5853.72
-5853.55
-5853.4
-5853.24
-5853.11
-5852.98
-5852.88
-5852.8
-5852.74
-5852.71
-5852.71
-5852.73
-5852.78
-5852.86
-5852.97
-5853.1
-5853.26
-5853.44
-5853.64
-5853.86
-5854.08
-5854.32
-5854.57
-5854.82
-5855.08
-5855.34
-5855.61
-5855.88
-5856.15
-5856.43
-5856.7
-5856.97
-5857.25
-5857.52
-5857.79
-5858.05
-5858.31
-5858.56
-5858.81
-5859.04
-5859.26
-5859.47
-5859.66
-5859.84
-5860
-5860.14
-5860.26
-5860.36
-5860.43
-5860.48
-5860.51
-5860.51
-5860.48
-5860.42
-5860.34
-5860.23
-5860.09
-5859.94
-5859.76
-5859.56
-5859.34
-5859.11
-5858.87
-5858.61
-5858.35
-5858.09
-5857.84
-5857.59
-5857.35
-5857.13
-5856.93
-5856.75
-5856.6
-5856.49
-5856.41
-5856.37
-5856.37
-5856.41
-5856.49
-5856.62
-5856.78
-5856.98
-5857.22
-5857.49
-5857.79
-5858.1
-5858.42
-5858.75
-5859.08
-5859.39
-5859.68
-5859.94
-5860.17
-5860.35
-5860.47
-5860.54
-5860.55
-5860.5
-5860.38
-5860.21
-5859.97
-5859.69
-5859.36
-5859
-5858.63
-5858.24
-5857.87
-5857.51
-5857.2
-5856.93
-5856.73
-5856.6
-5856.56
-5856.59
-5856.72
-5856.92
-5857.2
-5857.54
-5857.93
-5858.34
-5858.77
-5859.18
-5859.55
-5859.86
-5860.1
-5860.24
-5860.28
-5860.22
-5860.05
-5859.79
-5859.45
-5859.06
-5858.63
-5858.21
-5857.82
-5857.5
-5857.26
-5857.13
-5857.12
-5857.23
-5857.45
-5857.76
-5858.14
-5858.58
-5858.98
-5859.33
-5859.59
-5859.73
-5859.75
-5859.64
-5859.41
-5859.08
-5858.69
-5858.27
-5857.9
-5857.59
-5857.4
-5857.34
-5857.43
-5857.64
-5857.95
-5858.32
-5858.7
-5859.03
-5859.27
-5859.39
-5859.36
-5859.21
-5858.96
-5858.65
-5858.31
-5858.04
-5857.87
-5857.81
-5857.87
-5858.04
-5858.27
-5858.52
-5858.73
-5858.86
-5858.9
-5858.86
-5858.76
-5858.62
-5858.51
-5858.44
-5858.42
-5858.45
-5858.49
-5858.53
-6415.2
-6415.16
-6415.08
-6414.95
-6414.79
-6414.59
-6414.35
-6414.07
-6413.76
-6413.44
-6413.13
-6412.84
-6412.56
-6412.31
-6412.09
-6411.9
-6411.74
-6411.61
-6411.52
-6411.46
-6411.45
-6411.48
-6411.55
-6411.66
-6411.81
-6412.01
-6412.24
-6412.51
-6412.8
-6413.1
-6413.41
-6413.71
-6414.03
-6414.34
-6414.65
-6414.97
-6415.29
-6415.61
-6415.94
-6416.26
-6416.59
-6416.91
-6417.23
-6417.55
-6417.87
-6418.18
-6418.49
-6418.78
-6419.07
-6419.34
-6419.61
-6419.85
-6420.08
-6420.28
-6420.47
-6420.63
-6420.77
-6420.87
-6420.95
-6421
-6421.02
-6421
-6420.95
-6420.87
-6420.76
-6420.62
-6420.44
-6420.24
-6420
-6419.75
-6419.47
-6419.17
-6418.85
-6418.53
-6418.2
-6417.87
-6417.54
-6417.22
-6416.92
-6416.64
-6416.38
-6416.16
-6415.97
-6415.83
-6415.73
-6415.67
-6415.67
-6415.72
-6415.83
-6415.98
-6416.19
-6416.45
-6416.74
-6417.08
-6417.45
-6417.84
-6418.25
-6418.66
-6419.07
-6419.46
-6419.82
-6420.15
-6420.43
-6420.65
-6420.81
-6420.9
-6420.91
-6420.84
-6420.69
-6420.47
-6420.17
-6419.82
-6419.41
-6418.96
-6418.48
-6418
-6417.53
-6417.09
-6416.69
-6416.36
-6416.11
-6415.95
-6415.9
-6415.95
-6416.11
-6416.36
-6416.72
-6417.14
-6417.63
-6418.15
-6418.69
-6419.19
-6419.66
-6420.05
-6420.34
-6420.51
-6420.56
-6420.47
-6420.25
-6419.92
-6419.49
-6418.99
-6418.46
-6417.93
-6417.44
-6417.04
-6416.75
-6416.59
-6416.58
-6416.72
-6417.01
-6417.4
-6417.88
-6418.45
-6418.95
-6419.38
-6419.71
-6419.89
-6419.91
-6419.77
-6419.47
-6419.06
-6418.56
-6418.04
-6417.57
-6417.2
-6416.96
-6416.89
-6417
-6417.27
-6417.66
-6418.13
-6418.61
-6419.02
-6419.31
-6419.45
-6419.41
-6419.21
-6418.89
-6418.49
-6418.08
-6417.75
-6417.54
-6417.47
-6417.56
-6417.77
-6418.06
-6418.39
-6418.64
-6418.8
-6418.84
-6418.77
-6418.63
-6418.46
-6418.32
-6418.23
-6418.22
-6418.26
-6418.33
-6418.37
-6912.33
-6912.28
-6912.15
-6911.97
-6911.73
-6911.43
-6911.11
-6910.75
-6910.32
-6909.8
-6909.27
-6908.73
-6908.24
-6907.8
-6907.4
-6907.06
-6906.77
-6906.54
-6906.37
-6906.26
-6906.22
-6906.24
-6906.32
-6906.47
-6906.68
-6906.95
-6907.28
-6907.65
-6908.04
-6908.44
-6908.83
-6909.22
-6909.61
-6909.99
-6910.37
-6910.74
-6911.12
-6911.49
-6911.86
-6912.23
-6912.61
-6912.98
-6913.35
-6913.72
-6914.08
-6914.44
-6914.8
-6915.14
-6915.47
-6915.79
-6916.09
-6916.38
-6916.64
-6916.88
-6917.09
-6917.28
-6917.43
-6917.55
-6917.64
-6917.68
-6917.69
-6917.66
-6917.6
-6917.49
-6917.34
-6917.16
-6916.93
-6916.67
-6916.38
-6916.06
-6915.71
-6915.34
-6914.95
-6914.55
-6914.14
-6913.73
-6913.32
-6912.93
-6912.56
-6912.21
-6911.9
-6911.62
-6911.39
-6911.21
-6911.09
-6911.02
-6911.02
-6911.08
-6911.21
-6911.4
-6911.66
-6911.97
-6912.34
-6912.75
-6913.2
-6913.68
-6914.18
-6914.68
-6915.18
-6915.66
-6916.1
-6916.5
-6916.84
-6917.11
-6917.31
-6917.41
-6917.42
-6917.33
-6917.15
-6916.87
-6916.51
-6916.07
-6915.57
-6915.02
-6914.44
-6913.85
-6913.27
-6912.74
-6912.26
-6911.85
-6911.55
-6911.36
-6911.29
-6911.36
-6911.55
-6911.87
-6912.3
-6912.83
-6913.42
-6914.06
-6914.71
-6915.33
-6915.9
-6916.37
-6916.72
-6916.93
-6916.98
-6916.86
-6916.59
-6916.18
-6915.65
-6915.04
-6914.38
-6913.73
-6913.14
-6912.65
-6912.29
-6912.11
-6912.11
-6912.29
-6912.64
-6913.13
-6913.7
-6914.45
-6915.04
-6915.57
-6915.96
-6916.18
-6916.2
-6916.02
-6915.66
-6915.14
-6914.54
-6913.9
-6913.33
-6912.87
-6912.59
-6912.51
-6912.65
-6912.99
-6913.48
-6914.05
-6914.63
-6915.12
-6915.48
-6915.64
-6915.58
-6915.33
-6914.93
-6914.44
-6913.95
-6913.55
-6913.29
-6913.23
-6913.34
-6913.6
-6913.95
-6914.37
-6914.67
-6914.85
-6914.88
-6914.79
-6914.6
-6914.39
-6914.22
-6914.12
-6914.11
-6914.17
-6914.26
-6914.33
-7353.69
-7353.6
-7353.41
-7353.11
-7352.68
-7352.11
-7351.38
-7350.41
-7348.96
-7347.92
-7347
-7346.23
-7345.57
-7345.01
-7344.54
-7344.16
-7343.85
-7343.62
-7343.45
-7343.37
-7343.35
-7343.41
-7343.55
-7343.78
-7344.12
-7344.59
-7345.16
-7346.15
-7346.81
-7347.38
-7347.87
-7348.32
-7348.75
-7349.16
-7349.57
-7349.98
-7350.39
-7350.8
-7351.21
-7351.63
-7352.04
-7352.46
-7352.88
-7353.3
-7353.71
-7354.12
-7354.53
-7354.92
-7355.3
-7355.67
-7356.01
-7356.34
-7356.64
-7356.91
-7357.16
-7357.36
-7357.54
-7357.67
-7357.76
-7357.81
-7357.81
-7357.77
-7357.68
-7357.54
-7357.36
-7357.13
-7356.85
-7356.54
-7356.18
-7355.79
-7355.37
-7354.91
-7354.44
-7353.96
-7353.47
-7352.97
-7352.49
-7352.01
-7351.57
-7351.15
-7350.77
-7350.44
-7350.16
-7349.95
-7349.8
-7349.72
-7349.72
-7349.8
-7349.95
-7350.18
-7350.49
-7350.86
-7351.3
-7351.8
-7352.34
-7352.91
-7353.51
-7354.11
-7354.71
-7355.28
-7355.81
-7356.29
-7356.69
-7357.01
-7357.24
-7357.36
-7357.37
-7357.27
-7357.05
-7356.72
-7356.28
-7355.75
-7355.15
-7354.49
-7353.8
-7353.09
-7352.41
-7351.76
-7351.19
-7350.71
-7350.35
-7350.13
-7350.05
-7350.13
-7350.37
-7350.75
-7351.27
-7351.9
-7352.61
-7353.38
-7354.15
-7354.89
-7355.56
-7356.12
-7356.53
-7356.78
-7356.83
-7356.69
-7356.36
-7355.86
-7355.23
-7354.49
-7353.7
-7352.92
-7352.22
-7351.63
-7351.21
-7351
-7351
-7351.23
-7351.66
-7352.24
-7352.93
-7353.84
-7354.55
-7355.17
-7355.64
-7355.9
-7355.92
-7355.7
-7355.26
-7354.64
-7353.92
-7353.16
-7352.48
-7351.93
-7351.6
-7351.51
-7351.69
-7352.1
-7352.68
-7353.37
-7354.06
-7354.65
-7355.06
-7355.24
-7355.17
-7354.86
-7354.38
-7353.79
-7353.2
-7352.73
-7352.44
-7352.36
-7352.51
-7352.83
-7353.24
-7353.76
-7354.1
-7354.3
-7354.34
-7354.21
-7353.98
-7353.72
-7353.51
-7353.4
-7353.4
-7353.49
-7353.6
-7353.69
-7745.75
-7745.63
-7745.39
-7745.02
-7744.52
-7743.9
-7743.19
-7742.28
-7740.31
-7738.83
-7737.47
-7736.3
-7735.29
-7734.42
-7733.68
-7733.08
-7732.58
-7732.21
-7731.94
-7731.79
-7731.74
-7731.8
-7731.98
-7732.28
-7732.72
-7733.3
-7733.95
-7735.1
-7735.63
-7736.2
-7736.75
-7737.27
-7737.76
-7738.22
-7738.67
-7739.11
-7739.55
-7739.99
-7740.43
-7740.88
-7741.34
-7741.8
-7742.26
-7742.73
-7743.2
-7743.66
-7744.11
-7744.56
-7744.99
-7745.4
-7745.8
-7746.17
-7746.51
-7746.82
-7747.09
-7747.33
-7747.52
-7747.67
-7747.77
-7747.82
-7747.81
-7747.76
-7747.64
-7747.47
-7747.25
-7746.98
-7746.65
-7746.27
-7745.85
-7745.38
-7744.88
-7744.35
-7743.79
-7743.22
-7742.64
-7742.06
-7741.48
-7740.93
-7740.4
-7739.91
-7739.47
-7739.08
-7738.76
-7738.5
-7738.33
-7738.24
-7738.24
-7738.33
-7738.51
-7738.78
-7739.14
-7739.59
-7740.1
-7740.68
-7741.32
-7741.99
-7742.69
-7743.4
-7744.1
-7744.77
-7745.39
-7745.95
-7746.42
-7746.8
-7747.06
-7747.2
-7747.21
-7747.08
-7746.82
-7746.43
-7745.92
-7745.3
-7744.59
-7743.82
-7743.01
-7742.18
-7741.38
-7740.62
-7739.96
-7739.4
-7738.98
-7738.72
-7738.64
-7738.73
-7739.01
-7739.47
-7740.07
-7740.81
-7741.65
-7742.54
-7743.45
-7744.31
-7745.09
-7745.75
-7746.23
-7746.51
-7746.57
-7746.4
-7746.01
-7745.41
-7744.66
-7743.79
-7742.86
-7741.96
-7741.13
-7740.44
-7739.96
-7739.71
-7739.73
-7740
-7740.51
-7741.21
-7742.02
-7743.07
-7743.91
-7744.64
-7745.19
-7745.49
-7745.52
-7745.25
-7744.73
-7744
-7743.15
-7742.26
-7741.46
-7740.83
-7740.44
-7740.35
-7740.56
-7741.05
-7741.74
-7742.54
-7743.35
-7744.03
-7744.51
-7744.72
-7744.62
-7744.25
-7743.68
-7742.99
-7742.3
-7741.76
-7741.42
-7741.34
-7741.53
-7741.91
-7742.4
-7743
-7743.39
-7743.62
-7743.65
-7743.49
-7743.21
-7742.9
-7742.65
-7742.52
-7742.53
-7742.65
-7742.8
-7742.9
-8094.7
-8094.71
-8094.74
-8094.84
-8094.99
-8095.23
-8095.65
-8096.14
-8082.18
-8082.25
-8082.19
-8082.31
-8082.51
-8082.78
-8083.11
-8083.48
-8083.88
-8084.31
-8084.76
-8085.22
-8085.71
-8086.2
-8086.71
-8087.22
-8087.73
-8088.25
-8088.77
-8089.28
-8089.78
-8090.26
-8090.73
-8091.17
-8091.59
-8091.97
-8092.32
-8092.63
-8092.89
-8093.1
-8093.26
-8093.37
-8093.42
-8093.41
-8093.34
-8093.2
-8093
-8092.74
-8092.41
-8092.03
-8091.59
-8091.1
-8090.56
-8089.98
-8089.36
-8088.72
-8088.05
-8087.38
-8086.71
-8086.05
-8085.41
-8084.8
-8084.24
-8083.73
-8083.28
-8082.91
-8082.62
-8082.42
-8082.32
-8082.32
-8082.42
-8082.63
-8082.95
-8083.36
-8083.87
-8084.47
-8085.14
-8085.87
-8086.65
-8087.46
-8088.27
-8089.07
-8089.84
-8090.56
-8091.2
-8091.75
-8092.18
-8092.48
-8092.64
-8092.64
-8092.5
-8092.2
-8091.74
-8091.15
-8090.44
-8089.62
-8088.73
-8087.79
-8086.84
-8085.92
-8085.06
-8084.29
-8083.65
-8083.17
-8082.87
-8082.78
-8082.9
-8083.22
-8083.74
-8084.45
-8085.3
-8086.26
-8087.29
-8088.33
-8089.33
-8090.22
-8090.97
-8091.52
-8091.84
-8091.9
-8091.7
-8091.24
-8090.55
-8089.68
-8088.68
-8087.61
-8086.56
-8085.61
-8084.82
-8084.27
-8083.99
-8084.02
-8084.34
-8084.94
-8085.75
-8086.7
-8087.89
-8088.86
-8089.7
-8090.33
-8090.68
-8090.7
-8090.39
-8089.78
-8088.94
-8087.96
-8086.93
-8086.02
-8085.29
-8084.85
-8084.75
-8085.01
-8085.57
-8086.37
-8087.3
-8088.22
-8089.01
-8089.55
-8089.78
-8089.66
-8089.23
-8088.56
-8087.76
-8086.98
-8086.35
-8085.97
-8085.9
-8086.12
-8086.57
-8087.14
-8087.82
-8088.27
-8088.53
-8088.55
-8088.35
-8088.02
-8087.65
-8087.37
-8087.22
-8087.25
-8087.39
-8087.58
-8087.7
-8403.54
-8403.54
-8403.54
-8403.55
-8403.52
-8403.51
-8403.54
-8403.42
-8386.89
-8387.18
-8387.28
-8387.53
-8387.81
-8388.11
-8388.45
-8388.83
-8389.24
-8389.68
-8390.15
-8390.65
-8391.16
-8391.7
-8392.25
-8392.81
-8393.38
-8393.95
-8394.52
-8395.09
-8395.64
-8396.18
-8396.7
-8397.19
-8397.66
-8398.09
-8398.47
-8398.81
-8399.1
-8399.34
-8399.52
-8399.63
-8399.68
-8399.67
-8399.58
-8399.42
-8399.19
-8398.88
-8398.51
-8398.07
-8397.57
-8397.01
-8396.39
-8395.73
-8395.03
-8394.3
-8393.54
-8392.78
-8392.02
-8391.26
-8390.54
-8389.85
-8389.21
-8388.63
-8388.12
-8387.7
-8387.37
-8387.15
-8387.04
-8387.04
-8387.16
-8387.4
-8387.76
-8388.23
-8388.81
-8389.49
-8390.25
-8391.08
-8391.97
-8392.88
-8393.8
-8394.71
-8395.59
-8396.4
-8397.12
-8397.73
-8398.22
-8398.56
-8398.74
-8398.75
-8398.58
-8398.23
-8397.72
-8397.04
-8396.23
-8395.31
-8394.3
-8393.24
-8392.16
-8391.11
-8390.14
-8389.27
-8388.55
-8388.01
-8387.68
-8387.57
-8387.71
-8388.08
-8388.68
-8389.48
-8390.44
-8391.53
-8392.7
-8393.88
-8395
-8396.01
-8396.86
-8397.48
-8397.83
-8397.9
-8397.66
-8397.14
-8396.35
-8395.36
-8394.22
-8393
-8391.82
-8390.74
-8389.85
-8389.23
-8388.92
-8388.96
-8389.34
-8390.02
-8390.95
-8392.04
-8393.36
-8394.46
-8395.43
-8396.14
-8396.53
-8396.55
-8396.19
-8395.49
-8394.54
-8393.42
-8392.26
-8391.22
-8390.41
-8389.92
-8389.81
-8390.1
-8390.75
-8391.66
-8392.71
-8393.76
-8394.65
-8395.26
-8395.5
-8395.36
-8394.86
-8394.09
-8393.19
-8392.31
-8391.6
-8391.18
-8391.11
-8391.37
-8391.89
-8392.55
-8393.29
-8393.8
-8394.09
-8394.1
-8393.87
-8393.48
-8393.06
-8392.74
-8392.58
-8392.62
-8392.79
-8393.01
-8393.16
-8677.09
-8677.09
-8677.08
-8677.09
-8677.08
-8677.09
-8677.1
-8677.09
-8657.53
-8657.74
-8657.8
-8657.99
-8658.24
-8658.52
-8658.87
-8659.26
-8659.68
-8660.15
-8660.65
-8661.18
-8661.74
-8662.32
-8662.92
-8663.53
-8664.15
-8664.78
-8665.4
-8666.03
-8666.64
-8667.23
-8667.8
-8668.35
-8668.86
-8669.33
-8669.76
-8670.13
-8670.45
-8670.71
-8670.9
-8671.03
-8671.08
-8671.05
-8670.95
-8670.77
-8670.5
-8670.16
-8669.74
-8669.25
-8668.68
-8668.05
-8667.36
-8666.61
-8665.83
-8665.01
-8664.16
-8663.31
-8662.46
-8661.62
-8660.8
-8660.03
-8659.32
-8658.67
-8658.11
-8657.64
-8657.27
-8657.02
-8656.9
-8656.9
-8657.04
-8657.31
-8657.71
-8658.25
-8658.89
-8659.65
-8660.51
-8661.44
-8662.42
-8663.44
-8664.48
-8665.49
-8666.47
-8667.37
-8668.18
-8668.86
-8669.41
-8669.78
-8669.98
-8669.99
-8669.79
-8669.41
-8668.83
-8668.07
-8667.17
-8666.13
-8665
-8663.82
-8662.62
-8661.45
-8660.36
-8659.39
-8658.59
-8657.99
-8657.62
-8657.51
-8657.66
-8658.08
-8658.75
-8659.65
-8660.73
-8661.95
-8663.25
-8664.56
-8665.82
-8666.95
-8667.88
-8668.57
-8668.96
-8669.03
-8668.76
-8668.17
-8667.29
-8666.17
-8664.9
-8663.53
-8662.21
-8661.01
-8660.02
-8659.33
-8658.99
-8659.04
-8659.47
-8660.25
-8661.3
-8662.53
-8663.97
-8665.21
-8666.29
-8667.09
-8667.52
-8667.54
-8667.13
-8666.35
-8665.27
-8664.02
-8662.73
-8661.57
-8660.66
-8660.12
-8660.01
-8660.35
-8661.07
-8662.1
-8663.27
-8664.44
-8665.42
-8666.1
-8666.37
-8666.2
-8665.63
-8664.77
-8663.76
-8662.78
-8661.99
-8661.53
-8661.46
-8661.76
-8662.36
-8663.1
-8663.91
-8664.48
-8664.79
-8664.79
-8664.52
-8664.08
-8663.6
-8663.24
-8663.07
-8663.12
-8663.34
-8663.59
-8663.76
-8919.42
-8919.42
-8919.42
-8919.42
-8919.42
-8919.43
-8919.43
-8919.43
-8896.99
-8897.2
-8897.28
-8897.46
-8897.71
-8898
-8898.35
-8898.76
-8899.21
-8899.7
-8900.23
-8900.8
-8901.4
-8902.03
-8902.68
-8903.34
-8904.02
-8904.7
-8905.38
-8906.06
-8906.73
-8907.38
-8908.01
-8908.6
-8909.16
-8909.67
-8910.14
-8910.55
-8910.9
-8911.18
-8911.39
-8911.52
-8911.57
-8911.54
-8911.42
-8911.22
-8910.92
-8910.54
-8910.07
-8909.52
-8908.9
-8908.2
-8907.43
-8906.61
-8905.74
-8904.83
-8903.9
-8902.96
-8902.01
-8901.08
-8900.19
-8899.34
-8898.55
-8897.84
-8897.21
-8896.7
-8896.3
-8896.02
-8895.89
-8895.89
-8896.05
-8896.35
-8896.8
-8897.38
-8898.1
-8898.94
-8899.88
-8900.91
-8902
-8903.13
-8904.27
-8905.39
-8906.46
-8907.46
-8908.35
-8909.1
-8909.7
-8910.11
-8910.33
-8910.33
-8910.12
-8909.69
-8909.05
-8908.21
-8907.21
-8906.07
-8904.82
-8903.52
-8902.19
-8900.91
-8899.7
-8898.64
-8897.76
-8897.1
-8896.7
-8896.58
-8896.75
-8897.21
-8897.96
-8898.95
-8900.14
-8901.49
-8902.92
-8904.37
-8905.75
-8906.99
-8908.02
-8908.78
-8909.2
-8909.27
-8908.97
-8908.31
-8907.33
-8906.1
-8904.69
-8903.18
-8901.72
-8900.4
-8899.31
-8898.55
-8898.19
-8898.25
-8898.73
-8899.6
-8900.77
-8902.13
-8903.7
-8905.08
-8906.27
-8907.15
-8907.62
-8907.63
-8907.18
-8906.31
-8905.12
-8903.74
-8902.32
-8901.04
-8900.04
-8899.45
-8899.34
-8899.71
-8900.52
-8901.65
-8902.95
-8904.23
-8905.32
-8906.06
-8906.34
-8906.15
-8905.51
-8904.55
-8903.44
-8902.36
-8901.5
-8901
-8900.93
-8901.28
-8901.94
-8902.77
-8903.65
-8904.28
-8904.61
-8904.6
-8904.29
-8903.79
-8903.26
-8902.86
-8902.69
-8902.75
-8903
-8903.29
-8903.48
-9134.09
-9134.09
-9134.09
-9134.1
-9134.09
-9134.1
-9134.1
-9134.1
-9109.03
-9109.22
-9109.32
-9109.5
-9109.76
-9110.07
-9110.44
-9110.86
-9111.34
-9111.86
-9112.43
-9113.04
-9113.69
-9114.36
-9115.06
-9115.78
-9116.51
-9117.25
-9117.99
-9118.72
-9119.45
-9120.15
-9120.83
-9121.48
-9122.08
-9122.64
-9123.14
-9123.58
-9123.96
-9124.26
-9124.49
-9124.63
-9124.68
-9124.65
-9124.51
-9124.28
-9123.96
-9123.54
-9123.03
-9122.43
-9121.74
-9120.97
-9120.14
-9119.24
-9118.28
-9117.29
-9116.28
-9115.24
-9114.21
-9113.2
-9112.22
-9111.3
-9110.43
-9109.66
-9108.98
-9108.42
-9107.98
-9107.69
-9107.54
-9107.55
-9107.72
-9108.05
-9108.54
-9109.18
-9109.97
-9110.88
-9111.91
-9113.04
-9114.23
-9115.46
-9116.7
-9117.92
-9119.09
-9120.18
-9121.15
-9121.97
-9122.62
-9123.07
-9123.3
-9123.3
-9123.07
-9122.6
-9121.9
-9120.99
-9119.89
-9118.64
-9117.28
-9115.86
-9114.41
-9113.01
-9111.7
-9110.54
-9109.58
-9108.87
-9108.43
-9108.3
-9108.5
-9109.01
-9109.82
-9110.9
-9112.21
-9113.67
-9115.24
-9116.82
-9118.32
-9119.67
-9120.79
-9121.61
-9122.08
-9122.15
-9121.81
-9121.09
-9120.01
-9118.66
-9117.12
-9115.47
-9113.88
-9112.44
-9111.26
-9110.43
-9110.04
-9110.11
-9110.65
-9111.6
-9112.89
-9114.39
-9116.08
-9117.59
-9118.89
-9119.85
-9120.36
-9120.37
-9119.87
-9118.91
-9117.61
-9116.1
-9114.55
-9113.16
-9112.07
-9111.43
-9111.31
-9111.73
-9112.62
-9113.86
-9115.27
-9116.67
-9117.85
-9118.65
-9118.96
-9118.73
-9118.03
-9116.98
-9115.77
-9114.59
-9113.66
-9113.12
-9113.05
-9113.44
-9114.18
-9115.09
-9116.03
-9116.72
-9117.08
-9117.06
-9116.7
-9116.15
-9115.57
-9115.13
-9114.94
-9115.02
-9115.3
-9115.63
-9115.85
-9324.27
-9324.27
-9324.27
-9324.27
-9324.27
-9324.27
-9324.27
-9324.27
-9296.8
-9296.96
-9297.08
-9297.27
-9297.55
-9297.87
-9298.26
-9298.71
-9299.21
-9299.77
-9300.37
-9301.02
-9301.73
-9302.45
-9303.19
-9303.96
-9304.75
-9305.54
-9306.34
-9307.13
-9307.91
-9308.67
-9309.39
-9310.09
-9310.74
-9311.34
-9311.88
-9312.35
-9312.76
-9313.08
-9313.32
-9313.47
-9313.53
-9313.48
-9313.34
-9313.09
-9312.73
-9312.28
-9311.72
-9311.07
-9310.32
-9309.49
-9308.59
-9307.61
-9306.58
-9305.51
-9304.41
-9303.3
-9302.18
-9301.09
-9300.03
-9299.03
-9298.1
-9297.26
-9296.53
-9295.92
-9295.46
-9295.14
-9294.98
-9294.99
-9295.18
-9295.54
-9296.07
-9296.77
-9297.62
-9298.61
-9299.72
-9300.93
-9302.22
-9303.55
-9304.89
-9306.21
-9307.48
-9308.65
-9309.7
-9310.58
-9311.28
-9311.77
-9312.02
-9312.02
-9311.76
-9311.25
-9310.49
-9309.5
-9308.32
-9306.97
-9305.5
-9303.96
-9302.4
-9300.89
-9299.48
-9298.23
-9297.19
-9296.42
-9295.95
-9295.82
-9296.03
-9296.59
-9297.46
-9298.64
-9300.05
-9301.63
-9303.32
-9305.02
-9306.65
-9308.11
-9309.31
-9310.2
-9310.69
-9310.76
-9310.4
-9309.61
-9308.44
-9306.98
-9305.31
-9303.53
-9301.81
-9300.25
-9298.98
-9298.09
-9297.67
-9297.76
-9298.35
-9299.39
-9300.79
-9302.41
-9304.22
-9305.85
-9307.26
-9308.3
-9308.85
-9308.85
-9308.3
-9307.27
-9305.85
-9304.22
-9302.55
-9301.05
-9299.88
-9299.19
-9299.07
-9299.53
-9300.49
-9301.84
-9303.37
-9304.88
-9306.14
-9307
-9307.32
-9307.07
-9306.31
-9305.17
-9303.86
-9302.59
-9301.59
-9301.01
-9300.95
-9301.38
-9302.18
-9303.17
-9304.18
-9304.92
-9305.3
-9305.27
-9304.88
-9304.27
-9303.64
-9303.16
-9302.96
-9303.06
-9303.38
-9303.74
-9303.98
-9492.73
-9492.73
-9492.73
-9492.73
-9492.73
-9492.74
-9492.74
-9492.74
-9463.08
-9463.22
-9463.35
-9463.55
-9463.84
-9464.18
-9464.6
-9465.07
-9465.61
-9466.2