/*--------------------------------*- C++ -*----------------------------------*\
  =========                 |
  \\      /  F ield         | OpenFOAM: The Open Source CFD Toolbox
   \\    /   O peration     | Website:  https://openfoam.org
    \\  /    A nd           | Version:  12
     \\/     M anipulation  |
\*---------------------------------------------------------------------------*/
FoamFile
{
    format      ascii;
    class       volScalarField;
    location    "3000";
    object      epsilon;
}
// * * * * * * * * * * * * * * * * * * * * * * * * * * * * * * * * * * * * * //

dimensions      [0 2 -3 0 0 0 0];

internalField   nonuniform List<scalar> 
80
(
337.235
132.178
75.312
51.2306
38.2752
30.2477
24.7969
20.8529
17.8635
15.5161
13.6211
12.057
10.7424
9.62078
8.65172
7.80559
7.06022
6.3987
5.80796
5.27778
4.80007
4.36837
3.97749
3.62325
3.30222
3.0116
2.74907
2.51269
2.30078
2.1119
1.94475
1.79817
1.67106
1.56241
1.47127
1.3968
1.33821
1.29488
1.26628
1.25207
1.25207
1.26628
1.29488
1.33821
1.3968
1.47127
1.56241
1.67106
1.79817
1.94475
2.1119
2.30078
2.51269
2.74907
3.0116
3.30222
3.62325
3.9775
4.36837
4.80007
5.27778
5.80796
6.3987
7.06022
7.8056
8.65172
9.62078
10.7424
12.057
13.6211
15.5161
17.8635
20.8529
24.7969
30.2477
38.2752
51.2306
75.312
132.178
337.235
)
;

boundaryField
{
    lowerWall
    {
        type            epsilonWallFunction;
        value           uniform 337.235;
    }
    upperWall
    {
        type            epsilonWallFunction;
        value           uniform 337.235;
    }
    front
    {
        type            cyclic;
    }
    back
    {
        type            cyclic;
    }
    defaultFaces
    {
        type            empty;
    }
}


// ************************************************************************* //
