/*--------------------------------*- C++ -*----------------------------------*\
  =========                 |
  \\      /  F ield         | OpenFOAM: The Open Source CFD Toolbox
   \\    /   O peration     | Website:  https://openfoam.org
    \\  /    A nd           | Version:  12
     \\/     M anipulation  |
\*---------------------------------------------------------------------------*/
FoamFile
{
    format      ascii;
    class       volSymmTensorField;
    location    "3000";
    object      R;
}
// * * * * * * * * * * * * * * * * * * * * * * * * * * * * * * * * * * * * * //

dimensions      [0 2 -2 0 0 0 0];

internalField   nonuniform List<symmTensor> 
80
(
(0.43436 -0.59932 -0 0.43436 -0 0.43436)
(0.432864 -0.200152 -0 0.432864 -0 0.432864)
(0.411896 -0.186486 -0 0.411896 -0 0.411896)
(0.395513 -0.179509 -0 0.395513 -0 0.395513)
(0.38147 -0.173738 -0 0.38147 -0 0.38147)
(0.368692 -0.168432 -0 0.368692 -0 0.368692)
(0.356677 -0.163331 -0 0.356677 -0 0.356677)
(0.34517 -0.158329 -0 0.34517 -0 0.34517)
(0.334028 -0.15338 -0 0.334028 -0 0.334028)
(0.32317 -0.148461 -0 0.32317 -0 0.32317)
(0.312545 -0.143559 -0 0.312545 -0 0.312545)
(0.302119 -0.138669 -0 0.302119 -0 0.302119)
(0.291875 -0.133788 -0 0.291875 -0 0.291875)
(0.281799 -0.128913 -0 0.281799 -0 0.281799)
(0.271886 -0.124042 -0 0.271886 -0 0.271886)
(0.262136 -0.119176 -0 0.262136 -0 0.262136)
(0.252551 -0.114313 -0 0.252551 -0 0.252551)
(0.243139 -0.109453 -0 0.243139 -0 0.243139)
(0.233909 -0.104595 -0 0.233909 -0 0.233909)
(0.224874 -0.0997393 -0 0.224874 -0 0.224874)
(0.216051 -0.094885 -0 0.216051 -0 0.216051)
(0.207458 -0.0900318 -0 0.207458 -0 0.207458)
(0.199117 -0.0851793 -0 0.199117 -0 0.199117)
(0.191052 -0.0803273 -0 0.191052 -0 0.191052)
(0.18329 -0.0754752 -0 0.18329 -0 0.18329)
(0.175859 -0.070623 -0 0.175859 -0 0.175859)
(0.168788 -0.0657701 -0 0.168788 -0 0.168788)
(0.162108 -0.0609163 -0 0.162108 -0 0.162108)
(0.155847 -0.0560612 -0 0.155847 -0 0.155847)
(0.150034 -0.0512044 -0 0.150034 -0 0.150034)
(0.144694 -0.0463453 -0 0.144694 -0 0.144694)
(0.139849 -0.0414835 -0 0.139849 -0 0.139849)
(0.135518 -0.0366183 -0 0.135518 -0 0.135518)
(0.131715 -0.0317491 -0 0.131715 -0 0.131715)
(0.128449 -0.0268756 -0 0.128449 -0 0.128449)
(0.125726 -0.0219974 -0 0.125726 -0 0.125726)
(0.123548 -0.0171148 -0 0.123548 -0 0.123548)
(0.121917 -0.0122281 -0 0.121917 -0 0.121917)
(0.120831 -0.00733827 -0 0.120831 -0 0.120831)
(0.120288 -0.00244633 -0 0.120288 -0 0.120288)
(0.120288 0.00244631 -0 0.120288 -0 0.120288)
(0.120831 0.00733825 -0 0.120831 -0 0.120831)
(0.121917 0.0122281 -0 0.121917 -0 0.121917)
(0.123548 0.0171148 -0 0.123548 -0 0.123548)
(0.125726 0.0219974 -0 0.125726 -0 0.125726)
(0.128449 0.0268755 -0 0.128449 -0 0.128449)
(0.131715 0.0317491 -0 0.131715 -0 0.131715)
(0.135518 0.0366183 -0 0.135518 -0 0.135518)
(0.139849 0.0414835 -0 0.139849 -0 0.139849)
(0.144694 0.0463453 -0 0.144694 -0 0.144694)
(0.150034 0.0512044 -0 0.150034 -0 0.150034)
(0.155847 0.0560612 -0 0.155847 -0 0.155847)
(0.162108 0.0609163 -0 0.162108 -0 0.162108)
(0.168788 0.0657701 -0 0.168788 -0 0.168788)
(0.175859 0.0706229 -0 0.175859 -0 0.175859)
(0.18329 0.0754752 -0 0.18329 -0 0.18329)
(0.191052 0.0803273 -0 0.191052 -0 0.191052)
(0.199117 0.0851793 -0 0.199117 -0 0.199117)
(0.207458 0.0900318 -0 0.207458 -0 0.207458)
(0.216051 0.094885 -0 0.216051 -0 0.216051)
(0.224874 0.0997393 -0 0.224874 -0 0.224874)
(0.233909 0.104595 -0 0.233909 -0 0.233909)
(0.243139 0.109453 -0 0.243139 -0 0.243139)
(0.252551 0.114313 -0 0.252551 -0 0.252551)
(0.262136 0.119176 -0 0.262136 -0 0.262136)
(0.271886 0.124042 -0 0.271886 -0 0.271886)
(0.281799 0.128913 -0 0.281799 -0 0.281799)
(0.291875 0.133788 -0 0.291875 -0 0.291875)
(0.302119 0.138669 -0 0.302119 -0 0.302119)
(0.312545 0.143559 -0 0.312545 -0 0.312545)
(0.32317 0.148461 -0 0.32317 -0 0.32317)
(0.334028 0.15338 -0 0.334028 -0 0.334028)
(0.34517 0.158329 -0 0.34517 -0 0.34517)
(0.356677 0.163331 -0 0.356677 -0 0.356677)
(0.368692 0.168432 -0 0.368692 -0 0.368692)
(0.38147 0.173738 -0 0.38147 -0 0.38147)
(0.395513 0.179509 -0 0.395513 -0 0.395513)
(0.411896 0.186486 -0 0.411896 -0 0.411896)
(0.432864 0.200152 -0 0.432864 -0 0.432864)
(0.43436 0.59932 -0 0.43436 -0 0.43436)
)
;

boundaryField
{
    lowerWall
    {
        type            calculated;
        value           uniform (0.43436 -0.0989096 -0 0.43436 -0 0.43436);
    }
    upperWall
    {
        type            calculated;
        value           uniform (0.43436 0.0989095 -0 0.43436 -0 0.43436);
    }
    front
    {
        type            cyclic;
    }
    back
    {
        type            cyclic;
    }
    defaultFaces
    {
        type            empty;
    }
}


// ************************************************************************* //
