/*--------------------------------*- C++ -*----------------------------------*\
  =========                 |
  \\      /  F ield         | OpenFOAM: The Open Source CFD Toolbox
   \\    /   O peration     | Website:  https://openfoam.org
    \\  /    A nd           | Version:  12
     \\/     M anipulation  |
\*---------------------------------------------------------------------------*/
FoamFile
{
    format      ascii;
    class       volVectorField;
    location    "3000";
    object      U;
}
// * * * * * * * * * * * * * * * * * * * * * * * * * * * * * * * * * * * * * //

dimensions      [0 1 -1 0 0 0 0];

internalField   nonuniform List<vector> 
80
(
(6.04544 0 0)
(7.17986 0 0)
(7.78858 0 0)
(8.20186 0 0)
(8.51436 0 0)
(8.76602 0 0)
(8.97707 0 0)
(9.15906 0 0)
(9.31919 0 0)
(9.46223 0 0)
(9.59149 0 0)
(9.70936 0 0)
(9.81763 0 0)
(9.91764 0 0)
(10.0104 0 0)
(10.0969 0 0)
(10.1776 0 0)
(10.2531 0 0)
(10.3238 0 0)
(10.3902 0 0)
(10.4523 0 0)
(10.5106 0 0)
(10.5652 0 0)
(10.6161 0 0)
(10.6636 0 0)
(10.7077 0 0)
(10.7485 0 0)
(10.7861 0 0)
(10.8204 0 0)
(10.8516 0 0)
(10.8797 0 0)
(10.9048 0 0)
(10.9268 0 0)
(10.9459 0 0)
(10.9621 0 0)
(10.9755 0 0)
(10.9861 0 0)
(10.994 0 0)
(10.9993 0 0)
(11.0019 0 0)
(11.0019 0 0)
(10.9993 0 0)
(10.994 0 0)
(10.9861 0 0)
(10.9755 0 0)
(10.9621 0 0)
(10.9459 0 0)
(10.9268 0 0)
(10.9048 0 0)
(10.8797 0 0)
(10.8516 0 0)
(10.8204 0 0)
(10.7861 0 0)
(10.7485 0 0)
(10.7077 0 0)
(10.6636 0 0)
(10.6161 0 0)
(10.5652 0 0)
(10.5106 0 0)
(10.4523 0 0)
(10.3902 0 0)
(10.3238 0 0)
(10.2531 0 0)
(10.1776 0 0)
(10.0969 0 0)
(10.0104 0 0)
(9.91764 0 0)
(9.81763 0 0)
(9.70936 0 0)
(9.59149 0 0)
(9.46223 0 0)
(9.31919 0 0)
(9.15906 0 0)
(8.97707 0 0)
(8.76602 0 0)
(8.51436 0 0)
(8.20186 0 0)
(7.78858 0 0)
(7.17986 0 0)
(6.04544 0 0)
)
;

boundaryField
{
    lowerWall
    {
        type            noSlip;
    }
    upperWall
    {
        type            noSlip;
    }
    front
    {
        type            cyclic;
    }
    back
    {
        type            cyclic;
    }
    defaultFaces
    {
        type            empty;
    }
}


// ************************************************************************* //
