/*--------------------------------*- C++ -*----------------------------------*\
  =========                 |
  \\      /  F ield         | OpenFOAM: The Open Source CFD Toolbox
   \\    /   O peration     | Website:  https://openfoam.org
    \\  /    A nd           | Version:  12
     \\/     M anipulation  |
\*---------------------------------------------------------------------------*/
FoamFile
{
    format      binary;
    class       decomposedBlockData;
    location    "/home/as/openfoam/OpenFOAM-12/test/IO/fileHandler/processors4/0.0002/cloud:UTrans";
    object      cloud:UTrans;
}
// * * * * * * * * * * * * * * * * * * * * * * * * * * * * * * * * * * * * * //


// Processor0

758
(/*--------------------------------*- C++ -*----------------------------------*\
  =========                 |
  \\      /  F ield         | OpenFOAM: The Open Source CFD Toolbox
   \\    /   O peration     | Website:  https://openfoam.org
    \\  /    A nd           | Version:  12
     \\/     M anipulation  |
\*---------------------------------------------------------------------------*/
FoamFile
{
    format      binary;
    class       volVectorField::Internal;
    location    "0.0002";
    object      cloud:UTrans;
}
// * * * * * * * * * * * * * * * * * * * * * * * * * * * * * * * * * * * * * //

dimensions      [1 1 -1 0 0 0 0];

value           uniform (0 0 0);


// ************************************************************************* //
)

// Processor1

68
(dimensions      [1 1 -1 0 0 0 0];

value           uniform (0 0 0);
)

// Processor2

68
(dimensions      [1 1 -1 0 0 0 0];

value           uniform (0 0 0);
)

// Processor3

68
(dimensions      [1 1 -1 0 0 0 0];

value           uniform (0 0 0);
)
