/*--------------------------------*- C++ -*----------------------------------*\
  =========                 |
  \\      /  F ield         | OpenFOAM: The Open Source CFD Toolbox
   \\    /   O peration     | Website:  https://openfoam.org
    \\  /    A nd           | Version:  12
     \\/     M anipulation  |
\*---------------------------------------------------------------------------*/
FoamFile
{
    format      ascii;
    class       volScalarField;
    location    "700";
    object      epsilon;
}
// * * * * * * * * * * * * * * * * * * * * * * * * * * * * * * * * * * * * * //

dimensions      [0 2 -3 0 0 0 0];

internalField   nonuniform List<scalar> 
80
(
57.4212
345.443
866.418
989.959
855.289
689.029
550.495
443.825
362.473
299.764
250.65
211.553
179.96
154.092
132.662
114.728
99.5846
86.698
75.6553
66.1342
57.8798
50.6879
44.3937
38.8625
33.9835
29.6647
25.8294
22.4129
19.3606
16.6262
14.1707
11.9611
9.97084
8.1798
6.57577
5.15715
3.93664
2.9442
2.22447
1.82941
1.83246
2.23332
2.95804
3.95439
5.17776
6.59844
8.20399
9.99619
11.9873
14.1975
16.6534
19.3878
22.4398
25.8556
29.6897
34.0067
38.8833
44.4113
50.7014
57.8881
66.1362
75.6496
86.683
99.5585
114.688
132.607
154.018
179.864
211.43
250.495
299.571
362.232
443.526
550.122
688.558
854.685
989.18
865.556
345.051
57.3602
)
;

boundaryField
{
    lowerWall
    {
        type            fixedValue;
        value           uniform 1e-08;
    }
    upperWall
    {
        type            fixedValue;
        value           uniform 1e-08;
    }
    front
    {
        type            cyclic;
    }
    back
    {
        type            cyclic;
    }
    defaultFaces
    {
        type            empty;
    }
}


// ************************************************************************* //
