/*--------------------------------*- C++ -*----------------------------------*\
  =========                 |
  \\      /  F ield         | OpenFOAM: The Open Source CFD Toolbox
   \\    /   O peration     | Website:  https://openfoam.org
    \\  /    A nd           | Version:  12
     \\/     M anipulation  |
\*---------------------------------------------------------------------------*/
FoamFile
{
    format      ascii;
    class       volScalarField;
    location    "700";
    object      k;
}
// * * * * * * * * * * * * * * * * * * * * * * * * * * * * * * * * * * * * * //

dimensions      [0 2 -2 0 0 0 0];

internalField   nonuniform List<scalar> 
80
(
0.00841392
0.160798
0.48968
0.675272
0.745825
0.770108
0.776466
0.775963
0.772924
0.769068
0.765053
0.761091
0.757198
0.753299
0.749282
0.745015
0.74036
0.735177
0.72932
0.722645
0.715003
0.706242
0.696203
0.68472
0.671619
0.656715
0.639813
0.620705
0.599173
0.574994
0.547944
0.517823
0.484488
0.447922
0.408365
0.366553
0.324103
0.284016
0.250998
0.231118
0.231333
0.251594
0.284888
0.325143
0.367678
0.409518
0.44907
0.485612
0.51891
0.548986
0.575986
0.600112
0.621587
0.640637
0.657479
0.672321
0.68536
0.696781
0.706757
0.715456
0.723036
0.72965
0.735446
0.740571
0.745168
0.749379
0.753342
0.75719
0.761035
0.76495
0.768922
0.772738
0.77574
0.776211
0.769823
0.745516
0.674943
0.489363
0.160659
0.00840655
)
;

boundaryField
{
    lowerWall
    {
        type            fixedValue;
        value           uniform 1e-10;
    }
    upperWall
    {
        type            fixedValue;
        value           uniform 1e-10;
    }
    front
    {
        type            cyclic;
    }
    back
    {
        type            cyclic;
    }
    defaultFaces
    {
        type            empty;
    }
}


// ************************************************************************* //
