/*--------------------------------*- C++ -*----------------------------------*\
  =========                 |
  \\      /  F ield         | OpenFOAM: The Open Source CFD Toolbox
   \\    /   O peration     | Website:  https://openfoam.org
    \\  /    A nd           | Version:  12
     \\/     M anipulation  |
\*---------------------------------------------------------------------------*/
FoamFile
{
    format      ascii;
    class       volScalarField;
    location    "700";
    object      nut;
}
// * * * * * * * * * * * * * * * * * * * * * * * * * * * * * * * * * * * * * //

dimensions      [0 2 -1 0 0 0 0];

internalField   nonuniform List<scalar> 
80
(
3.76548e-09
5.14418e-07
6.08846e-06
1.65022e-05
3.07931e-05
4.89483e-05
7.05772e-05
9.54167e-05
0.00012338
0.000154538
0.000189075
0.000227244
0.000269348
0.000315716
0.000366691
0.000422619
0.000483834
0.000550651
0.000623347
0.00070215
0.000787215
0.000878602
0.00097625
0.00107994
0.00118925
0.00130354
0.00142185
0.00154289
0.00166499
0.00178602
0.00190344
0.00201434
0.00211562
0.00220452
0.0022795
0.00234198
0.00239874
0.00246313
0.00254632
0.00262531
0.00262582
0.00254828
0.00246668
0.00240334
0.00234701
0.00228454
0.00220932
0.00212007
0.00201839
0.00190709
0.00178928
0.00166787
0.00154544
0.00142408
0.00130549
0.00119094
0.0010814
0.0009775
0.000879667
0.000788116
0.000702906
0.000623975
0.000551167
0.000484254
0.000422955
0.000366956
0.00031592
0.000269501
0.000227355
0.000189152
0.000154589
0.000123409
9.54297e-05
7.05793e-05
4.8944e-05
3.07865e-05
1.64965e-05
6.08477e-06
5.13903e-07
3.76284e-09
)
;

boundaryField
{
    lowerWall
    {
        type            nutLowReWallFunction;
        Cmu             0.09;
        kappa           0.41;
        E               9.8;
        value           uniform 0;
    }
    upperWall
    {
        type            nutLowReWallFunction;
        Cmu             0.09;
        kappa           0.41;
        E               9.8;
        value           uniform 0;
    }
    front
    {
        type            cyclic;
    }
    back
    {
        type            cyclic;
    }
    defaultFaces
    {
        type            empty;
    }
}


// ************************************************************************* //
