/*--------------------------------*- C++ -*----------------------------------*\
  =========                 |
  \\      /  F ield         | OpenFOAM: The Open Source CFD Toolbox
   \\    /   O peration     | Website:  https://openfoam.org
    \\  /    A nd           | Version:  12
     \\/     M anipulation  |
\*---------------------------------------------------------------------------*/
FoamFile
{
    format      ascii;
    class       volSymmTensorField;
    location    "700";
    object      R;
}
// * * * * * * * * * * * * * * * * * * * * * * * * * * * * * * * * * * * * * //

dimensions      [0 2 -2 0 0 0 0];

internalField   nonuniform List<symmTensor> 
80
(
(0.00560928 -8.56472e-05 -0 0.00560928 -0 0.00560928)
(0.107199 -0.0102753 -0 0.107199 -0 0.107199)
(0.326454 -0.0865255 -0 0.326454 -0 0.326454)
(0.450181 -0.147106 -0 0.450181 -0 0.450181)
(0.497217 -0.177584 -0 0.497217 -0 0.497217)
(0.513405 -0.194416 -0 0.513405 -0 0.513405)
(0.517644 -0.203955 -0 0.517644 -0 0.517644)
(0.517308 -0.209759 -0 0.517308 -0 0.517308)
(0.515283 -0.213541 -0 0.515283 -0 0.515283)
(0.512712 -0.216151 -0 0.512712 -0 0.512712)
(0.510035 -0.218023 -0 0.510035 -0 0.510035)
(0.507394 -0.219386 -0 0.507394 -0 0.507394)
(0.504799 -0.220362 -0 0.504799 -0 0.504799)
(0.502199 -0.221018 -0 0.502199 -0 0.502199)
(0.499521 -0.221382 -0 0.499521 -0 0.499521)
(0.496677 -0.221464 -0 0.496677 -0 0.496677)
(0.493574 -0.221259 -0 0.493574 -0 0.493574)
(0.490118 -0.220749 -0 0.490118 -0 0.490118)
(0.486213 -0.219911 -0 0.486213 -0 0.486213)
(0.481763 -0.218716 -0 0.481763 -0 0.481763)
(0.476669 -0.217128 -0 0.476669 -0 0.476669)
(0.470828 -0.215105 -0 0.470828 -0 0.470828)
(0.464135 -0.212604 -0 0.464135 -0 0.464135)
(0.45648 -0.209572 -0 0.45648 -0 0.45648)
(0.447746 -0.205954 -0 0.447746 -0 0.447746)
(0.43781 -0.201687 -0 0.43781 -0 0.43781)
(0.426542 -0.196702 -0 0.426542 -0 0.426542)
(0.413803 -0.19092 -0 0.413803 -0 0.413803)
(0.399449 -0.184254 -0 0.399449 -0 0.399449)
(0.383329 -0.176608 -0 0.383329 -0 0.383329)
(0.365296 -0.167869 -0 0.365296 -0 0.365296)
(0.345216 -0.157914 -0 0.345216 -0 0.345216)
(0.322992 -0.146598 -0 0.322992 -0 0.322992)
(0.298614 -0.133761 -0 0.298614 -0 0.298614)
(0.272243 -0.119221 -0 0.272243 -0 0.272243)
(0.244369 -0.102782 -0 0.244369 -0 0.244369)
(0.216069 -0.0842595 -0 0.216069 -0 0.216069)
(0.189344 -0.063507 -0 0.189344 -0 0.189344)
(0.167332 -0.0402921 -0 0.167332 -0 0.167332)
(0.154079 -0.0139377 -0 0.154079 -0 0.154079)
(0.154222 0.0143831 -0 0.154222 -0 0.154222)
(0.167729 0.0407295 -0 0.167729 -0 0.167729)
(0.189925 0.0639409 -0 0.189925 -0 0.189925)
(0.216762 0.0846883 -0 0.216762 -0 0.216762)
(0.245119 0.103201 -0 0.245119 -0 0.245119)
(0.273012 0.119627 -0 0.273012 -0 0.273012)
(0.29938 0.134153 -0 0.29938 -0 0.29938)
(0.323741 0.146975 -0 0.323741 -0 0.323741)
(0.34594 0.158274 -0 0.34594 -0 0.34594)
(0.365991 0.168212 -0 0.365991 -0 0.365991)
(0.38399 0.176933 -0 0.38399 -0 0.38399)
(0.400074 0.184561 -0 0.400074 -0 0.400074)
(0.414391 0.191207 -0 0.414391 -0 0.414391)
(0.427091 0.196969 -0 0.427091 -0 0.427091)
(0.438319 0.201935 -0 0.438319 -0 0.438319)
(0.448214 0.206181 -0 0.448214 -0 0.448214)
(0.456907 0.209777 -0 0.456907 -0 0.456907)
(0.46452 0.212788 -0 0.46452 -0 0.46452)
(0.471172 0.215268 -0 0.471172 -0 0.471172)
(0.476971 0.217268 -0 0.476971 -0 0.476971)
(0.482024 0.218836 -0 0.482024 -0 0.482024)
(0.486433 0.22001 -0 0.486433 -0 0.486433)
(0.490297 0.220827 -0 0.490297 -0 0.490297)
(0.493714 0.221317 -0 0.493714 -0 0.493714)
(0.496778 0.221504 -0 0.496778 -0 0.496778)
(0.499586 0.221404 -0 0.499586 -0 0.499586)
(0.502228 0.221023 -0 0.502228 -0 0.502228)
(0.504793 0.220352 -0 0.504793 -0 0.504793)
(0.507356 0.219362 -0 0.507356 -0 0.507356)
(0.509967 0.217987 -0 0.509967 -0 0.509967)
(0.512615 0.216104 -0 0.512615 -0 0.512615)
(0.515159 0.213484 -0 0.515159 -0 0.515159)
(0.51716 0.209694 -0 0.51716 -0 0.51716)
(0.517474 0.203885 -0 0.517474 -0 0.517474)
(0.513216 0.194341 -0 0.513216 -0 0.513216)
(0.49701 0.177504 -0 0.49701 -0 0.49701)
(0.449962 0.147026 -0 0.449962 -0 0.449962)
(0.326242 0.0864534 -0 0.326242 -0 0.326242)
(0.107106 0.0102616 -0 0.107106 -0 0.107106)
(0.00560436 8.55526e-05 -0 0.00560436 -0 0.00560436)
)
;

boundaryField
{
    lowerWall
    {
        type            calculated;
        value           uniform (6.66667e-11 -0 -0 6.66667e-11 -0 6.66667e-11);
    }
    upperWall
    {
        type            calculated;
        value           uniform (6.66667e-11 0 -0 6.66667e-11 -0 6.66667e-11);
    }
    front
    {
        type            cyclic;
    }
    back
    {
        type            cyclic;
    }
    defaultFaces
    {
        type            empty;
    }
}


// ************************************************************************* //
