/*--------------------------------*- C++ -*----------------------------------*\
  =========                 |
  \\      /  F ield         | OpenFOAM: The Open Source CFD Toolbox
   \\    /   O peration     | Website:  https://openfoam.org
    \\  /    A nd           | Version:  12
     \\/     M anipulation  |
\*---------------------------------------------------------------------------*/
FoamFile
{
    format      ascii;
    class       volVectorField;
    location    "700";
    object      U;
}
// * * * * * * * * * * * * * * * * * * * * * * * * * * * * * * * * * * * * * //

dimensions      [0 1 -1 0 0 0 0];

internalField   nonuniform List<vector> 
80
(
(0.647047 0 0)
(1.98803 0 0)
(3.16324 0 0)
(3.98989 0 0)
(4.57669 0 0)
(5.02079 0 0)
(5.37702 0 0)
(5.677 0 0)
(5.9394 0 0)
(6.17568 0 0)
(6.39321 0 0)
(6.59691 0 0)
(6.79023 0 0)
(6.97565 0 0)
(7.15502 0 0)
(7.32975 0 0)
(7.50095 0 0)
(7.66952 0 0)
(7.83618 0 0)
(8.00154 0 0)
(8.16611 0 0)
(8.33032 0 0)
(8.49455 0 0)
(8.6591 0 0)
(8.82426 0 0)
(8.99023 0 0)
(9.15719 0 0)
(9.32523 0 0)
(9.49438 0 0)
(9.66458 0 0)
(9.8356 0 0)
(10.007 0 0)
(10.1781 0 0)
(10.3476 0 0)
(10.5136 0 0)
(10.6729 0 0)
(10.8205 0 0)
(10.9488 0 0)
(11.0475 0 0)
(11.1043 0 0)
(11.1038 0 0)
(11.0462 0 0)
(10.9467 0 0)
(10.8179 0 0)
(10.6699 0 0)
(10.5104 0 0)
(10.3443 0 0)
(10.1747 0 0)
(10.0035 0 0)
(9.83205 0 0)
(9.66101 0 0)
(9.49082 0 0)
(9.32168 0 0)
(9.15367 0 0)
(8.98676 0 0)
(8.82083 0 0)
(8.65573 0 0)
(8.49124 0 0)
(8.32709 0 0)
(8.16295 0 0)
(7.99847 0 0)
(7.8332 0 0)
(7.66664 0 0)
(7.49817 0 0)
(7.32707 0 0)
(7.15245 0 0)
(6.97319 0 0)
(6.78788 0 0)
(6.59468 0 0)
(6.3911 0 0)
(6.17369 0 0)
(5.93754 0 0)
(5.67526 0 0)
(5.37541 0 0)
(5.0193 0 0)
(4.57532 0 0)
(3.98865 0 0)
(3.16215 0 0)
(1.98724 0 0)
(0.646778 0 0)
)
;

boundaryField
{
    lowerWall
    {
        type            noSlip;
    }
    upperWall
    {
        type            noSlip;
    }
    front
    {
        type            cyclic;
    }
    back
    {
        type            cyclic;
    }
    defaultFaces
    {
        type            empty;
    }
}


// ************************************************************************* //
