# Selection :     sampledSurface(triSurfaceVolumetricFlowRate(triSurface=mid.obj))
# Faces  :        80
# Area   :        1.0000000000e-01
# Time            	areaNormalIntegrate(U)
1                 	-5.3936701914e-01
