/*--------------------------------*- C++ -*----------------------------------*\
  =========                 |
  \\      /  F ield         | OpenFOAM: The Open Source CFD Toolbox
   \\    /   O peration     | Website:  https://openfoam.org
    \\  /    A nd           | Version:  12
     \\/     M anipulation  |
\*---------------------------------------------------------------------------*/
FoamFile
{
    format      ascii;
    class       volVectorField;
    location    "11.74";
    object      U;
}
// * * * * * * * * * * * * * * * * * * * * * * * * * * * * * * * * * * * * * //

dimensions      [0 1 -1 0 0 0 0];

internalField   nonuniform List<vector> 
3829
(
(7.53922e-06 -0.000327649 0)
(2.21585e-05 -0.000336126 0)
(3.75684e-05 -0.000336244 0)
(5.3027e-05 -0.000336196 0)
(6.90008e-05 -0.000336109 0)
(8.53998e-05 -0.00033594 0)
(0.000102364 -0.000335673 0)
(0.000119879 -0.000335271 0)
(0.000138017 -0.000334692 0)
(0.000156792 -0.000333897 0)
(0.000176311 -0.000332833 0)
(0.000196565 -0.000331451 0)
(0.000217443 -0.000329693 0)
(0.000239003 -0.000327495 0)
(0.000261216 -0.000324793 0)
(0.000284023 -0.000321532 0)
(0.00030733 -0.000317646 0)
(0.000331042 -0.00031308 0)
(0.000355052 -0.000307788 0)
(0.000379233 -0.000301715 0)
(0.000403437 -0.000294836 0)
(0.000427493 -0.000287116 0)
(0.000451209 -0.000278551 0)
(0.000474411 -0.000269134 0)
(0.000496855 -0.000258877 0)
(0.000518456 -0.000247815 0)
(0.000538778 -0.000235987 0)
(0.000557608 -0.000223431 0)
(0.00057499 -0.000210203 0)
(0.000590507 -0.000196406 0)
(0.000603903 -0.000182107 0)
(0.000615101 -0.000167399 0)
(0.000623792 -0.000152367 0)
(0.000629981 -0.000137121 0)
(0.000633356 -0.000121748 0)
(0.000633913 -0.000106265 0)
(0.000631902 -9.09244e-05 0)
(0.000627026 -7.58476e-05 0)
(0.000619373 -6.12057e-05 0)
(0.000608967 -4.70945e-05 0)
(0.000595764 -3.36494e-05 0)
(0.00057986 -2.09404e-05 0)
(0.000561418 -9.00443e-06 0)
(0.000540562 2.09776e-06 0)
(0.000517469 1.23082e-05 0)
(0.000492319 2.15866e-05 0)
(0.00046535 2.98897e-05 0)
(0.000436789 3.71861e-05 0)
(0.000406928 4.34426e-05 0)
(0.000376044 4.86607e-05 0)
(0.000344216 5.27889e-05 0)
(0.000312138 5.59269e-05 0)
(0.000279921 5.79328e-05 0)
(0.000247868 5.89603e-05 0)
(0.000216177 5.89341e-05 0)
(0.000185322 5.80348e-05 0)
(0.000155829 5.61295e-05 0)
(0.000127457 5.34262e-05 0)
(0.000100892 4.98907e-05 0)
(7.65384e-05 4.56788e-05 0)
(5.4631e-05 4.07076e-05 0)
(3.49607e-05 3.52305e-05 0)
(1.81222e-05 2.93441e-05 0)
(4.57503e-06 2.3033e-05 0)
(-5.9317e-06 1.64286e-05 0)
(-1.32934e-05 9.61208e-06 0)
(-1.76663e-05 2.74076e-06 0)
(-1.853e-05 -4.05438e-06 0)
(-1.57158e-05 -1.07027e-05 0)
(-9.44236e-06 -1.70809e-05 0)
(2.43315e-07 -2.31473e-05 0)
(1.29585e-05 -2.88022e-05 0)
(2.82572e-05 -3.38687e-05 0)
(4.59145e-05 -3.82522e-05 0)
(6.59697e-05 -4.18034e-05 0)
(8.76292e-05 -4.46197e-05 0)
(0.000110709 -4.6438e-05 0)
(0.000134786 -4.73642e-05 0)
(0.000159408 -4.72376e-05 0)
(0.00018373 -4.61924e-05 0)
(0.00020763 -4.40325e-05 0)
(0.00023045 -4.09834e-05 0)
(0.000251199 -3.69024e-05 0)
(0.000270044 -3.19084e-05 0)
(0.000286113 -2.61622e-05 0)
(0.000298903 -1.96866e-05 0)
(0.000307908 -1.26328e-05 0)
(0.000312817 -5.08569e-06 0)
(0.00031315 2.75838e-06 0)
(0.000308496 1.07671e-05 0)
(0.000298824 1.87405e-05 0)
(0.000284254 2.65282e-05 0)
(0.000264924 3.39364e-05 0)
(0.000241121 4.07919e-05 0)
(0.000213168 4.68953e-05 0)
(0.000181466 5.20798e-05 0)
(0.000146602 5.61899e-05 0)
(0.000109193 5.90812e-05 0)
(7.0059e-05 6.06627e-05 0)
(3.00065e-05 6.08319e-05 0)
(-1.0013e-05 5.95761e-05 0)
(-4.90348e-05 5.68661e-05 0)
(-8.60471e-05 5.2771e-05 0)
(-0.000120129 4.73366e-05 0)
(-0.000150286 4.07269e-05 0)
(-0.0001757 3.30523e-05 0)
(-0.000195603 2.46047e-05 0)
(-0.000209366 1.54976e-05 0)
(-0.000216664 6.14702e-06 0)
(-0.000216802 -3.30577e-06 0)
(-0.000209718 -1.24461e-05 0)
(-0.000195787 -2.10464e-05 0)
(-0.000175584 -2.88085e-05 0)
(-0.000149782 -3.54319e-05 0)
(-0.000119227 -4.06956e-05 0)
(-8.49436e-05 -4.43707e-05 0)
(-4.82175e-05 -4.63222e-05 0)
(-1.0306e-05 -4.64595e-05 0)
(2.72565e-05 -4.47595e-05 0)
(6.27203e-05 -4.12756e-05 0)
(9.49536e-05 -3.61429e-05 0)
(0.00012241 -2.9619e-05 0)
(0.000143904 -2.18885e-05 0)
(0.000158627 -1.33775e-05 0)
(0.000165757 -4.41997e-06 0)
(0.000164747 4.57541e-06 0)
(0.000155536 1.3151e-05 0)
(0.000138784 2.08993e-05 0)
(0.000115444 2.75017e-05 0)
(8.66919e-05 3.25283e-05 0)
(5.39557e-05 3.57333e-05 0)
(1.88418e-05 3.69691e-05 0)
(-1.68054e-05 3.60586e-05 0)
(-5.06598e-05 3.31731e-05 0)
(-8.07456e-05 2.84084e-05 0)
(-0.000105539 2.20807e-05 0)
(-0.000123494 1.45362e-05 0)
(-0.000133604 6.22909e-06 0)
(-0.000134886 -2.19671e-06 0)
(-0.00012716 -1.03423e-05 0)
(-0.000111196 -1.76579e-05 0)
(-8.80093e-05 -2.36875e-05 0)
(-5.93717e-05 -2.79729e-05 0)
(-2.70992e-05 -3.02083e-05 0)
(6.99756e-06 -3.02675e-05 0)
(3.9983e-05 -2.81596e-05 0)
(6.93135e-05 -2.40623e-05 0)
(9.31255e-05 -1.83154e-05 0)
(0.000109726 -1.13428e-05 0)
(0.000117957 -3.8224e-06 0)
(0.000116989 3.74959e-06 0)
(0.000107134 1.06863e-05 0)
(8.95806e-05 1.64163e-05 0)
(6.60302e-05 2.05215e-05 0)
(3.86929e-05 2.26162e-05 0)
(9.86668e-06 2.24798e-05 0)
(-1.75756e-05 2.0289e-05 0)
(-4.07734e-05 1.62437e-05 0)
(-5.79463e-05 1.08323e-05 0)
(-6.75202e-05 4.61601e-06 0)
(-6.86023e-05 -1.70971e-06 0)
(-6.13162e-05 -7.52187e-06 0)
(-4.69342e-05 -1.22227e-05 0)
(-2.72984e-05 -1.53214e-05 0)
(-4.24481e-06 -1.65104e-05 0)
(1.9057e-05 -1.56842e-05 0)
(3.94622e-05 -1.30708e-05 0)
(5.50577e-05 -9.0101e-06 0)
(6.41592e-05 -4.09882e-06 0)
(6.5682e-05 1.06644e-06 0)
(5.96855e-05 5.80984e-06 0)
(4.72808e-05 9.60828e-06 0)
(3.02586e-05 1.20089e-05 0)
(1.08986e-05 1.28295e-05 0)
(-8.57138e-06 1.19652e-05 0)
(-2.56892e-05 9.84597e-06 0)
(-3.84366e-05 6.7924e-06 0)
(-4.59426e-05 3.33195e-06 0)
(-4.79195e-05 -2.07088e-10 0)
(-4.48627e-05 -2.75666e-06 0)
(-3.82198e-05 -4.6107e-06 0)
(-2.92774e-05 -5.44653e-06 0)
(-2.0192e-05 -5.26808e-06 0)
(-1.22389e-05 -4.33836e-06 0)
(-6.02657e-06 -2.95589e-06 0)
(-2.4819e-06 -1.47577e-06 0)
(-1.43535e-06 -1.84431e-07 0)
(-2.41219e-06 6.0364e-07 0)
(-4.11969e-06 7.7796e-07 0)
(-5.4619e-06 4.52334e-07 0)
(-5.65025e-06 -1.78189e-07 0)
(-4.42916e-06 -9.18001e-07 0)
(-1.61602e-06 -1.52697e-06 0)
(2.43644e-06 -1.90595e-06 0)
(6.51805e-06 -1.72332e-06 0)
(9.66084e-06 -1.11616e-06 0)
(1.10628e-05 -1.94499e-07 0)
(1.02672e-05 8.15567e-07 0)
(7.26595e-06 1.69123e-06 0)
(2.62535e-06 2.1984e-06 0)
(7.17777e-06 2.59286e-05 0)
(2.22907e-05 3.10763e-05 0)
(3.78867e-05 2.88336e-05 0)
(5.40635e-05 2.53459e-05 0)
(7.10222e-05 2.07251e-05 0)
(8.89159e-05 1.50079e-05 0)
(0.000107797 8.29108e-06 0)
(0.000127867 6.70662e-07 0)
(0.000149184 -7.72809e-06 0)
(0.000171832 -1.67015e-05 0)
(0.000195993 -2.60959e-05 0)
(0.000221636 -3.56652e-05 0)
(0.000248772 -4.52851e-05 0)
(0.000277471 -5.46444e-05 0)
(0.000307585 -6.35974e-05 0)
(0.00033906 -7.18366e-05 0)
(0.000371764 -7.91727e-05 0)
(0.000405429 -8.53454e-05 0)
(0.000439913 -9.01478e-05 0)
(0.000474918 -9.33587e-05 0)
(0.000510141 -9.48123e-05 0)
(0.00054523 -9.43498e-05 0)
(0.000579793 -9.18575e-05 0)
(0.000613551 -8.727e-05 0)
(0.000645968 -8.0526e-05 0)
(0.000676771 -7.16669e-05 0)
(0.00070555 -6.07016e-05 0)
(0.000731985 -4.7726e-05 0)
(0.000755701 -3.28444e-05 0)
(0.000776267 -1.6278e-05 0)
(0.000793521 1.79221e-06 0)
(0.000807302 2.11504e-05 0)
(0.000817235 4.14588e-05 0)
(0.000823354 6.24818e-05 0)
(0.000825951 8.38447e-05 0)
(0.000824063 0.0001052 0)
(0.000817345 0.000126441 0)
(0.00080607 0.000147352 0)
(0.000790559 0.000167715 0)
(0.000771103 0.000187308 0)
(0.000747852 0.000205898 0)
(0.000721501 0.000223286 0)
(0.000692285 0.000239162 0)
(0.00066022 0.000253389 0)
(0.000625616 0.000265755 0)
(0.000588748 0.00027612 0)
(0.000549911 0.000284349 0)
(0.000509398 0.000290357 0)
(0.000467677 0.000294013 0)
(0.000424941 0.000295337 0)
(0.000381765 0.000294276 0)
(0.000338391 0.000290869 0)
(0.000295182 0.000284961 0)
(0.000252784 0.000276895 0)
(0.000211498 0.00026643 0)
(0.000171512 0.000253906 0)
(0.00013345 0.000239215 0)
(9.75458e-05 0.000222722 0)
(6.41963e-05 0.0002044 0)
(3.3568e-05 0.000184596 0)
(6.30998e-06 0.000163282 0)
(-1.69791e-05 0.000140927 0)
(-3.69809e-05 0.000117555 0)
(-5.30996e-05 9.35772e-05 0)
(-6.51701e-05 6.91208e-05 0)
(-7.30132e-05 4.46147e-05 0)
(-7.66009e-05 2.02712e-05 0)
(-7.58311e-05 -3.44607e-06 0)
(-7.06089e-05 -2.6324e-05 0)
(-6.12818e-05 -4.80736e-05 0)
(-4.80119e-05 -6.84489e-05 0)
(-3.06809e-05 -8.71327e-05 0)
(-9.77226e-06 -0.000103871 0)
(1.43475e-05 -0.000118277 0)
(4.09288e-05 -0.000130165 0)
(6.96002e-05 -0.000139298 0)
(0.000100146 -0.000145372 0)
(0.000131723 -0.00014852 0)
(0.000163779 -0.000148352 0)
(0.000195585 -0.00014513 0)
(0.000226698 -0.000138459 0)
(0.000256256 -0.000128939 0)
(0.000283677 -0.000116144 0)
(0.000308049 -0.000100761 0)
(0.000328864 -8.26098e-05 0)
(0.000345684 -6.23897e-05 0)
(0.000357819 -4.01668e-05 0)
(0.00036483 -1.6594e-05 0)
(0.000366108 7.96764e-06 0)
(0.000361273 3.29716e-05 0)
(0.000350272 5.78907e-05 0)
(0.000333291 8.21603e-05 0)
(0.000310425 0.000105229 0)
(0.000281986 0.000126507 0)
(0.000248358 0.00014543 0)
(0.000210113 0.000161439 0)
(0.000167937 0.000174079 0)
(0.000122672 0.000182913 0)
(7.52816e-05 0.000187657 0)
(2.68217e-05 0.000188026 0)
(-2.15332e-05 0.000183915 0)
(-6.85861e-05 0.000175328 0)
(-0.000113116 0.000162392 0)
(-0.000153951 0.000145352 0)
(-0.00018994 0.000124624 0)
(-0.000219949 0.000100705 0)
(-0.000243231 7.42336e-05 0)
(-0.000258873 4.5969e-05 0)
(-0.000266519 1.67371e-05 0)
(-0.000265535 -1.24467e-05 0)
(-0.000255684 -4.08147e-05 0)
(-0.0002377 -6.74075e-05 0)
(-0.000212015 -9.13083e-05 0)
(-0.000179546 -0.000111766 0)
(-0.000141362 -0.000127783 0)
(-9.87254e-05 -0.000138938 0)
(-5.32918e-05 -0.000144656 0)
(-6.59904e-06 -0.000144695 0)
(3.94729e-05 -0.000139063 0)
(8.28102e-05 -0.000127928 0)
(0.00012183 -0.000111668 0)
(0.000154906 -9.10162e-05 0)
(0.000180512 -6.67958e-05 0)
(0.00019755 -4.01064e-05 0)
(0.000205305 -1.20831e-05 0)
(0.000203015 1.5828e-05 0)
(0.000190682 4.24906e-05 0)
(0.000169331 6.65001e-05 0)
(0.00013992 8.68337e-05 0)
(0.000103825 0.000102136 0)
(6.31033e-05 0.000111866 0)
(1.95255e-05 0.000115296 0)
(-2.44082e-05 0.000112209 0)
(-6.58271e-05 0.000102959 0)
(-0.000102495 8.78629e-05 0)
(-0.000132434 6.80006e-05 0)
(-0.000153881 4.43487e-05 0)
(-0.000165317 1.8603e-05 0)
(-0.000165934 -7.92106e-06 0)
(-0.000155801 -3.31685e-05 0)
(-0.000135638 -5.59147e-05 0)
(-0.000106691 -7.43152e-05 0)
(-7.10538e-05 -8.74186e-05 0)
(-3.11756e-05 -9.41015e-05 0)
(1.05595e-05 -9.39946e-05 0)
(5.06868e-05 -8.71219e-05 0)
(8.61123e-05 -7.40609e-05 0)
(0.00011459 -5.59558e-05 0)
(0.000133908 -3.41915e-05 0)
(0.000142855 -1.06365e-05 0)
(0.000140655 1.28264e-05 0)
(0.000127562 3.42542e-05 0)
(0.000105265 5.19865e-05 0)
(7.58122e-05 6.43543e-05 0)
(4.17605e-05 7.05231e-05 0)
(6.30185e-06 6.98684e-05 0)
(-2.70474e-05 6.27087e-05 0)
(-5.49832e-05 4.99091e-05 0)
(-7.52244e-05 3.28851e-05 0)
(-8.59482e-05 1.3481e-05 0)
(-8.6236e-05 -6.25047e-06 0)
(-7.64181e-05 -2.4264e-05 0)
(-5.80148e-05 -3.87115e-05 0)
(-3.33272e-05 -4.80804e-05 0)
(-4.76193e-06 -5.15252e-05 0)
(2.37601e-05 -4.86612e-05 0)
(4.84967e-05 -4.0284e-05 0)
(6.70711e-05 -2.75117e-05 0)
(7.75013e-05 -1.21342e-05 0)
(7.86554e-05 3.87225e-06 0)
(7.07448e-05 1.85218e-05 0)
(5.52198e-05 3.00649e-05 0)
(3.43429e-05 3.72541e-05 0)
(1.08566e-05 3.94594e-05 0)
(-1.22474e-05 3.65666e-05 0)
(-3.19983e-05 2.97239e-05 0)
(-4.62955e-05 2.01205e-05 0)
(-5.40467e-05 9.35703e-06 0)
(-5.51029e-05 -8.67351e-07 0)
(-5.02426e-05 -9.22481e-06 0)
(-4.13253e-05 -1.47145e-05 0)
(-3.00318e-05 -1.69576e-05 0)
(-1.89482e-05 -1.62486e-05 0)
(-9.66758e-06 -1.3021e-05 0)
(-2.87731e-06 -8.57712e-06 0)
(5.33511e-07 -3.90784e-06 0)
(8.03102e-07 -9.34055e-08 0)
(-1.38602e-06 2.31691e-06 0)
(-4.27593e-06 2.77273e-06 0)
(-6.45315e-06 1.66262e-06 0)
(-7.0561e-06 -4.26539e-07 0)
(-5.79806e-06 -2.82358e-06 0)
(-2.60751e-06 -4.82392e-06 0)
(2.23955e-06 -5.9246e-06 0)
(7.29089e-06 -5.39369e-06 0)
(1.11415e-05 -3.51096e-06 0)
(1.29134e-05 -6.51052e-07 0)
(1.2054e-05 2.50745e-06 0)
(8.56253e-06 5.22813e-06 0)
(3.0973e-06 6.80419e-06 0)
(-1.94115e-06 -0.000522799 0)
(-5.4865e-06 -0.000537983 0)
(-8.49321e-06 -0.000544282 0)
(-1.04422e-05 -0.000553398 0)
(-1.09206e-05 -0.0005653 0)
(-9.50996e-06 -0.000579774 0)
(-5.65631e-06 -0.000596393 0)
(8.06412e-07 -0.000614829 0)
(1.06844e-05 -0.000634436 0)
(2.41155e-05 -0.000654805 0)
(4.14157e-05 -0.000675214 0)
(6.22693e-05 -0.000695188 0)
(8.6938e-05 -0.00071401 0)
(0.000115525 -0.000730974 0)
(0.000147859 -0.000745569 0)
(0.000184083 -0.000757235 0)
(0.000223659 -0.00076546 0)
(0.000266503 -0.000769685 0)
(0.000312137 -0.000769431 0)
(0.000360057 -0.00076427 0)
(0.000409614 -0.000753914 0)
(0.000460224 -0.000738067 0)
(0.000511027 -0.000716515 0)
(0.000561483 -0.000689318 0)
(0.000610644 -0.000656403 0)
(0.000657973 -0.000618107 0)
(0.000702733 -0.000574591 0)
(0.00074416 -0.000526472 0)
(0.00078156 -0.000474086 0)
(0.000814144 -0.000418191 0)
(0.000841802 -0.000359395 0)
(0.00086364 -0.000298538 0)
(0.000879337 -0.000236171 0)
(0.000888838 -0.000173144 0)
(0.00089139 -0.000109883 0)
(0.000888488 -4.74405e-05 0)
(0.000881073 1.36715e-05 0)
(0.000868348 7.25984e-05 0)
(0.000850449 0.00012891 0)
(0.000827417 0.000182141 0)
(0.000799435 0.000231854 0)
(0.000766377 0.00027778 0)
(0.000728815 0.00031954 0)
(0.000687412 0.000356851 0)
(0.000642423 0.000389494 0)
(0.000594469 0.000417288 0)
(0.000544084 0.000440123 0)
(0.000491574 0.000457907 0)
(0.000437752 0.00047062 0)
(0.000383269 0.000478229 0)
(0.000328345 0.000480839 0)
(0.000273164 0.000478473 0)
(0.000219208 0.000471359 0)
(0.000166437 0.000459521 0)
(0.000114994 0.00044323 0)
(6.59032e-05 0.000422603 0)
(1.97274e-05 0.000398152 0)
(-2.3371e-05 0.000369921 0)
(-6.29168e-05 0.000338378 0)
(-9.85401e-05 0.000303805 0)
(-0.000129565 0.000266748 0)
(-0.00015593 0.000227374 0)
(-0.00017752 0.000186323 0)
(-0.000193495 0.000144015 0)
(-0.00020406 0.000101036 0)
(-0.000208841 5.78618e-05 0)
(-0.000207939 1.50509e-05 0)
(-0.000200971 -2.67961e-05 0)
(-0.000188536 -6.71744e-05 0)
(-0.000170788 -0.000105542 0)
(-0.000147724 -0.000141287 0)
(-0.000119743 -0.000173897 0)
(-8.71175e-05 -0.000202869 0)
(-5.03611e-05 -0.000227712 0)
(-1.014e-05 -0.000248069 0)
(3.31576e-05 -0.000263387 0)
(7.80539e-05 -0.000273473 0)
(0.000124322 -0.000277995 0)
(0.000171084 -0.000276912 0)
(0.000217486 -0.000269981 0)
(0.000262294 -0.000257355 0)
(0.000304929 -0.000239181 0)
(0.000344236 -0.000215568 0)
(0.000379482 -0.00018702 0)
(0.000409883 -0.000153844 0)
(0.000434236 -0.000116774 0)
(0.000452278 -7.63681e-05 0)
(0.000462847 -3.34706e-05 0)
(0.000465871 1.10241e-05 0)
(0.000460557 5.62129e-05 0)
(0.000446932 0.000101227 0)
(0.000425173 0.000144942 0)
(0.000395438 0.000186362 0)
(0.000358085 0.000224477 0)
(0.000313654 0.000258231 0)
(0.000262953 0.000286715 0)
(0.000207003 0.000309058 0)
(0.000146975 0.000324569 0)
(8.4164e-05 0.000332663 0)
(1.99208e-05 0.000332949 0)
(-4.40099e-05 0.000325184 0)
(-0.000106048 0.000309417 0)
(-0.00016457 0.000285871 0)
(-0.000217946 0.000255058 0)
(-0.000264612 0.000217683 0)
(-0.000303265 0.000174674 0)
(-0.000332601 0.000127219 0)
(-0.000351631 7.67586e-05 0)
(-0.000359568 2.46182e-05 0)
(-0.000355999 -2.75267e-05 0)
(-0.000341125 -7.80229e-05 0)
(-0.000315161 -0.00012514 0)
(-0.000279264 -0.000167419 0)
(-0.000234099 -0.000203103 0)
(-0.000181368 -0.000231134 0)
(-0.00012314 -0.000250118 0)
(-6.12049e-05 -0.000259525 0)
(1.87103e-06 -0.00025868 0)
(6.3647e-05 -0.000247698 0)
(0.000121583 -0.000226947 0)
(0.000173401 -0.00019718 0)
(0.000216732 -0.000159632 0)
(0.000249724 -0.000115836 0)
(0.000271056 -6.76678e-05 0)
(0.000279419 -1.75225e-05 0)
(0.000274398 3.25178e-05 0)
(0.000256191 7.99139e-05 0)
(0.000225885 0.000122562 0)
(0.00018468 0.00015819 0)
(0.000134799 0.000185038 0)
(7.9014e-05 0.000201621 0)
(1.95938e-05 0.000206861 0)
(-3.95682e-05 0.000200586 0)
(-9.51539e-05 0.000183068 0)
(-0.000143954 0.00015556 0)
(-0.000183347 0.000119243 0)
(-0.000210855 7.66468e-05 0)
(-0.000224984 3.02935e-05 0)
(-0.000224369 -1.70399e-05 0)
(-0.000209194 -6.21815e-05 0)
(-0.000180759 -0.000102348 0)
(-0.000140696 -0.000134799 0)
(-9.2118e-05 -0.000157389 0)
(-3.79274e-05 -0.00016849 0)
(1.81494e-05 -0.000167478 0)
(7.16572e-05 -0.000154349 0)
(0.000118337 -0.000130309 0)
(0.000155169 -9.739e-05 0)
(0.000179466 -5.81284e-05 0)
(0.000189507 -1.57965e-05 0)
(0.000184552 2.59964e-05 0)
(0.00016541 6.40292e-05 0)
(0.000133897 9.50238e-05 0)
(9.30565e-05 0.000116457 0)
(4.66989e-05 0.000126518 0)
(-1.14623e-06 0.000124588 0)
(-4.55132e-05 0.000110938 0)
(-8.20937e-05 8.74011e-05 0)
(-0.000107871 5.64906e-05 0)
(-0.000120563 2.15721e-05 0)
(-0.000119194 -1.36968e-05 0)
(-0.000104352 -4.56309e-05 0)
(-7.8178e-05 -7.08859e-05 0)
(-4.39532e-05 -8.70002e-05 0)
(-5.06113e-06 -9.23889e-05 0)
(3.32068e-05 -8.65436e-05 0)
(6.58509e-05 -7.09097e-05 0)
(8.98146e-05 -4.7651e-05 0)
(0.000102491 -2.00014e-05 0)
(0.000102716 8.48942e-06 0)
(9.09883e-05 3.42674e-05 0)
(6.94379e-05 5.42645e-05 0)
(4.12778e-05 6.62906e-05 0)
(1.01654e-05 6.93617e-05 0)
(-1.96189e-05 6.35631e-05 0)
(-4.41813e-05 5.07521e-05 0)
(-6.11032e-05 3.32853e-05 0)
(-6.90525e-05 1.40876e-05 0)
(-6.81632e-05 -3.85642e-06 0)
(-5.97937e-05 -1.81771e-05 0)
(-4.64869e-05 -2.72256e-05 0)
(-3.0928e-05 -3.0372e-05 0)
(-1.6137e-05 -2.83965e-05 0)
(-4.38749e-06 -2.20535e-05 0)
(3.21425e-06 -1.37441e-05 0)
(6.04079e-06 -5.31348e-06 0)
(4.75611e-06 1.34676e-06 0)
(4.13605e-07 5.3703e-06 0)
(-4.73823e-06 5.93052e-06 0)
(-8.51306e-06 3.63491e-06 0)
(-9.88848e-06 -4.00449e-07 0)
(-8.53979e-06 -4.92286e-06 0)
(-4.48854e-06 -8.68118e-06 0)
(1.90598e-06 -1.06063e-05 0)
(8.6959e-06 -9.70635e-06 0)
(1.38962e-05 -6.35651e-06 0)
(1.63791e-05 -1.26408e-06 0)
(1.54042e-05 4.38265e-06 0)
(1.0982e-05 9.22102e-06 0)
(3.97854e-06 1.20578e-05 0)
(-1.62592e-05 2.22026e-05 0)
(-4.68699e-05 1.86895e-05 0)
(-7.56355e-05 4.52737e-06 0)
(-0.000101142 -1.68815e-05 0)
(-0.000122013 -4.51838e-05 0)
(-0.000136727 -8.02942e-05 0)
(-0.000144547 -0.000121375 0)
(-0.000143944 -0.00016845 0)
(-0.00013435 -0.000219779 0)
(-0.000115455 -0.000275061 0)
(-8.68472e-05 -0.000332836 0)
(-4.88636e-05 -0.000392262 0)
(-2.5879e-07 -0.000451619 0)
(5.74571e-05 -0.000509676 0)
(0.000122927 -0.000564551 0)
(0.000195858 -0.000614938 0)
(0.000275811 -0.000659092 0)
(0.000362165 -0.000695905 0)
(0.000453769 -0.000724252 0)
(0.00054899 -0.00074277 0)
(0.000646664 -0.000750946 0)
(0.00074586 -0.000748282 0)
(0.000844057 -0.000734422 0)
(0.000940126 -0.000709393 0)
(0.00103199 -0.000673178 0)
(0.00111812 -0.000626765 0)
(0.00119672 -0.000570446 0)
(0.00126662 -0.000505754 0)
(0.00132682 -0.000433402 0)
(0.00137571 -0.000355363 0)
(0.00141295 -0.000272529 0)
(0.00143877 -0.000186809 0)
(0.00145307 -9.95256e-05 0)
(0.00145668 -1.22781e-05 0)
(0.00144896 7.3702e-05 0)
(0.00142918 0.000157759 0)
(0.00139841 0.00023893 0)
(0.00135743 0.000316481 0)
(0.0013086 0.00038962 0)
(0.00125229 0.000457697 0)
(0.00118964 0.000520134 0)
(0.00112161 0.00057646 0)
(0.00104846 0.00062643 0)
(0.000971083 0.000669708 0)
(0.00089028 0.000706154 0)
(0.000806879 0.000735598 0)
(0.000721599 0.000757974 0)
(0.000635131 0.00077324 0)
(0.000548219 0.00078144 0)
(0.000461616 0.000782525 0)
(0.000376071 0.00077668 0)
(0.000292251 0.000764032 0)
(0.000210633 0.000744796 0)
(0.000131874 0.000719146 0)
(5.65954e-05 0.000687437 0)
(-1.40996e-05 0.000649996 0)
(-7.99432e-05 0.000607099 0)
(-0.000140973 0.00055912 0)
(-0.00019595 0.000506685 0)
(-0.000244515 0.000450177 0)
(-0.000286555 0.000390274 0)
(-0.00032131 0.000327391 0)
(-0.000348563 0.000262498 0)
(-0.000368031 0.000196079 0)
(-0.000379484 0.000129007 0)
(-0.000382957 6.19519e-05 0)
(-0.00037813 -4.18104e-06 0)
(-0.000365207 -6.86281e-05 0)
(-0.000344524 -0.000130639 0)
(-0.000316111 -0.000189202 0)
(-0.000280324 -0.000243572 0)
(-0.00023763 -0.000292965 0)
(-0.000188629 -0.000336553 0)
(-0.000134221 -0.00037369 0)
(-7.5087e-05 -0.000403707 0)
(-1.21807e-05 -0.000426031 0)
(5.34196e-05 -0.000440269 0)
(0.000120447 -0.000445799 0)
(0.000188015 -0.000442684 0)
(0.000254811 -0.000430497 0)
(0.000319175 -0.000409768 0)
(0.000380451 -0.000380228 0)
(0.000437036 -0.000342721 0)
(0.000487548 -0.000297336 0)
(0.000530891 -0.000245249 0)
(0.000565976 -0.000187027 0)
(0.000592034 -0.000123909 0)
(0.00060775 -5.71747e-05 0)
(0.000612578 1.20838e-05 0)
(0.000606334 8.2219e-05 0)
(0.000588575 0.000151959 0)
(0.000559355 0.000219485 0)
(0.000519224 0.000283434 0)
(0.000468512 0.000342007 0)
(0.000408061 0.000393749 0)
(0.000339066 0.000437259 0)
(0.000262908 0.000471227 0)
(0.000181257 0.000494592 0)
(9.59082e-05 0.000506381 0)
(8.81202e-06 0.000506084 0)
(-7.776e-05 0.00049343 0)
(-0.00016151 0.000468519 0)
(-0.000240175 0.000431722 0)
(-0.000311534 0.000383803 0)
(-0.000373595 0.000325877 0)
(-0.000424313 0.000259498 0)
(-0.000461928 0.00018649 0)
(-0.000485431 0.000108733 0)
(-0.000494149 2.87731e-05 0)
(-0.000487003 -5.09596e-05 0)
(-0.000463948 -0.000127994 0)
(-0.000426275 -0.000199642 0)
(-0.000374665 -0.000263665 0)
(-0.000311009 -0.000317259 0)
(-0.000237327 -0.000359028 0)
(-0.000156128 -0.000386881 0)
(-7.05836e-05 -0.000399833 0)
(1.63908e-05 -0.000397141 0)
(0.000100895 -0.000378845 0)
(0.000179641 -0.000345622 0)
(0.000249484 -0.000298631 0)
(0.000307463 -0.000239924 0)
(0.000351049 -0.000171822 0)
(0.000377827 -9.74994e-05 0)
(0.000386938 -2.01564e-05 0)
(0.000377676 5.65016e-05 0)
(0.000350287 0.000129173 0)
(0.000306539 0.000194081 0)
(0.000248212 0.000247826 0)
(0.000178293 0.000287841 0)
(0.000100201 0.000312037 0)
(1.79692e-05 0.000318789 0)
(-6.35529e-05 0.000307852 0)
(-0.000139246 0.000279499 0)
(-0.000205446 0.000236074 0)
(-0.000258323 0.000179289 0)
(-0.000294211 0.000113199 0)
(-0.000311483 4.15433e-05 0)
(-0.000308596 -3.10256e-05 0)
(-0.000285932 -9.99932e-05 0)
(-0.000245193 -0.000160966 0)
(-0.000188831 -0.000209915 0)
(-0.000120856 -0.000243311 0)
(-4.60554e-05 -0.000259227 0)
(3.07139e-05 -0.000255875 0)
(0.000103378 -0.000234453 0)
(0.000166051 -0.000196531 0)
(0.000214793 -0.000144975 0)
(0.000245931 -8.42145e-05 0)
(0.00025708 -1.91103e-05 0)
(0.000247837 4.48706e-05 0)
(0.000219241 0.000102729 0)
(0.00017415 0.000149347 0)
(0.000116783 0.000180944 0)
(5.23381e-05 0.000195051 0)
(-1.32884e-05 0.000190619 0)
(-7.34852e-05 0.000168295 0)
(-0.000122283 0.000131014 0)
(-0.000155718 8.28089e-05 0)
(-0.000170832 2.87945e-05 0)
(-0.000166623 -2.52297e-05 0)
(-0.000144088 -7.37578e-05 0)
(-0.000106452 -0.000111625 0)
(-5.82848e-05 -0.00013517 0)
(-4.37228e-06 -0.000142073 0)
(4.78808e-05 -0.000131898 0)
(9.17846e-05 -0.000106839 0)
(0.000123151 -7.05118e-05 0)
(0.000138681 -2.77463e-05 0)
(0.000137156 1.57368e-05 0)
(0.000119563 5.46208e-05 0)
(8.90265e-05 8.42006e-05 0)
(5.0162e-05 0.000101264 0)
(8.15232e-06 0.00010456 0)
(-3.10894e-05 9.44475e-05 0)
(-6.23767e-05 7.37863e-05 0)
(-8.27057e-05 4.64973e-05 0)
(-9.05417e-05 1.71222e-05 0)
(-8.64744e-05 -9.83367e-06 0)
(-7.2741e-05 -3.07463e-05 0)
(-5.29742e-05 -4.32898e-05 0)
(-3.12076e-05 -4.67436e-05 0)
(-1.1299e-05 -4.22773e-05 0)
(3.7239e-06 -3.17736e-05 0)
(1.22713e-05 -1.8467e-05 0)
(1.40508e-05 -5.42474e-06 0)
(1.02809e-05 4.72653e-06 0)
(2.65876e-06 1.0357e-05 0)
(-5.74584e-06 1.07065e-05 0)
(-1.18395e-05 6.65947e-06 0)
(-1.4271e-05 -1.91981e-08 0)
(-1.27083e-05 -7.35155e-06 0)
(-7.30412e-06 -1.33303e-05 0)
(1.39089e-06 -1.63178e-05 0)
(1.07087e-05 -1.50027e-05 0)
(1.78663e-05 -9.87859e-06 0)
(2.13769e-05 -2.11488e-06 0)
(2.02287e-05 6.51802e-06 0)
(1.44837e-05 1.39183e-05 0)
(5.2695e-06 1.82158e-05 0)
(-4.92124e-05 -6.40233e-05 0)
(-0.000145935 -0.000101886 0)
(-0.000240207 -0.000141958 0)
(-0.0003294 -0.000201596 0)
(-0.000411859 -0.000279326 0)
(-0.000484067 -0.000375162 0)
(-0.000546046 -0.000483733 0)
(-0.00059318 -0.000606097 0)
(-0.000623631 -0.000732566 0)
(-0.000638516 -0.000864454 0)
(-0.000635207 -0.000995237 0)
(-0.000613028 -0.001125 0)
(-0.000570017 -0.0012494 0)
(-0.000505963 -0.00136726 0)
(-0.000421295 -0.00147477 0)
(-0.000317157 -0.00157012 0)
(-0.000195319 -0.00165074 0)
(-5.97417e-05 -0.00171407 0)
(8.97187e-05 -0.0017587 0)
(0.000249069 -0.0017829 0)
(0.000413051 -0.00178469 0)
(0.000579957 -0.00176386 0)
(0.000746039 -0.0017188 0)
(0.000908995 -0.00165151 0)
(0.00106314 -0.00156038 0)
(0.00120655 -0.00145017 0)
(0.00133598 -0.00131816 0)
(0.00144905 -0.00117378 0)
(0.00154323 -0.00101232 0)
(0.00161759 -0.00084543 0)
(0.00167254 -0.000670979 0)
(0.00170607 -0.00049674 0)
(0.0017197 -0.000323332 0)
(0.00171448 -0.000154623 0)
(0.00169394 8.11792e-06 0)
(0.00166066 0.000162602 0)
(0.00161538 0.000307544 0)
(0.00155832 0.000442053 0)
(0.00149048 0.000565324 0)
(0.00141304 0.000676806 0)
(0.00132727 0.00077627 0)
(0.00123463 0.000863435 0)
(0.00113631 0.000938544 0)
(0.00103348 0.00100132 0)
(0.000927146 0.00105237 0)
(0.000818279 0.00109166 0)
(0.000707904 0.0011197 0)
(0.000596785 0.00113646 0)
(0.000485691 0.00114255 0)
(0.000375772 0.00113825 0)
(0.00026788 0.00112383 0)
(0.00016236 0.0010998 0)
(6.06258e-05 0.00106645 0)
(-3.68324e-05 0.00102435 0)
(-0.000129377 0.000973861 0)
(-0.000216351 0.000915471 0)
(-0.000297163 0.000849753 0)
(-0.000370585 0.000777367 0)
(-0.000436141 0.000699029 0)
(-0.000493417 0.0006154 0)
(-0.000541837 0.000527296 0)
(-0.000580517 0.000435682 0)
(-0.000609219 0.000341293 0)
(-0.000627681 0.000245356 0)
(-0.000635565 0.000148722 0)
(-0.000632629 5.25734e-05 0)
(-0.000618802 -4.19181e-05 0)
(-0.000594447 -0.000133737 0)
(-0.000559582 -0.000221724 0)
(-0.000514477 -0.000304568 0)
(-0.000459953 -0.000381256 0)
(-0.000396405 -0.000450538 0)
(-0.000324659 -0.000511413 0)
(-0.000245781 -0.0005629 0)
(-0.000160798 -0.000604048 0)
(-7.10266e-05 -0.000634083 0)
(2.21848e-05 -0.000652413 0)
(0.000117213 -0.000658459 0)
(0.000212627 -0.000651996 0)
(0.000306314 -0.000632868 0)
(0.00039659 -0.000601229 0)
(0.000482158 -0.00055729 0)
(0.000560963 -0.000501816 0)
(0.000631488 -0.000435521 0)
(0.000691832 -0.000359522 0)
(0.000740856 -0.000275096 0)
(0.000776732 -0.000183811 0)
(0.000798801 -8.74485e-05 0)
(0.000806269 1.22356e-05 0)
(0.000798238 0.000113053 0)
(0.000774536 0.00021291 0)
(0.000735379 0.000309583 0)
(0.00068124 0.000400709 0)
(0.000612481 0.000484074 0)
(0.00053082 0.000557513 0)
(0.000437605 0.000618929 0)
(0.0003348 0.000666594 0)
(0.000224499 0.000698912 0)
(0.000109313 0.000714777 0)
(-7.79846e-06 0.00071349 0)
(-0.000123771 0.000694515 0)
(-0.000235667 0.000657974 0)
(-0.000340532 0.000604541 0)
(-0.000435299 0.000535472 0)
(-0.000516991 0.00045229 0)
(-0.000583072 0.000357066 0)
(-0.000631776 0.000252479 0)
(-0.000661025 0.000141673 0)
(-0.000669333 2.78812e-05 0)
(-0.000656656 -8.46523e-05 0)
(-0.000623023 -0.000193634 0)
(-0.000569506 -0.000294455 0)
(-0.000497293 -0.000384093 0)
(-0.000408949 -0.000459068 0)
(-0.000307683 -0.000516519 0)
(-0.000196477 -0.000554208 0)
(-7.97339e-05 -0.000570542 0)
(3.81638e-05 -0.000564585 0)
(0.000152265 -0.00053657 0)
(0.000258175 -0.000487344 0)
(0.000351452 -0.000418809 0)
(0.000428014 -0.000333823 0)
(0.000484409 -0.000235797 0)
(0.000518132 -0.000129457 0)
(0.000527497 -1.8557e-05 0)
(0.000512243 9.02714e-05 0)
(0.000472832 0.000192938 0)
(0.000410662 0.000284267 0)
(0.000329103 0.00035956 0)
(0.000232662 0.000414743 0)
(0.000125756 0.000447373 0)
(1.36051e-05 0.000454905 0)
(-9.70527e-05 0.000437198 0)
(-0.000199154 0.0003954 0)
(-0.000287594 0.000331564 0)
(-0.000357549 0.000249745 0)
(-0.000403968 0.000154694 0)
(-0.000424912 5.23615e-05 0)
(-0.000418376 -5.10156e-05 0)
(-0.000385331 -0.000148994 0)
(-0.000328122 -0.000234599 0)
(-0.00024992 -0.000302828 0)
(-0.000156867 -0.000348671 0)
(-5.44571e-05 -0.000369316 0)
(4.95384e-05 -0.000362574 0)
(0.00014642 -0.000330161 0)
(0.000229906 -0.000274456 0)
(0.000293716 -0.000199824 0)
(0.000333028 -0.000112705 0)
(0.000345249 -1.98211e-05 0)
(0.000329922 7.10295e-05 0)
(0.000288687 0.000152349 0)
(0.000225213 0.000217354 0)
(0.000145908 0.000260445 0)
(5.79204e-05 0.000278634 0)
(-3.10565e-05 0.000269896 0)
(-0.000111658 0.000236288 0)
(-0.000175988 0.000181796 0)
(-0.000218935 0.00011209 0)
(-0.000236667 3.47279e-05 0)
(-0.000228196 -4.19593e-05 0)
(-0.000195187 -0.000110208 0)
(-0.000142083 -0.000162763 0)
(-7.53839e-05 -0.000194523 0)
(-1.92756e-06 -0.000202549 0)
(6.83713e-05 -0.000186246 0)
(0.000126571 -0.00014905 0)
(0.000167232 -9.62876e-05 0)
(0.000186005 -3.50973e-05 0)
(0.000181613 2.64248e-05 0)
(0.000155873 8.07467e-05 0)
(0.000113205 0.000121189 0)
(6.0252e-05 0.000143521 0)
(4.07935e-06 0.000146098 0)
(-4.73025e-05 0.000129885 0)
(-8.69299e-05 9.91575e-05 0)
(-0.000111107 5.96656e-05 0)
(-0.00011824 1.801e-05 0)
(-0.000109529 -1.94022e-05 0)
(-8.84264e-05 -4.76336e-05 0)
(-6.00863e-05 -6.35835e-05 0)
(-3.01949e-05 -6.65827e-05 0)
(-3.89374e-06 -5.83402e-05 0)
(1.495e-05 -4.21474e-05 0)
(2.4403e-05 -2.24922e-05 0)
(2.45038e-05 -3.76613e-06 0)
(1.72012e-05 1.0352e-05 0)
(5.1102e-06 1.76504e-05 0)
(-7.53519e-06 1.73448e-05 0)
(-1.6625e-05 1.0827e-05 0)
(-2.03846e-05 6.67793e-07 0)
(-1.84108e-05 -1.02648e-05 0)
(-1.1074e-05 -1.90019e-05 0)
(6.77006e-07 -2.33107e-05 0)
(1.32976e-05 -2.14703e-05 0)
(2.30186e-05 -1.42256e-05 0)
(2.78617e-05 -3.21119e-06 0)
(2.65103e-05 8.95847e-06 0)
(1.90034e-05 1.94179e-05 0)
(6.90603e-06 2.54849e-05 0)
(-0.000130176 0.00116718 0)
(-0.000386298 0.00112327 0)
(-0.00063639 0.00104765 0)
(-0.000868727 0.000934174 0)
(-0.00108165 0.00078813 0)
(-0.00125616 0.000608001 0)
(-0.00139996 0.000410091 0)
(-0.00148883 0.000181986 0)
(-0.00153148 -4.40711e-05 0)
(-0.0015383 -0.000299862 0)
(-0.0014941 -0.000568811 0)
(-0.00141399 -0.000849809 0)
(-0.00129395 -0.00112703 0)
(-0.00113896 -0.0013946 0)
(-0.00094873 -0.0016428 0)
(-0.000730462 -0.00186544 0)
(-0.000482762 -0.00205688 0)
(-0.000212383 -0.00221256 0)
(7.81692e-05 -0.00232866 0)
(0.0003847 -0.0024016 0)
(0.000695012 -0.00242897 0)
(0.00101054 -0.00241373 0)
(0.0013197 -0.00235154 0)
(0.00162036 -0.00224739 0)
(0.00189802 -0.00209833 0)