/*--------------------------------*- C++ -*----------------------------------*\
  =========                 |
  \\      /  F ield         | OpenFOAM: The Open Source CFD Toolbox
   \\    /   O peration     | Website:  https://openfoam.org
    \\  /    A nd           | Version:  12
     \\/     M anipulation  |
\*---------------------------------------------------------------------------*/
FoamFile
{
    format      ascii;
    class       volVectorField;
    location    "800";
    object      U;
}
// * * * * * * * * * * * * * * * * * * * * * * * * * * * * * * * * * * * * * //

dimensions      [0 1 -1 0 0 0 0];

internalField   nonuniform List<vector> 
80
(
(0.0015045 0 0)
(0.00448608 0 0)
(0.00743839 0 0)
(0.0103594 0 0)
(0.0132472 0 0)
(0.0161 0 0)
(0.0189161 0 0)
(0.021694 0 0)
(0.0244323 0 0)
(0.02713 0 0)
(0.029786 0 0)
(0.0323996 0 0)
(0.0349701 0 0)
(0.0374972 0 0)
(0.0399805 0 0)
(0.0424199 0 0)
(0.0448154 0 0)
(0.047167 0 0)
(0.0494748 0 0)
(0.0517391 0 0)
(0.05396 0 0)
(0.0561376 0 0)
(0.0582722 0 0)
(0.0603638 0 0)
(0.0624124 0 0)
(0.0644178 0 0)
(0.0663796 0 0)
(0.0682974 0 0)
(0.0701702 0 0)
(0.0719969 0 0)
(0.0737757 0 0)
(0.0755045 0 0)
(0.0771803 0 0)
(0.0787992 0 0)
(0.0803556 0 0)
(0.0818435 0 0)
(0.0832482 0 0)
(0.0845687 0 0)
(0.0857307 0 0)
(0.0868493 0 0)
(0.0870977 0 0)
(0.0859518 0 0)
(0.084822 0 0)
(0.0835085 0 0)
(0.082114 0 0)
(0.0806324 0 0)
(0.0790812 0 0)
(0.0774659 0 0)
(0.0757926 0 0)
(0.0740653 0 0)
(0.072287 0 0)
(0.0704599 0 0)
(0.0685859 0 0)
(0.0666661 0 0)
(0.0647015 0 0)
(0.0626926 0 0)
(0.0606398 0 0)
(0.0585433 0 0)
(0.0564031 0 0)
(0.0542192 0 0)
(0.0519913 0 0)
(0.0497194 0 0)
(0.0474033 0 0)
(0.0450427 0 0)
(0.0426376 0 0)
(0.040188 0 0)
(0.0376937 0 0)
(0.0351551 0 0)
(0.0325724 0 0)
(0.029946 0 0)
(0.0272766 0 0)
(0.0245651 0 0)
(0.0218123 0 0)
(0.0190195 0 0)
(0.0161882 0 0)
(0.0133198 0 0)
(0.0104161 0 0)
(0.00747898 0 0)
(0.00451044 0 0)
(0.00151261 0 0)
)
;

boundaryField
{
    lowerWall
    {
        type            noSlip;
    }
    upperWall
    {
        type            noSlip;
    }
    front
    {
        type            cyclic;
    }
    back
    {
        type            cyclic;
    }
    defaultFaces
    {
        type            empty;
    }
}


// ************************************************************************* //
