/*--------------------------------*- C++ -*----------------------------------*\
  =========                 |
  \\      /  F ield         | OpenFOAM: The Open Source CFD Toolbox
   \\    /   O peration     | Website:  https://openfoam.org
    \\  /    A nd           | Version:  12
     \\/     M anipulation  |
\*---------------------------------------------------------------------------*/
FoamFile
{
    format      ascii;
    class       surfaceScalarField;
    location    "8.76";
    object      phi;
}
// * * * * * * * * * * * * * * * * * * * * * * * * * * * * * * * * * * * * * //

dimensions      [1 0 -1 0 0 0 0];

internalField   nonuniform List<scalar> 
7429
(
0.000188348
-0.000188348
0.000379666
-0.000191318
0.000574682
-0.000195017
0.000774178
-0.000199496
0.000978929
-0.000204751
0.00118968
-0.000210755
0.00140715
-0.000217461
0.00163192
-0.000224769
0.00186452
-0.000232602
0.00210533
-0.000240816
0.00235454
-0.000249206
0.00261219
-0.000257655
0.00287812
-0.000265923
0.00315195
-0.000273836
0.00343309
-0.000281138
0.00372064
-0.000287545
0.00401346
-0.000292825
0.00431048
-0.00029702
0.00461019
-0.00029971
0.00491092
-0.000300723
0.00521077
-0.000299858
0.00550766
-0.000296882
0.00579955
-0.000291893
0.00608403
-0.000284482
0.00635862
-0.000274585
0.00662076
-0.000262146
0.00686802
-0.000247257
0.0070979
-0.00022988
0.00730806
-0.000210158
0.00749592
-0.000187859
0.00765914
-0.000163223
0.00779562
-0.000136476
0.00790341
-0.000107793
0.00798081
-7.73985e-05
0.00802642
-4.56141e-05
0.00803896
-1.25327e-05
0.0080201
1.88547e-05
0.00796886
5.1241e-05
0.00788487
8.39937e-05
0.00776833
0.000116532
0.00761993
0.000148406
0.00744061
0.000179312
0.00723172
0.000208891
0.00699484
0.000236888
0.00673184
0.000262994
0.0064449
0.000286939
0.0061364
0.000308505
0.00580895
0.000327452
0.00546534
0.000343603
0.00510857
0.000356771
0.00474177
0.0003668
0.00436822
0.000373554
0.0039913
0.000376919
0.0036144
0.000376899
0.00324108
0.000373319
0.00287462
0.00036646
0.00251871
0.000355915
0.00217645
0.000342258
0.00185126
0.00032519
0.00154604
0.000305221
0.00126399
0.000282051
0.00100775
0.000256235
0.000779647
0.000228103
0.000582027
0.00019762
0.000416424
0.000165602
0.000284416
0.000132009
0.00018718
9.72358e-05
0.00012475
6.24296e-05
9.73131e-05
2.7437e-05
0.00010717
-9.85749e-06
0.000151471
-4.43003e-05
0.000228408
-7.69371e-05
0.00033634
-0.000107932
0.000473207
-0.000136868
0.000635714
-0.000162507
0.000820334
-0.00018462
0.00102321
-0.000202879
0.00124013
-0.000216921
0.00146627
-0.000226137
0.00169664
-0.000230368
0.00192607
-0.000229428
0.00214915
-0.000223084
0.0023605
-0.000211344
0.00255473
-0.000194238
0.00272676
-0.000172025
0.00287168
-0.000144918
0.00298497
-0.00011329
0.00306284
-7.78768e-05
0.0031021
-3.92605e-05
0.0030979
4.20467e-06
0.00304611
5.17905e-05
0.00294832
9.77874e-05
0.002806
0.000142324
0.00262111
0.000184882
0.00239636
0.000224751
0.00213506
0.000261299
0.00184153
0.000293533
0.00152138
0.000320148
0.00118087
0.000340517
0.000827457
0.000353409
0.000469171
0.000358286
0.000114362
0.000354809
-0.000228156
0.000342518
-0.00054977
0.000321614
-0.000842126
0.000292356
-0.00109737
0.000255247
-0.00130855
0.000211177
-0.00147
0.000161452
-0.00157731
0.000107308
-0.00162786
5.05513e-05
-0.00161681
-1.10564e-05
-0.00154581
-7.09928e-05
-0.00141997
-0.000125839
-0.00124445
-0.00017552
-0.0010253
-0.00021915
-0.000770854
-0.00025445
-0.000490763
-0.000280091
-0.000196127
-0.000294635
0.000101301
-0.000297429
0.000389528
-0.000288226
0.00065665
-0.000267122
0.000891489
-0.000234839
0.00108418
-0.000192689
0.00122659
-0.000142414
0.00131313
-8.65355e-05
0.00134043
-2.73056e-05
0.00130305
3.73874e-05
0.00120726
9.579e-05
0.00105907
0.000148188
0.000866389
0.000192678
0.000639325
0.000227064
0.000390043
0.000249282
0.000132139
0.000257904
-0.000120391
0.00025253
-0.00035382
0.000233429
-0.00055542
0.0002016
-0.000714645
0.000159225
-0.00082355
0.000108905
-0.000877741
5.41915e-05
-0.000874256
-3.48549e-06
-0.000815529
-5.87267e-05
-0.000709795
-0.000105734
-0.000566092
-0.000143704
-0.0003963
-0.000169791
-0.000213815
-0.000182485
-3.28992e-05
-0.000180916
0.000132442
-0.000165341
0.000270381
-0.000137939
0.00037158
-0.000101199
0.000430273
-5.86929e-05
0.000444788
-1.45153e-05
0.000414658
3.01301e-05
0.000348646
6.6012e-05
0.000255786
9.28602e-05
0.000147844
0.000107942
3.77564e-05
0.000110088
-6.18714e-05
9.96278e-05
-0.000139541
7.767e-05
-0.000186557
4.70161e-05
-0.000198064
1.15069e-05
-0.00016999
-2.80741e-05
-0.000107686
-6.23039e-05
-1.78972e-05
-8.9789e-05
9.0058e-05
-0.000107955
0.00020454
-0.000114482
0.000313045
-0.000108506
0.00040385
-9.08046e-05
0.00046683
-6.298e-05
0.000494801
-2.79707e-05
0.000482372
1.24292e-05
0.000430143
5.22288e-05
0.00034228
8.78629e-05
0.000225449
0.000116831
8.88357e-05
0.000136614
-5.66701e-05
0.000145506
-0.000199416
0.000142746
-0.000328554
0.000129138
-0.000434588
0.000106033
-0.000510409
7.58216e-05
-0.00055153
4.11209e-05
-0.000556646
5.11593e-06
-0.000526609
-3.00372e-05
-0.000466028
-6.05812e-05
-0.000380796
-8.52313e-05
-0.000278483
-0.000102313
-0.000167195
-0.000111288
-5.50379e-05
-0.000112157
5.0568e-05
-0.000105606
0.000143447
-9.28788e-05
0.000218896
-7.54494e-05
0.000273995
-5.50983e-05
0.000307445
-3.34509e-05
0.000319538
-1.20923e-05
0.000311731
7.80692e-06
0.000286583
2.5148e-05
0.000246666
3.99172e-05
0.000195191
5.1475e-05
0.000135142
6.00491e-05
6.92173e-05
6.59242e-05
6.92173e-05
0.00014562
-0.000333967
0.000295629
-0.000341327
0.00045058
-0.000349967
0.000611875
-0.000360791
0.000781281
-0.000374156
0.000960249
-0.000389724
0.00115043
-0.00040764
0.00135336
-0.000427703
0.00157031
-0.000449546
0.00180237
-0.000472883
0.00205022
-0.000497049
0.00231426
-0.000521702
0.00259463
-0.000546287
0.0028909
-0.000570109
0.00320246
-0.0005927
0.00352827
-0.000613358
0.00386679
-0.000631337
0.00421583
-0.000646061
0.00457297
-0.000656851
0.00493533
-0.000663086
0.00529973
-0.000664259
0.00566273
-0.000659884
0.00602046
-0.000649615
0.00636903
-0.000633052
0.00670462
-0.000610174
0.00702323
-0.000580757
0.00732095
-0.000544978
0.00759416
-0.000503092
0.0078394
-0.000455397
0.00805386
-0.000402321
0.00823497
-0.000344334
0.00838072
-0.00028222
0.00848947
-0.000216544
0.00856023
-0.000148163
0.00859279
-7.81742e-05
0.0085891
-8.8421e-06
0.00853499
7.29666e-05
0.00843733
0.000148897
0.00829954
0.000221789
0.00812511
0.000290963
0.00791655
0.000356961
0.00767549
0.000420373
0.00740343
0.000480956
0.00710235
0.00053796
0.00677476
0.000590589
0.0064235
0.000638192
0.00605145
0.000680563
0.00566185
0.000717045
0.00525811
0.000747346
0.00484383
0.000771055
0.00442242
0.000788202
0.00399765
0.000798329
0.00357305
0.000801516
0.00315237
0.000797576
0.00273931
0.000786387
0.00233785
0.000767918
0.00195147
0.000742291
0.00158332
0.000710411
0.0012375
0.000671005
0.000916404
0.00062632
0.000622923
0.000575532
0.000360327
0.000518831
0.000130733
0.000457697
-6.39221e-05
0.000392275
-0.000221865
0.000323545
-0.00034203
0.000252174
-0.000422845
0.000178051
-0.000463582
0.000103166
-0.00046444
2.82953e-05
-0.000426777
-4.75204e-05
-0.00035208
-0.000118998
-0.00024166
-0.000187357
-9.82223e-05
-0.00025137
7.52923e-05
-0.000310382
0.000276296
-0.000363511
0.000500761
-0.000409085
0.000744186
-0.000446305
0.00100158
-0.000474318
0.00126773
-0.000492284
0.00153711
-0.000499749
0.00180409
-0.000496403
0.00206261
-0.00048161
0.00230684
-0.00045557
0.00253081
-0.000418207
0.00272905
-0.00037027
0.00289631
-0.000312174
0.00302759
-0.000244574
0.00311883
-0.000169113
0.00316672
-8.7154e-05
0.00316661
4.32032e-06
0.0031154
0.000102996
0.00301463
0.000198561
0.00286547
0.000291486
0.00266962
0.000380724
0.00242987
0.000464507
0.00215003
0.000541138
0.00183524
0.000608323
0.00149191
0.000663476
0.0011271
0.000705327
0.000749176
0.000731333
0.000366957
0.000740504
-1.04458e-05
0.000732212
-0.000373456
0.000705529
-0.000712903
0.000661061
-0.00101955
0.000598998
-0.00128476
0.000520467
-0.00150154
0.000427953
-0.00166354
0.00032345
-0.00176624
0.000210013
-0.00180698
9.12891e-05
-0.00178057
-3.74677e-05
-0.0016919
-0.000159668
-0.00154451
-0.000273224
-0.0013436
-0.000376425
-0.00109668
-0.000466071
-0.0008129
-0.000538235
-0.000503214
-0.000589776
-0.000179837
-0.000618013
0.000144632
-0.000621898
0.000456885
-0.00060048
0.000743918
-0.000554155
0.000993741
-0.000484661
0.00119609
-0.000395034
0.00134241
-0.000288743
0.00142621
-0.000170329
0.00144555
-4.66474e-05
0.00139547
8.74634e-05
0.00128311
0.000208155
0.00111463
0.000316664
0.0008988
0.000408512
0.000647306
0.000478558
0.000374046
0.000522542
9.37554e-05
0.000538195
-0.000178271
0.000524557
-0.000426814
0.000481971
-0.000638636
0.000413421
-0.000802264
0.000322854
-0.000909735
0.000216375
-0.000956695
0.000101151
-0.000940078
-2.01027e-05
-0.000865903
-0.000132901
-0.000741267
-0.00023037
-0.000576929
-0.000308041
-0.000386443
-0.000360277
-0.000184911
-0.000384018
1.19851e-05
-0.000377812
0.000189264
-0.00034262
0.00033399
-0.000282665
0.000436319
-0.000203529
0.000490506
-0.00011288
0.000495378
-1.93871e-05
0.000452463
7.30447e-05
0.000370892
0.000147584
0.000261236
0.000202516
0.000136666
0.000232511
1.12386e-05
0.000235515
-9.97989e-05
0.000210665
-0.00018524
0.000163111
-0.000235899
9.7675e-05
-0.000246877
2.24852e-05
-0.000215291
-5.96606e-05
-0.000146754
-0.000130841
-4.87052e-05
-0.000187838
6.82829e-05
-0.000224943
0.000191516
-0.000237715
0.000307655
-0.000224644
0.000404164
-0.000187314
0.000470715
-0.000129531
0.000500187
-5.74428e-05
0.000487867
2.47491e-05
0.000434999
0.000105097
0.000345851
0.000177011
0.000227627
0.000235054
9.03506e-05
0.00027389
-5.48307e-05
0.000290687
-0.000196078
0.000283994
-0.000322576
0.000255636
-0.000425115
0.000208572
-0.000496891
0.000147598
-0.000533954
7.81839e-05
-0.000535416
6.57815e-06
-0.000502964
-6.24898e-05
-0.000441262
-0.000122283
-0.000356486
-0.000170007
-0.000256207
-0.000202592
-0.000148489
-0.000219006
-4.12105e-05
-0.000219436
5.8685e-05
-0.000205501
0.000145437
-0.000179631
0.000214786
-0.000144799
0.00026424
-0.000104552
0.000293136
-6.23468e-05
0.000301905
-2.08615e-05
0.00029232
1.73923e-05
0.000266896
5.05714e-05
0.00022849
7.83238e-05
0.000180098
9.98664e-05
0.000124279
0.000115868
6.35115e-05
0.000126692
0.000132729
-1.09997e-05
-0.000322967
-1.79844e-05
-0.000334342
-1.66677e-05
-0.000351283
-2.07792e-06
-0.000375381
2.98649e-05
-0.000406098
8.3266e-05
-0.000443125
0.000161971
-0.000486345
0.000269331
-0.000535063
0.000408037
-0.000588252
0.000580434
-0.00064528
0.000787695
-0.00070431
0.00103005
-0.000764053
0.00130737
-0.000823607
0.00161976
-0.000882504
0.00196651
-0.000939449
0.00234491
-0.000991757
0.00275252
-0.00103894
0.0031855
-0.00107904
0.00363962
-0.00111097
0.00410961
-0.00113307
0.00458958
-0.00114423
0.0050732
-0.00114351
0.00555373
-0.00113014
0.00602476
-0.00110409
0.00647906
-0.00106447
0.00691108
-0.00101277
0.00731431
-0.000948212
0.0076824
-0.000871179
0.00801094
-0.000783941
0.00829571
-0.000687086
0.0085323
-0.000580926
0.00871686
-0.000466785
0.00884658
-0.000346262
0.0089198
-0.000221383
0.00893533
-9.37059e-05
0.00889638
3.01115e-05
0.00881662
0.000152727
0.00869045
0.000275064
0.0085173
0.00039494
0.00829737
0.000510897
0.00803259
0.00062174
0.0077264
0.000726567
0.00738292
0.000824435
0.00700622
0.000914654
0.0066003
0.000996507
0.00616918
0.00106932
0.00571713
0.00113261
0.00524839
0.00118579
0.00476702
0.00122871
0.00427728
0.0012608
0.00378362
0.00128187
0.00329041
0.00129154
0.00280222
0.0012897
0.00232332
0.00127648
0.00185725
0.00125246
0.00140806
0.00121711
0.00098037
0.00116998
0.000577472
0.00111331
0.000202726
0.00104575
-0.000139509
0.000968555
-0.000446141
0.000882164
-0.000714955
0.000787645
-0.000942935
0.000685677
-0.00112815
0.000577493
-0.00126934
0.000464728
-0.00136364
0.000346478
-0.00141163
0.000226042
-0.00141324
0.000104773
-0.00136608
-1.8867e-05
-0.00127567
-0.000137929
-0.00114172
-0.00025294
-0.000966515
-0.000362567
-0.000752857
-0.000465028
-0.000504282
-0.000558957
-0.000225787
-0.000642005
7.8009e-05
-0.000712881
0.00040235
-0.000770646
0.000741087
-0.000813056
0.00108792
-0.000839113
0.00143591
-0.00084774
0.00177855
-0.000839045
0.00210841
-0.000811473
0.00241851
-0.000765668
0.00270219
-0.000701891
0.00295264
-0.00062072
0.00316375
-0.000523275
0.00332978
-0.000410606
0.00344634
-0.000285679
0.00350951
-0.000150317
0.00351376
7.04196e-08
0.00345713
0.000159618
0.00334156
0.000314136
0.00316802
0.000465021
0.00293847
0.000610282
0.00265633
0.000746643
0.00232669
0.000870779
0.00195605
0.000978963
0.00155227
0.00106725
0.00112397
0.00113363
0.000681209
0.00117409
0.000234819
0.00118689
-0.000204176
0.00117121
-0.000624094
0.00112545
-0.00101375
0.00105072
-0.00136279
0.000948041
-0.00166098
0.000818653
-0.00190015
0.000667128
-0.00207309
0.000496387
-0.00217465
0.000311572
-0.00220181
0.000118452
-0.00215046
-8.88214e-05
-0.00202683
-0.000283293
-0.00183423
-0.000465826
-0.00157941
-0.000631249
-0.00127179
-0.000773694
-0.000922896
-0.000887124
-0.000545947
-0.000966725
-0.000155844
-0.00100812
0.000231505
-0.00100925
0.000601009
-0.000969983
0.000937375
-0.000890522
0.00122639
-0.000773672
0.00145607
-0.000624722
0.00161682
-0.000449493
0.00170123
-0.000254739
0.0017075
-5.29123e-05
0.00163333
0.000161629
0.00148584
0.000355644
0.00127248
0.000530024
0.00100491
0.000676085
0.000697894
0.000785574
0.000368083
0.000852353
3.37319e-05
0.000872546
-0.0002859
0.000844188
-0.000574025
0.000770097
-0.000814743
0.000654138
-0.000995291
0.000503402
-0.00110689
0.000327979
-0.00114392
0.000138178
-0.00110607
-5.79519e-05
-0.0010009
-0.000238076
-0.00083705
-0.000394217
-0.000628599
-0.000516492
-0.00039239
-0.000596486
-0.00014764
-0.000628768
8.738e-05
-0.000612831
0.00029439
-0.00054963
0.000458289
-0.000446564
0.000568351
-0.00031359
0.000618474
-0.000163003
0.000606495
-7.40745e-06
0.000539971
0.000139569
0.000427798
0.000259757
0.000284027
0.000346287
0.000125508
0.00039103
-3.01139e-05
0.000391137
-0.000166649
0.0003472
-0.000269165
0.000265627
-0.000327987
0.000156497
-0.000337479
3.19776e-05
-0.000297258
-9.98812e-05
-0.00021334
-0.000214759
-9.54027e-05
-0.000305775
4.3454e-05
-0.0003638
0.000188361
-0.000382623
0.000323386
-0.000359668
0.000434473
-0.000298402
0.000510279
-0.000205336
0.000543214
-9.03781e-05
0.000529467
3.84967e-05
0.000471044
0.00016352
0.000373153
0.000274902
0.000244573
0.000363634
9.69008e-05
0.000421563
-5.75035e-05
0.000445091
-0.00020582
0.00043231
-0.000336621
0.000386438
-0.000440449
0.0003124
-0.000510735
0.000217884
-0.000544044
0.000111494
-0.000539952
2.4859e-06
-0.00050167
-0.000100772
-0.000434034
-0.000189919
-0.000344302
-0.00025974
-0.000240418
-0.000306476
-0.000130866
-0.000328558
-2.36318e-05
-0.00032667
7.43889e-05
-0.000303522
0.000157674
-0.000262916
0.000222618
-0.000209743
0.000267217
-0.00014915
0.000291239
-8.63686e-05
0.000295796
-2.54194e-05
0.000283137
3.00514e-05
0.000255812
7.78967e-05
0.000217208
0.000116928
0.000169899
0.000147175
0.000116575
0.000169193
5.94087e-05
0.000183858
0.000192137
-0.000243314
-7.96535e-05
-0.000478124
-9.95322e-05
-0.000695513
-0.000133894
-0.00088496
-0.000185934
-0.00103648
-0.000254576
-0.00113965
-0.000339959
-0.0011863
-0.000439695
-0.00116792
-0.000553439
-0.0010797
-0.000676473
-0.000917023
-0.000807958
-0.000678209
-0.000943124
-0.000362892
-0.00107937
2.5848e-05
-0.00121235
0.000484078
-0.00134073
0.00101022
-0.0014656
0.00160059
-0.00158212
0.00224867
-0.00168702
0.00294546
-0.00177583
0.00368174
-0.00184725
0.00444651
-0.00189785
0.00522725
-0.00192497
0.00601119
-0.00192745
0.00678495
-0.0019039
0.007535
-0.00185414
0.00824806
-0.00177753
0.00891122
-0.00167593
0.00951199
-0.00154898
0.0100427
-0.00140191
0.0104928
-0.00123399
0.0108578
-0.00105213
0.0111347
-0.000857778
0.0113237
-0.000655846
0.0114267
-0.000449258
0.0114471
-0.000241715
0.0113926
-3.92677e-05
0.0112435
0.000179276
0.0110183
0.000377895
0.010727
0.000566316
0.0103758
0.000746133
0.00997005
0.000916695
0.00951523
0.00107655
0.00901741
0.00122439
0.00848219
0.00135966
0.00791543
0.00148141
0.00732244
0.0015895
0.00670923
0.00168253
0.00608074
0.0017611
0.00544217
0.00182436
0.0047987
0.00187217
0.00415611
0.00190339
0.00351852
0.00191945
0.00289008
0.00191999
0.00227678
0.001903
0.00168183
0.00187142
0.00111181
0.00182249
0.000568801
0.00176011
5.90709e-05
0.00167971
-0.000415074
0.00158745
-0.000849182
0.00147986
-0.00124023
0.0013596
-0.00158426
0.00122619
-0.00187801
0.00108139
-0.00211858
0.000926247
-0.00230594
0.000764857
-0.00243512
0.000593905
-0.0025081
0.000419455
-0.00252388
0.000241822
-0.00248199
6.28828e-05
-0.00238482
-0.000116038
-0.00223321
-0.000289538
-0.00202901
-0.000457134
-0.0017754
-0.00061618
-0.00147646
-0.000763971
-0.00113698
-0.000898435
-0.000761901
-0.00101708
-0.000357867
-0.00111692
6.82192e-05
-0.00119673
0.000509453
-0.00125429
0.000957738
-0.0012874
0.00140494
-0.00129494
0.00184281
-0.00127691
0.00226264
-0.0012313
0.00265598
-0.00115901
0.00301408
-0.00105999
0.00332913
-0.000935767
0.00359387
-0.000788015
0.00380176
-0.000618504
0.00394747
-0.000431391
0.00402598
-0.000228821
0.00403218
-6.13275e-06
0.00396516
0.000226639
0.00382613
0.000453167
0.00361603
0.00067512
0.00333747
0.000888843
0.00299503
0.00108909
0.00259527
0.00127053
0.00214647
0.00142777
0.00165893
0.00155479
0.00114363
0.00164894
0.000612834
0.00170489
7.96285e-05
0.0017201
-0.000442527
0.00169336
-0.000939694
0.00162261
-0.00139805
0.00150907
-0.00180504
0.00135503
-0.00214831
0.00116192
-0.00241831
0.000937137
-0.00260656
0.00068463
-0.00270716
0.000412171
-0.00271689
0.000128191
-0.00263367
-0.000172043
-0.00246322
-0.000453746
-0.00221015
-0.000718897
-0.00188366
-0.000957741
-0.00149559
-0.00116176
-0.00106046
-0.00132225
-0.000594784
-0.00143241
-0.00011689
-0.00148601
0.000354318
-0.00148046
0.00079976
-0.00141543
0.00120132
-0.00129208
0.0015417
-0.00111405
0.00180673
-0.000889754
0.00198591
-0.000628666
0.00207056
-0.000339393
0.00205836
-4.07122e-05
0.00195091
0.000269084
0.00175543
0.000551117
0.00148177
0.000803687
0.00114504
0.00101281
0.00076446
0.00116616
0.000359864
0.00125695
-4.58104e-05
0.00127822
-0.000430008
0.00122839
-0.000770964
0.00111105
-0.00105022
0.000933394
-0.00125257
0.000705752
-0.00136775
0.000443164
-0.00139313
0.000163554
-0.00132725
-0.000123837
-0.00117988
-0.000385445
-0.000963675
-0.000610419
-0.000696397
-0.00078377
-0.000399642
-0.000893241
-9.71123e-05
-0.000931298
0.00018767
-0.000897614
0.000433336
-0.000795296
0.000622208
-0.000635437
0.000741687
-0.000433069
0.000785629
-0.000206945
0.000752901
2.53206e-05
0.000654586
0.000237883
0.000501785
0.000412558
0.000313447
0.000534624
0.000110098
0.000594379
-8.58199e-05
0.000587055
-0.000254096
0.000515477
-0.000378222
0.000389753
-0.000445935
0.00022421
-0.000452104
3.81463e-05
-0.000399035
-0.00015295
-0.000293502
-0.000320293
-0.000148295
-0.000450981
1.95679e-05
-0.000531663
0.000193113
-0.000556167
0.00035272
-0.000519276
0.000482413
-0.000428094
0.000569341
-0.000292264
0.000605704
-0.000126741
0.000589009
5.51911e-05
0.000521728
0.000230801
0.000410703
0.000385927
0.000267057
0.000507279
0.000103944
0.000584676
-6.41914e-05
0.000613227
-0.000223369
0.000591487
-0.000361222
0.000524291
-0.000468111
0.000419289
-0.000537546
0.000287319
-0.000566671
0.000140619
-0.000556105
-8.08063e-06
-0.000509902
-0.000146975
-0.000434067
-0.000265753
-0.000336761
-0.000357046
-0.000226851
-0.000416386
-0.000113272
-0.000442136
-4.11135e-06
-0.000435831
9.33815e-05
-0.000401015
0.000174406
-0.00034394
0.000235544
-0.000270882
0.000275504
-0.00018911
0.000294465
-0.00010533
0.000294355
-2.53101e-05
0.000277976
4.64303e-05
0.000248281
0.000107592
0.000208543
0.000156666
0.000161667
0.000194052
0.000110285
0.000220574
5.5916e-05
0.000238227
0.000248053
-0.000687766
0.000608112
-0.00136578
0.000578481
-0.00201705
0.000517382
-0.0026236
0.000420613
-0.00316791
0.000289729
-0.00363287
0.000125005
-0.00400892
-6.36399e-05
-0.0042598
-0.00030256
-0.00438164
-0.000554637
-0.00436665
-0.00082295
-0.00421272
-0.00109704
-0.00391058
-0.00138151
-0.00345732
-0.0016656
-0.00285593
-0.00194213
-0.00211771
-0.00220381
-0.00125607
-0.00244376
-0.000287149
-0.00265594
0.000771986
-0.00283497
0.00190061
-0.00297587
0.00307688
-0.00307411
0.00427779
-0.00312589
0.00547925
-0.00312891
0.00665633
-0.00308097
0.00778411
-0.00298192
0.00883829
-0.00283171
0.00979792
-0.00263556
0.0106427
-0.00239378
0.0113611
-0.00212031
0.0119422
-0.00181507
0.0123856
-0.00149557
0.0126929
-0.00116501
0.0128635
-0.000826507
0.0129033
-0.000489015
0.0128205
-0.000158874
0.0126338
0.000147355
0.0123693
0.000443829
0.0120212
0.000725971
0.011596
0.000991559
0.011103
0.0012391
0.0105516
0.00146812
0.00995031
0.0016778
0.00930689
0.00186781
0.00862894
0.00203761
0.00792293
0.00218743
0.00719622
0.00231621
0.006454
0.00242475
0.00570224
0.00251285
0.00494711
0.00257949
0.00419361
0.00262568
0.00344625
0.00265075
0.00271095
0.00265475
0.00199401
0.00263692
0.00129807
0.00259895
0.000629422
0.00254006
-9.73505e-06
0.00246164
-0.000612486
0.00236286
-0.00117442
0.00224164
-0.0016903
0.00210333
-0.00215651
0.00194607
-0.00256991
0.001773
-0.0029278
0.00158409
-0.00322563
0.00137922
-0.00346169
0.00116231
-0.00363124
0.000934412
-0.00373624
0.000698906
-0.00377405
0.000457261
-0.00374359
0.000211367
-0.0036446
-3.61141e-05
-0.00348121
-0.000279422
-0.0032539
-0.000516847
-0.00296544
-0.000745594
-0.00262003
-0.000961599
-0.00222269
-0.0011613
-0.00177868
-0.00134245
-0.00129496
-0.00150081
-0.000779002
-0.00163287
-0.000238751
-0.00173698
0.000316574
-0.00180961
0.000877721
-0.00184855
0.00143474
-0.00185196
0.00197747
-0.00181965
0.00249581
-0.00174964
0.00297951
-0.00164272
0.00341846
-0.00149893
0.00380304
-0.00132035
0.00412469
-0.00110966
0.0043754
-0.000869214
0.00454941
-0.000605403
0.00464171
-0.00032112
0.00464607
-1.04919e-05
0.00456368
0.000309029
0.00439419
0.000622655
0.00413872
0.000930593
0.003801
0.00122656
0.00338778
0.0015023
0.00290713
0.00175119
0.00236902
0.00196588
0.00178528
0.00213853
0.00116961
0.00226461
0.000537453
0.00233704
-9.50756e-05
0.00235263
-0.000711287
0.00230957
-0.00129509
0.00220641
-0.00183049
0.00204448
-0.00230124
0.00182579
-0.0026943
0.00155497
-0.00299775
0.00124059
-0.00320171
0.000888586
-0.00329952
0.000509984
-0.00328791
0.000116584
-0.00316734
-0.000292613
-0.00294248
-0.000678605
-0.00262002
-0.00104136
-0.00221156
-0.0013662
-0.00173219
-0.00164114
-0.00119933
-0.0018551
-0.000633789
-0.00199795
-5.74436e-05
-0.00206235
0.00050668
-0.00204458
0.00103613
-0.00194488
0.00150903
-0.00176498
0.00190526
-0.00151028
0.00220822
-0.00119271
0.00240602
-0.000826468
0.00248988
-0.000423257
0.00245149
-2.32259e-06
0.00230607
0.000414506
0.00205424
0.000802951
0.00171064
0.00114728
0.0012944
0.00142905
0.000828516
0.00163204
0.000339768
0.0017457
-0.000146
0.00176399
-0.000600951
0.00168334
-0.00100025
0.00151035
-0.001321
0.00125414
-0.00154666
0.000931413
-0.00166605
0.000562555
-0.00167275
0.000170251
-0.00157335
-0.000223233
-0.00137697
-0.000581823
-0.0010998
-0.000887593
-0.00076542
-0.00111815
-0.000400307
-0.00125835
-3.24799e-05
-0.00129913
0.000307132
-0.00123723
0.000595327
-0.00108349
0.000810785
-0.000850895
0.000939326
-0.000561609
0.000973737
-0.000241356
0.000916953
8.21041e-05
0.000780097
0.000374739
0.000580249
0.000612406
0.000340534
0.00077434
8.70741e-05
0.000847839
-0.000152811
0.00082694
-0.000355292
0.000717957
-0.000500826
0.000535287
-0.00057729
0.000300674
-0.000578707
3.95631e-05
-0.000508905
-0.000222752
-0.000377667
-0.00045153
-0.000201349
-0.000627299
-4.54665e-07
-0.000732558
0.000204436
-0.000761058
0.000390329
-0.000705168
0.000539164
-0.00057693
0.000637117
-0.000390217
0.000676332
-0.000165956
0.000654587
7.6936e-05
0.000576235
0.000309153
0.00044998
0.000512182
0.000289179
0.000668081
0.00010894
0.000764914
-7.42342e-05
0.000796401
-0.000245066
0.000762319
-0.000390388
0.000669612
-0.000500221
0.000529122
-0.000568419
0.000355517
-0.000592746
0.000164945
-0.000575027
-2.57991e-05
-0.000520063
-0.00020194
-0.000435348
-0.000350468
-0.000329853
-0.000462541
-0.000213468
-0.000532771
-9.53924e-05
-0.000560212
1.56745e-05
-0.000546898
0.00011314
-0.00049848
0.000191954
-0.000422754
0.000249334
-0.000328262
0.000284484
-0.000224259
0.000298543
-0.000119389
0.000293787
-2.05541e-05
0.000273408
6.6809e-05
0.00024115
0.00013985
0.000200059
0.000197757
0.000153808
0.000240303
0.000103992
0.00027039
5.25471e-05
0.000289672
0.000300601
-0.00153869
0.0021468
-0.00305731
0.0020971
-0.00451667
0.00197674
-0.00587387
0.00177781
-0.00708792
0.00150377
-0.0081066
0.00114369
-0.00890243
0.000732191
-0.00941438
0.000209386
-0.0096558
-0.000313212
-0.00960444
-0.000874313
-0.00927948
-0.00142201
-0.00868895
-0.00197204
-0.00785273
-0.00250182
-0.00678727
-0.0030076
-0.00551313
-0.00347795
-0.00405212
-0.00390477
-0.00243143
-0.00427664
-0.000680049
-0.00458635
0.00116932
-0.00482524
0.00308253
-0.00498732
0.00502136
-0.00506472
0.00694731
-0.00505486
0.00881654
-0.00495019
0.0105904
-0.0047558
0.0122178
-0.00445908
0.0136716
-0.00408936
0.0148856
-0.00360783
0.0158872
-0.00312193
0.0165954
-0.00252322
0.0170551
-0.00195529
0.0172546
-0.00136447
0.0172357
-0.000807601
0.0170247
-0.000278092
0.0166702
0.000195701
0.0161756
0.000641945
0.0155654
0.00105399
0.0148613
0.00143005
0.0140822
0.00177065
0.0132446
0.00207671
0.0123625
0.00235028
0.0114477
0.0025926
0.0105109
0.00280458
0.00955936
0.00298916
0.00860188
0.0031449
0.00764237
0.00327572
0.00668646
0.00338066
0.00573835
0.00346096
0.00480472
0.00351313
0.00388913
0.00354127
0.00299398
0.0035459
0.002126
0.00352273
0.00128565
0.00347728
0.000480424
0.00340417
-0.000286915
0.0033074
-0.00101147
0.0031862
-0.00168811
0.0030395
-0.00231331
0.00286684
-0.00288355
0.00267357
-0.00339344
0.00245596
-0.00383913
0.00221869
-0.0042161
0.00196106
-0.00452302
0.00168613
-0.00475723
0.00139652
-0.00491472
0.0010919
-0.0049943
0.000778488
-0.00499536
0.000458325
-0.00491797
0.000133973
-0.00476355
-0.000190531
-0.00453303
-0.000509945
-0.00422912
-0.000820758
-0.00385548
-0.00111924
-0.00341695
-0.00140012
-0.00291949
-0.00165877
-0.00236968
-0.00189226
-0.00177538
-0.0020951
-0.00114604
-0.00226222
-0.000491081
-0.00239194
0.000179096
-0.00247979
0.000853696
-0.00252315
0.00152068
-0.00251894
0.00216815
-0.00246711
0.00278344
-0.00236494
0.00335522
-0.0022145
0.0038735
-0.00201721
0.00432711
-0.00177397
0.00470497
-0.00148752
0.00499683
-0.00116107
0.0051951
-0.000803675
0.00529728
-0.0004233
0.00529631
-9.52489e-06
0.00519412
0.000411226
0.00498928
0.000827492
0.00468388
0.00123599
0.00428215
0.0016283
0.00379202
0.00199243
0.00322425
0.00231895
0.00259097
0.00259915
0.00190753
0.00282197
0.00118909
0.00298305
0.000453408
0.00307272
-0.000280986
0.00308702
-0.000994683
0.00302327
-0.00166652
0.00287825
-0.00228017
0.00265812
-0.00281545
0.00236107
-0.00325778
0.0019973
-0.003593
0.00157581
-0.0038105
0.00110608
-0.00390278
0.00060226
-0.00386655
8.03522e-05
-0.00370486
-0.000454297
-0.00342133
-0.000962138
-0.00302591
-0.00143678
-0.00253178
-0.00186032
-0.00195728
-0.00221564
-0.00132384
-0.00248855
-0.00065559
-0.0026662
2.13628e-05
-0.00273931
0.000680182
-0.0027034
0.00129392
-0.00255862
0.00183787
-0.00230893
0.00228902
-0.00196143
0.00262724
-0.00153093
0.00284003
-0.00103926
0.00291707
-0.000500299
0.00285594
5.88085e-05
0.00266478
0.000605669
0.00235161
0.00111612
0.00193405
0.00156484
0.00143504
0.00192807
0.000882231
0.00218484
0.00030407
0.00232386
-0.000263436
0.00233149
-0.000790029
0.00220993
-0.0012464
0.00196672
-0.00160716
0.00161491
-0.00185279
0.00117704
-0.00197038
0.000680152
-0.00195945
0.000159323
-0.00182207
-0.000360619
-0.00157212
-0.000831768
-0.00123103
-0.00122869
-0.000826437
-0.00152274
-0.00039039
-0.0016944
4.23697e-05
-0.00173188
0.000439907
-0.00163476
0.000770442
-0.00141403
0.00101065
-0.00109111
0.0011446
-0.00069556
0.00116769
-0.000264438
0.00108305
0.000166741
0.000904851
0.000552937
0.000654838
0.000862419
0.000361945
0.00106723
5.62667e-05
0.00115352
-0.000227614
0.00111082
-0.000463941
0.000954285
-0.000630727
0.000702073
-0.000712527
0.000382473
-0.000706543
3.35799e-05
-0.000617759
-0.000311536
-0.000458627
-0.000610663
-0.000249117
-0.00083681
-1.34633e-05
-0.000968211
0.000221106
-0.000995628
0.000432204
-0.000916266
0.000598888
-0.000743614
0.000706429
-0.000497758
0.000746119
-0.000205645
0.000718277
0.000104778
0.000627694
0.000399736
0.000485395
0.000654481
0.000307226
0.00084625
0.000110561
0.00096158
-8.68365e-05
0.000993798
-0.000268276
0.000943759
-0.000419863
0.000821199
-0.00053157
0.000640829
-0.000597563
0.000421511
-0.000616593
0.000183975
-0.000591318
-5.10737e-05
-0.000527716
-0.000265541
-0.000434434
-0.00044375
-0.000321426
-0.000575549
-0.00019909
-0.000655107
-7.73439e-05
-0.000681958
3.5197e-05
-0.000659439
0.000131848
-0.000595131
0.000207992
-0.000498898
0.000261327
-0.000381597
0.000291796
-0.000254728
0.000300731
-0.000128323
0.000291609
-1.14325e-05
0.000267663
9.07549e-05
0.000233043
0.00017447
0.000191291
0.000239509
0.000145435
0.000286159
9.77318e-05
0.000318093
4.90736e-05
0.00033833
0.000349674
-0.00274484
0.00489164
-0.0054535
0.00480577
-0.0080569
0.00458014
-0.0104795
0.00420037
-0.0126447
0.00366897
-0.0144616
0.00296068
-0.0159013
0.00217183
-0.0168653
0.0011734
-0.0176108
0.000432313
-0.0179364
-0.000548734
-0.0177345
-0.0016239
-0.0169999
-0.00270666
-0.0157679
-0.00373379
-0.0140825
-0.00469304
-0.01201
-0.00555047
-0.00962414
-0.00629059
-0.00699556
-0.00690522
-0.00418585
-0.00739605
-0.00125168
-0.00775942
0.00175118
-0.00799018
0.00476076
-0.0080743
0.00772053
-0.00801463
0.0105547
-0.00778438
0.0131956
-0.00739672
0.0155493
-0.00681273
0.0175516
-0.00609167
0.0190894
-0.0051456
0.020163
-0.00419554
0.0207057
-0.00306594
0.0208396
-0.00208919
0.0206227
-0.0011476
0.0201426
-0.00032748
0.0194851
0.000379439
0.0186762
0.00100452
0.0177645
0.00155366
0.0167831
0.00203538
0.0157546
0.00245859
0.0146955
0.00282972
0.0136171