/*--------------------------------*- C++ -*----------------------------------*\
  =========                 |
  \\      /  F ield         | OpenFOAM: The Open Source CFD Toolbox
   \\    /   O peration     | Website:  https://openfoam.org
    \\  /    A nd           | Version:  12
     \\/     M anipulation  |
\*---------------------------------------------------------------------------*/
FoamFile
{
    format      ascii;
    class       volScalarField;
    location    "0.13";
    object      epsilon;
}
// * * * * * * * * * * * * * * * * * * * * * * * * * * * * * * * * * * * * * //

dimensions      [0 2 -3 0 0 0 0];

internalField   nonuniform List<scalar> 
12225
(
278.515
263.66
249.434
236.839
226.739
219.485
215.072
213.267
213.713
216.001
219.728
224.525
230.072
236.105
242.425
248.864
255.465
265.036
61.1162
86.696
97.9928
107.21
118.47
132.566
149.426
168.635
189.613
211.734
234.409
257.128
279.488
301.196
322.169
342.252
363.054
381.804
25.2776
36.1832
43.3821
48.6222
53.388
58.3391
63.7753
69.8329
76.5373
83.8405
91.6528
99.8655
108.368
117.063
125.886
134.823
144.041
153.548
17.5217
21.2987
24.7147
27.6104
30.1627
32.5412
34.8685
37.2308
39.6813
42.2467
44.9347
47.7411
50.6553
53.6657
56.7649
59.9631
63.2831
66.7579
15.4878
16.7519
18.1859
19.5891
20.9098
22.1496
23.3272
24.4665
25.5883
26.7078
27.835
28.9756
30.1327
31.3081
32.5037
33.7255
34.9794
36.2636
14.9084
15.2396
15.7464
16.3341
16.9478
17.5592
18.1562
18.7362
19.301
19.8539
20.398
20.936
21.4702
22.0025
22.5347
23.0694
23.6088
24.1473
14.7451
14.7391
14.8342
15.0036
15.2216
15.468
15.7288
15.9951
16.2624
16.5281
16.7911
17.0511
17.3082
17.5628
17.8153
18.0667
18.3175
18.5635
14.7012
14.5825
14.5116
14.4858
14.4981
14.5403
14.6044
14.6838
14.7739
14.8711
14.9729
15.0778
15.1845
15.2925
15.4012
15.5106
15.6204
15.7279
14.6901
14.5373
14.407
14.3009
14.2182
14.1571
14.1146
14.0876
14.0733
14.0694
14.0737
14.0847
14.101
14.1217
14.146
14.1733
14.2031
14.2338
14.6874
14.5252
14.3761
14.2411
14.1204
14.0137
13.9203
13.8391
13.7688
13.7083
13.6564
13.612
13.5742
13.542
13.515
13.4924
13.4737
13.4581
14.6868
14.5221
14.3677
14.2236
14.0896
13.9655
13.8511
13.746
13.6494
13.561
13.4801
13.406
13.3383
13.2763
13.2197
13.1679
13.1205
13.0774
14.6866
14.5213
14.3656
14.219
14.0812
13.9518
13.8305
13.7168
13.6105
13.511
13.4181
13.3313
13.2503
13.1746
13.1039
13.038
12.9764
12.9194
14.6865
14.521
14.3648
14.2175
14.0785
13.9472
13.8234
13.7065
13.5962
13.4922
13.394
13.3015
13.2142
13.1318
13.0542
12.9809
12.9119
12.8475
14.6864
14.5208
14.3645
14.2169
14.0774
13.9456
13.8209
13.7029
13.5912
13.4855
13.3853
13.2904
13.2004
13.1152
13.0344
12.9578
12.8852
12.8171
14.6864
14.5207
14.3643
14.2165
14.0769
13.9449
13.8199
13.7016
13.5895
13.4832
13.3824
13.2867
13.196
13.1097
13.0279
12.9501
12.8762
12.8067
14.6863
14.5206
14.3641
14.2163
14.0766
13.9444
13.8193
13.7009
13.5886
13.4822
13.3812
13.2853
13.1943
13.1078
13.0256
12.9475
12.8732
12.8033
14.6863
14.5205
14.364
14.2161
14.0763
13.9441
13.8189
13.7004
13.5881
13.4815
13.3805
13.2845
13.1934
13.1068
13.0245
12.9462
12.8718
12.8018
14.6863
14.5204
14.3639
14.216
14.0761
13.9439
13.8187
13.7001
13.5877
13.4811
13.38
13.2839
13.1928
13.1061
13.0237
12.9454
12.8709
12.8008
14.6863
14.5204
14.3639
14.2159
14.0761
13.9438
13.8186
13.6999
13.5875
13.4809
13.3797
13.2837
13.1925
13.1058
13.0234
12.945
12.8705
12.8003
14.6863
14.5205
14.3639
14.216
14.0762
13.9439
13.8187
13.7001
13.5877
13.4812
13.38
13.284
13.1928
13.1062
13.0238
12.9454
12.871
12.8009
14.6863
14.5205
14.364
14.2162
14.0764
13.9443
13.8192
13.7007
13.5885
13.4821
13.3812
13.2855
13.1946
13.1083
13.0263
12.9483
12.8743
12.8047
14.6863
14.5206
14.3643
14.2167
14.0773
13.9457
13.8214
13.7039
13.5929
13.4879
13.3886
13.2948
13.206
13.1219
13.0424
12.967
12.8957
12.8289
14.6865
14.5212
14.3659
14.2202
14.0837
13.956
13.8368
13.7256
13.6218
13.525
13.4348
13.3506
13.272
13.1986
13.1301
13.066
13.006
12.9505
14.6876
14.5264
14.3793
14.2467
14.1282
14.0231
13.9302
13.8484
13.7762
13.7126
13.6564
13.6067
13.5627
13.5236
13.4889
13.458
13.4305
13.4064
14.6976
14.5664
14.4707
14.4075
14.3714
14.3568
14.3584
14.3719
14.394
14.4223
14.4549
14.4906
14.5284
14.5677
14.6081
14.6492
14.6907
14.7327
14.7737
14.8186
14.9602
15.1591
15.3862
15.6232
15.8596
16.0902
16.3132
16.528
16.7354
16.9359
17.1306
17.3202
17.5055
17.6871
17.8654
18.0401
15.2587
16.1151
17.0712
17.9726
18.7877
19.5236
20.1941
20.8144
21.3981
21.9564
22.4975
23.0276
23.551
24.0704
24.5877
25.1038
25.6188
26.1302
18.0414
22.0078
24.9884
27.153
28.888
30.4043
31.8116
33.1772
34.5421
35.9288
37.3483
38.8046
40.2966
41.8205
43.3705
44.9405
46.5238
48.1075
34.024
45.6876
51.3764
54.9417
58.0798
61.2962
64.7482
68.4794
72.4739
76.6888
81.0737
85.579
90.1581
94.7693
99.377
103.952
108.479
112.932
163.308
157.417
151.704
146.261
141.3
136.947
133.249
130.206
127.78
125.917
124.557
123.635
123.09
122.866
122.912
123.181
123.634
124.233
0.59536
0.590618
0.924122
1.21861
1.51401
1.84517
2.2167
2.63811
3.11738
3.62531
4.13998
4.65209
5.15287
5.63527
6.0941
6.52583
6.92811
7.29935
7.63834
7.94395
8.21518
8.45145
8.6533
8.82263
8.96048
9.05867
9.08154
8.93913
9.01911
9.20593
9.07955
9.12038
9.17317
9.2597
9.26139
9.27576
9.34815
39.939
40.0786
42.5735
45.3055
48.1943
51.2274
54.4034
57.7221
61.1849
64.7942
68.553
72.4644
76.5319
80.759
85.149
89.7052
94.4306
99.3281
104.401
109.65
115.079
120.689
126.481
132.458
138.618
144.963
151.492
158.205
165.101
172.179
179.436
186.87
194.479
202.259
210.206
218.317
226.586
235.009
243.579
252.292
261.14
270.117
279.216
288.429
297.748
307.165
316.67
326.255
335.911
345.626
355.392
365.196
375.028
384.876
394.729
404.573
414.398
424.193
433.954
443.679
453.384
463.108
472.766
482.292
491.683
500.93
510.017
518.931
527.655
536.174
544.471
552.531
560.338
567.878
575.135
582.095
588.746
595.072
601.063
606.706
611.99
616.904
621.439
625.587
629.338
632.687
635.627
638.152
640.259
641.945
643.206
644.042
644.453
644.44
644.005
643.15
641.88
640.2
638.115
635.633
632.761
629.509
625.886
621.902
617.569
612.899
607.904
602.599
596.996
591.11
584.957
578.551
571.908
565.044
557.975
550.718
543.287
535.702
527.977
520.126
512.173
504.119
496.007
487.828
479.612
471.453
463.716
459.439
456.4
453.402
450.386
447.348
444.294
441.224
438.138
435.026
431.867
428.615
425.166
421.29
416.382
408.895
393.056
1.7045
1.06706
1.08074
1.2154
1.41698
1.67388
1.97901
2.33125
2.72577
3.15173
3.59683
4.05062
4.50484
4.95356
5.39305
5.82154
6.23887
6.6463
7.04629
7.44249
7.83985
8.24506
8.66771
9.12288
9.63714
10.261
11.0763
12.0938
12.7817
13.4134
14.5593
15.5477
16.5524
17.6775
19.1522
20.495
21.9391
23.9798
25.6465
27.0989
28.5526
30.0436
31.5855
33.181
34.8319
36.5399
38.3065
40.1332
42.0213
43.9721
45.9864
48.0654
50.2099
52.4206
54.6982
57.0433
59.4563
61.9374
64.487
67.105
69.7915
72.5462
75.3689
78.2592
81.2165
84.24
87.329
90.4824
93.6992
96.978
100.318
103.716
107.172
110.684
114.249
117.866
121.533
125.246
129.004
132.803
136.641
140.516
144.423
148.361
152.324
156.311
160.316
164.337
168.369
172.409
176.452
180.493
184.531
188.56
192.579
196.589
200.592
204.599
208.64
212.685
216.688
220.641
224.538
228.375
232.144
235.84
239.457
242.988
246.428
249.77
253.01
256.14
259.156
262.052
264.823
267.464
269.97
272.336
274.559
276.635
278.559
280.329
281.94
283.392
284.68
285.804
286.761
287.549
288.169
288.62
288.901
289.013
288.955
288.73
288.339
287.783
287.064
286.185
285.15
283.96
282.619
281.133
279.503
277.736
275.836
273.807
271.655
269.385
267.004
264.516
261.927
259.244
256.473
253.619
250.691
247.692
244.628
241.511
238.335
235.125
231.866
228.577
225.337
222.244
219.797
217.644
215.546
213.457
211.37
209.286
207.206
205.13
203.061
200.998
198.937
196.872
194.783
192.668
190.416
189.343
3.15367
1.69717
1.55778
1.63679
1.79921
2.02194
2.29721
2.62022
2.98492
3.38299
3.80502
4.24206
4.6868
5.13404
5.58078
6.02601
6.47046
6.91628
7.36679
7.82634
8.30008
8.794
9.31489
9.8707
10.471
11.1277
11.851
12.6295
13.4056
14.2161
15.1137
16.0328
16.9891
17.9956
19.0688
20.1826
21.3369
22.5423
23.7578
24.9662
26.1977
27.4668
28.7794
30.1375
31.5419
32.9935
34.4929
36.0408
37.6378
39.2847
40.9819
42.73
44.5295
46.3808
48.2842
50.24
52.2485
54.3097
56.4238
58.5908
60.8105
63.0828
65.4075
67.7841
70.2122
72.6912
75.2207
77.7997
80.4275
83.1032
85.8257
88.5938
91.4064
94.262
97.1592
100.097
103.072
106.085
109.132
112.212
115.322
118.461
121.627
124.816
128.027
131.256
134.502
137.762
141.033
144.312
147.598
150.887
154.179
157.471
160.764
164.057
167.353
170.653
173.954
177.235
180.483
183.692
186.856
189.972
193.033
196.035
198.972
201.841
204.635
207.351
209.983
212.527
214.978
217.332
219.584
221.731
223.769
225.694
227.502
229.191
230.757
232.197
233.51
234.692
235.742
236.659
237.44
238.085
238.593
238.963
239.196
239.291
239.25
239.072
238.759
238.312
237.734
237.025
236.189
235.228
234.145
232.942
231.624
230.193
228.655
227.012
225.268
223.428
221.498
219.48
217.381
215.204
212.955
210.637
208.259
205.823
203.33
200.797
198.207
195.596
192.963
190.317
187.691
185.143
182.816
180.622
178.476
176.349
174.232
172.126
170.032
167.952
165.889
163.848
161.835
159.863
157.95
156.166
154.613
154.125
4.87928
2.43548
2.11912
2.12307
2.24731
2.44495
2.69985
3.00373
3.34972
3.73042
4.13796
4.56477
5.00443
5.45225
5.90543
6.36299
6.82551
7.29483
7.77379
8.26588
8.77505
9.30545
9.86127
10.4465
11.0648
11.7194
12.4124
13.1426
13.9048
14.7029
15.5416
16.4164
17.3289
18.2806
19.2729
20.3034
21.3693
22.4689
23.5981
24.7554
25.9453
27.1725
28.4402
29.7502
31.1035
32.5011
33.9438
35.4322
36.9669
38.5487
40.178
41.8555
43.5817
45.357
47.1819
49.0568
50.982
52.9579
54.9846
57.0623
59.1911
61.371
63.602
65.8839
68.2165
70.5994
73.0323
75.5146
78.0458
80.6251
83.2516
85.9245
88.6428
91.4052
94.2104
97.0572
99.9439
102.869
105.831
108.827
111.857
114.917
118.007
121.122
124.262
127.424
130.606
133.804
137.017
140.243
143.478
146.722
149.972
153.226
156.484
159.743
163.002
166.258
169.499
172.714
175.896
179.04
182.141
185.192
188.19
191.128
194.002
196.808
199.539
202.191
204.76
207.24
209.627
211.917
214.106
216.188
218.162
220.022
221.765
223.389
224.89
226.266
227.514
228.632
229.618
230.471
231.189
231.772
232.218
232.528
232.702
232.739
232.641
232.408
232.041
231.543
230.915
230.159
229.278
228.274
227.151
225.911
224.558
223.096
221.528
219.859
218.093
216.234
214.287
212.257
210.147
207.963
205.712
203.394
201.018
198.59
196.1
193.585
191.031
188.452
185.854
183.246
180.647
178.093
175.639
173.26
170.92
168.603
166.303
164.019
161.754
159.512
157.296
155.115
152.978
150.906
148.934
147.142
145.652
144.934
6.58988
3.20502
2.6812
2.60859
2.69435
2.86752
3.10312
3.38921
3.71774
4.08157
4.47376
4.8878
5.31809
5.76039
6.21202
6.67185
7.14012
7.61818
8.10821
8.61294
9.13543
9.67881
10.2462
10.8402
11.4634
12.1177
12.8046
13.525
14.2794
15.0685
15.8935
16.7545
17.6522
18.5866
19.5582
20.5664
21.6108
22.691
23.8069
24.9587
26.1478
27.3762
28.6457
29.9575
31.3129
32.7129
34.1584
35.6502
37.1893
38.7763
40.4121
42.0975
43.8332
45.6199
47.4583
49.349
51.2927
53.2898
55.3409
57.4464
59.6067
61.8221
64.0927
66.4186
68.8
71.2367
73.7285
76.2752
78.8762
81.5312
84.2393
86.9998
89.8117
92.674
95.5854
98.5447
101.55
104.6
107.693
110.827
114
117.21
120.455
123.731
127.038
130.372
133.73
137.111
140.51
143.927
147.358
150.8
154.252
157.71
161.171
164.634
168.094
171.541
174.966
178.362
181.723
185.042
188.314
191.534
194.695
197.792
200.82
203.773
206.646
209.433
212.13
214.73
217.23
219.624
221.907
224.076
226.126
228.054
229.855
231.527
233.066
234.469
235.734
236.86
237.843
238.683
239.378
239.928
240.331
240.589
240.7
240.666
240.488
240.166
239.703
239.1
238.359
237.483
236.475
235.338
234.075
232.691
231.188
229.57
227.844
226.012
224.08
222.051
219.932
217.729
215.443
213.081
210.654
208.154
205.6
203
200.351
197.667
194.951
192.209
189.448
186.678
183.912
181.173
178.487
175.848
173.243
170.663
168.106
165.571
163.062
160.583
158.141
155.745
153.408
151.155
149.025
147.096
145.466
144.394
8.17615
3.90386
3.19829
3.05674
3.10649
3.25572
3.47172
3.73929
4.04918
4.39427
4.76825
5.16546
5.58105
6.0113
6.45374
6.90721
7.37176
7.84837
8.3388
8.84529
9.37039
9.91672
10.4869
11.0832
11.7078
12.3624
13.0486
13.7675
14.5203
15.3077
16.1305
16.9894
17.8848
18.8172
19.7869
20.7943
21.8397
22.9235
24.0463
25.2088
26.4119
27.657
28.9452
30.2778
31.656
33.0809
34.5538
36.0756
37.6476
39.2708
40.9462
42.675
44.4582
46.2969
48.192
50.1445
52.1555
54.2257
56.356
58.5472
60.7999
63.1148
65.4925
67.9332
70.4374
73.0052
75.6366
78.3316
81.0899
83.9111
86.7947
89.74
92.7461
95.8119
98.9361
102.117
105.354
108.645
111.987
115.379
118.818
122.302
125.829
129.396
132.999
136.637
140.306
144.003
147.725
151.468
155.23
159.007
162.795
166.591
170.391
174.192
177.985
181.757
185.503
189.215
192.888
196.513
200.086
203.6
207.049
210.425
213.723
216.937
220.061
223.088
226.013
228.83
231.533
234.117
236.578
238.909
241.108
243.168
245.088
246.861
248.487
249.961
251.281
252.445
253.451
254.298
254.984
255.509
255.872
256.073
256.114
255.994
255.715
255.279
254.688
253.945
253.051
252.01
250.825
249.499
248.039
246.446
244.727
242.884
240.923
238.852
236.674
234.39
232.014
229.55
226.996
224.363
221.667
218.904
216.085
213.217
210.302
207.35
204.367
201.359
198.332
195.296
192.262
189.245
186.259
183.309
180.389
177.496
174.63
171.793
168.99
166.226
163.508
160.848
158.261
155.773
153.423
151.28
149.413
147.965
9.5005
4.50936
3.64954
3.44746
3.4642
3.59033
3.78657
4.0349
4.32505
4.64981
5.00339
5.38082
5.77799
6.19171
6.61988
7.06145
7.5164
7.98555
8.47038
8.9728
9.49503
10.0394
10.6081
11.2033
11.827
12.4809
13.1664
13.8848
14.6372
15.4247
16.2481
17.1081
18.0054
18.9408
19.9149
20.9283
21.9819
23.0765
24.2129
25.392
26.615
27.8829
29.1971
30.5588
31.9695
33.4304
34.943
36.5088
38.1291
39.8053
41.539
43.3316
45.1845
47.0992
49.0771
51.1196
53.228
55.4037
57.6479
59.9617
62.3463
64.8026
67.3315
69.9338
72.6101
75.3608
78.1862
81.0866
84.0618
87.1116
90.2355
93.433
96.703
100.045
103.456
106.937
110.484
114.096
117.771
121.506
125.299
129.147
133.046
136.995
140.988
145.024
149.099
153.208
157.348
161.515
165.704
169.912
174.134
178.366
182.602
186.838
191.056
195.249
199.41
203.531
207.607
211.629
215.59
219.483
223.3
227.035
230.68
234.229
237.673
241.007
244.223
247.316
250.279
253.106
255.792
258.331
260.718
262.948
265.017
266.922
268.658
270.223
271.613
272.828
273.864
274.721
275.397
275.892
276.206
276.34
276.293
276.068
275.666
275.09
274.341
273.424
272.341
271.095
269.691
268.133
266.427
264.578
262.59
260.467
258.218
255.85
253.366
250.766
248.07
245.283
242.408
239.451
236.423
233.329
230.176
226.971
223.721
220.433
217.114
213.77
210.409
207.039
203.669
200.311
196.977
193.671
190.395
187.149
183.936
180.759
177.622
174.534
171.502
168.539
165.662
162.898
160.281
157.871
155.711
153.883
10.5847
5.01656
4.02635
3.77109
3.75754
3.86152
4.0382
4.26716
4.53722
4.8411
5.17339
5.52975
5.90671
6.30166
6.71287
7.13952
7.58162
8.03989
8.51562
9.01051
9.52648
10.0656
10.6299
11.2213
11.8416
12.4925
13.1754
13.8918
14.6427
15.4293
16.2527
17.1136
18.0132
18.9523
19.9319
20.953
22.0166
23.1238
24.2757
25.4736
26.7188
28.0125
29.3563
30.7517
32.2003
33.7038
35.2639
36.8825
38.5614
40.3024
42.1075
43.9785
45.9173
47.9259
50.0061
52.1599
54.3891
56.6954
59.0806
61.5462
64.0939
66.725
69.4408
72.2425
75.131
78.107
81.1712
84.3239
87.5653
90.8952
94.3132
97.8188
101.411
105.089
108.85
112.694
116.618
120.62
124.697
128.846
133.065
137.35
141.697
146.104
150.565
155.076
159.635
164.235
168.872
173.542
178.239
182.957
187.693
192.439
197.19
201.934
206.652
211.339
215.988
220.59
225.137
229.622
234.035
238.369
242.614
246.764
250.809
254.741
258.553
262.237
265.786
269.192
272.449
275.55
278.488
281.258
283.855
286.272
288.505
290.55
292.403
294.062
295.524
296.786
297.846
298.704
299.359
299.81
300.057
300.102
299.946
299.59
299.037
298.288
297.35
296.224
294.915
293.427
291.764
289.931
287.937
285.787
283.486
281.034
278.446
275.733
272.898
269.944
266.885
263.727
260.477
257.142
253.732
250.253
246.713
243.119
239.48
235.803
232.095
228.364
224.616
220.861
217.106
213.362
209.639
205.942
202.276
198.644
195.051
191.5
187.999
184.555
181.178
177.881
174.682
171.606
168.686
165.969
163.479
161.268
11.4372
5.42441
4.32637
4.02477
3.98353
4.06645
4.22411
4.4341
4.68447
4.96783
5.27909
5.61441
5.9709
6.34644
6.73969
7.15004
7.57758
8.02299
8.48743
8.97239
9.47958
10.0109
10.5681
11.153
11.7674
12.4128
13.0909
13.8029
14.5503
15.3342
16.1559
17.0166
17.9173
18.8595
19.8442
20.8727
21.9464
23.0667
24.2349
25.4527
26.7216
28.0434
29.4197
30.8525
32.3437
33.8956
35.5101
37.1897
38.9365
40.7529
42.6414
44.6044
46.6442
48.7635
50.9646
53.25
55.622
58.083
60.6352
63.2807
66.0215
68.8596
71.7966
74.8341
77.9733
81.2155
84.5613
88.0114
91.5661
95.2254
98.9888
102.856
106.825
110.896
115.066
119.334
123.697
128.151
132.695
137.325
142.037
146.826
151.69
156.622
161.62
166.677
171.789
176.95
182.154
187.396
192.67
197.969
203.286
208.616
213.949
219.258
224.536
229.776
234.968
240.105
245.176
250.172
255.084
259.901
264.615
269.215
273.694
278.041
282.249
286.308
290.211
293.948
297.514
300.9
304.1
307.108
309.917
312.52
314.914
317.094
319.057
320.799
322.317
323.611
324.677
325.515
326.125
326.506
326.66
326.587
326.29
325.771
325.033
324.077
322.911
321.54
319.966
318.196
316.233
314.081
311.757
309.264
306.607
303.793
300.832
297.733
294.504
291.15
287.684
284.112
280.443
276.686
272.849
268.942
264.971
260.947
256.876
252.767
248.629
244.469
240.294
236.114
231.936
227.77
223.624
219.506
215.423
211.378
207.377
203.428
199.536
195.711
191.963
188.306
184.759
181.344
178.09
175.036
172.191
169.594
12.0662
5.73503
4.5515
4.21047
4.1442
4.20735
4.34683
4.53865
4.77022
5.03405
5.32528
5.64046
5.97714
6.33364
6.70891
7.10257
7.51479
7.94623
8.39793
8.87125
9.36775
9.8891
10.437
11.0133
11.6195
12.2573
12.9283
13.6341
14.376
15.1556
15.9743
16.8335
17.7346
18.6792
19.6688
20.705
21.7894
22.9237
24.1099
25.3496
26.6451
27.9983
29.4115
30.8871
32.4274
34.035
35.7127
37.4633
39.2895
41.1943
43.1807
45.2519
47.4108
49.6605
52.0041
54.4446
56.985
59.6282
62.377
65.2341
68.2021
71.2832
74.4796
77.7933
81.2259
84.7788
88.4531
92.2495
96.1683
100.21
104.373
108.657
113.062
117.585
122.225
126.978
131.842
136.814
141.889
147.064
152.333
157.693
163.138
168.663
174.262
179.929
185.659
191.444
197.279
203.157
209.069
215.009
220.969
226.941
232.898
238.822
244.706
250.541
256.318
262.026
267.655
273.194
278.632
283.957
289.16
294.23
299.156
303.929
308.54
312.979
317.236
321.304
325.174
328.838
332.289
335.522
338.527
341.3
343.834
346.127
348.173
349.971
351.518
352.812
353.852
354.637
355.168
355.443
355.465
355.236
354.759
354.037
353.072
351.867
350.432
348.772
346.892
344.799
342.497
339.993
337.3
334.425
331.374
328.156
324.78
321.256
317.594
313.801
309.887
305.863
301.738
297.521
293.221
288.849
284.412
279.921
275.384
270.811
266.209
261.587
256.954
252.318
247.687
243.071
238.478
233.916
229.392
224.913
220.485
216.116
211.814
207.588
203.449
199.413
195.495
191.719
188.11
184.696
181.48
178.493
12.4868
5.95435
4.70703
4.33352
4.24511
4.28994
4.4123
4.58699
4.80094
5.04657
5.31915
5.61555
5.93364
6.27203
6.62996
7.00721
7.404
7.82101
8.25921
8.71987
9.20444
9.7145
10.2517
10.8178
11.4144
12.0432
12.7061
13.4045
14.1403
14.9151
15.7305
16.5884
17.4905
18.4386
19.4346
20.4805
21.5782
22.7301
23.9382
25.205
26.5329
27.9245
29.3827
30.9103
32.5102
34.1858
35.9403
37.777
39.6996
41.7117
43.8169
46.019
48.3217
50.7289
53.2442
55.8714
58.614
61.4755
64.4594
67.5689
70.8069
74.1764
77.6799
81.3197
85.0976
89.0154
93.074
97.2744
101.617
106.101
110.727
115.493
120.397
125.438
130.613
135.919
141.352
146.907
152.581
158.368
164.262
170.258
176.348
182.528
188.791
195.129
201.536
208.004
214.526
221.093
227.697
234.33
240.982
247.632
254.246
260.816
267.334
273.789
280.171
286.468
292.668
298.76
304.73
310.565
316.254
321.787
327.152
332.338
337.336
342.135
346.725
351.097
355.244
359.156
362.826
366.249
369.416
372.319
374.954
377.316
379.404
381.213
382.743
383.992
384.958
385.643
386.045
386.165
386.007
385.573
384.867
383.894
382.657
381.161
379.413
377.422
375.192
372.732
370.049
367.151
364.049
360.751
357.267
353.605
349.776
345.791
341.659
337.391
332.997
328.488
323.873
319.165
314.372
309.505
304.574
299.589
294.559
289.495
284.404
279.297
274.182
269.068
263.964
258.878
253.819
248.796
243.817
238.888
234.019
229.217
224.49
219.849
215.306
210.875
206.574
202.421
198.439
194.652
191.054
187.677
12.7203
6.09113
4.80048
4.40143
4.2939
4.32209
4.42857
4.58735
4.78501
5.01395
5.26952
5.54878
5.84984
6.17153
6.51327
6.87496
7.25691
7.65978
8.08456
8.53244
9.00486
9.50336
10.0296
10.5854
11.1724
11.7925
12.4477
13.1397
13.8705
14.6422
15.4567
16.3161
17.2226
18.1784
19.1858
20.2472
21.3652
22.5425
23.7817
25.0859
26.4581
27.9015
29.4196
31.0158
32.694
34.4581
36.3119
38.2598
40.306
42.4549
44.7109
47.0787
49.5627
52.1674
54.8974
57.7569
60.7501
63.8811
67.1539
70.5721
74.1392
77.8584
81.7325
85.7641
89.9552
94.3073
98.8216
103.499
108.338
113.341
118.504
123.827
129.307
134.941
140.727
146.659
152.734
158.946
165.29
171.758
178.344
185.04
191.839
198.734
205.717
212.78
219.916
227.116
234.371
241.673
249.011
256.375
263.748
271.081
278.364
285.589
292.744
299.818
306.799
313.675
320.433
327.06
333.539
339.856
346.001
351.961
357.726
363.283
368.623
373.734
378.606
383.231
387.599
391.702
395.532
399.085
402.356
405.326
407.998
410.366
412.43
414.187
415.636
416.775
417.604
418.125
418.337
418.244
417.848
417.153
416.163
414.885
413.322
411.482
409.372
407
404.373
401.501
398.392
395.056
391.503
387.743
383.787
379.644
375.327
370.847
366.214
361.44
356.537
351.515
346.386
341.161
335.851
330.468
325.022
319.523
313.982
308.409
302.814
297.207
291.595
285.99
280.399
274.832
269.297
263.804
258.361
252.976
247.658
242.416
237.258
232.195
227.241
222.408
217.713
213.176
208.813
204.644
200.66
196.895
12.7918
6.15589
4.84062
4.42278
4.29933
4.31278
4.40485
4.54916
4.73213
4.94612
5.18658
5.45069
5.73672
6.04364
6.37102
6.71883
7.08747
7.47763
7.8903
8.32674
8.78838
9.27683
9.79385
10.3413
10.9211
11.5354
12.1863
12.8759
13.6066
14.3807
15.2007
16.0691
16.9885
17.9618
18.9917
20.0814
21.2339
22.4526
23.7408
25.1023
26.5408
28.0604
29.6653
31.3599
33.1486
35.0363
37.0278
39.1283
41.3427
43.6765
46.1349
48.7232
51.447
54.3114
57.3217
60.4827
63.7992
67.2754
70.9156
74.7239
78.704
82.8592
87.1925
91.7061
96.4019
101.281
106.345
111.592
117.023
122.637
128.43
134.401
140.547
146.862
153.343
159.985
166.781
173.726
180.813
188.034
195.377
202.834
210.397
218.058
225.809
233.64
241.543
249.509
257.529
265.591
273.686
281.794
289.854
297.857
305.791
313.645
321.407
329.064
336.602
344.008
351.271
358.381
365.309
372.042
378.573
384.888
390.976
396.825
402.426
407.765
412.835
417.625
422.126
426.331
430.232
433.823
437.098
440.048
442.67
444.96
446.917
448.538
449.824
450.774
451.389
451.669
451.618
451.238
450.534
449.51
448.171
446.524
444.575
442.332
439.803
436.997
433.923
430.591
427.01
423.192
419.147
414.887
410.423
405.766
400.93
395.925
390.765
385.461
380.025
374.47
368.808
363.05
357.208
351.295
345.322
339.299
333.237
327.148
321.041
314.927
308.814
302.713
296.633
290.582
284.571
278.607
272.701
266.861
261.095
255.413
249.825
244.341
238.975
233.74
228.652
223.727
218.982
214.431
210.064
205.917
12.7295
6.16008
4.83666
4.40655
4.27058
4.27157
4.35114
4.48288
4.6532
4.85452
5.08236
5.33401
5.60783
5.90291
6.2189
6.55589
6.91433
7.29502
7.69902
8.12769
8.58258
9.06546
9.57828
10.1231
10.7023
11.3181
11.9731
12.6699
13.4113
14.2001
15.0395
15.9324
16.8824
17.8928
18.9674
20.1099
21.3243
22.6146
23.9853
25.4408
26.986
28.6258
30.3654
32.2103
34.166
36.2382
38.4329
40.7559
43.2135
45.8117
48.5568
51.4549
54.5122
57.7347
61.1283
64.6987
68.45
72.386
76.5111
80.8294
85.3445
90.0594
94.9764
100.097
105.423
110.954
116.69
122.629
128.771
135.111
141.647
148.375
155.289
162.384
169.653
177.091
184.689
192.44
200.339
208.378
216.532
224.797
233.163
241.623
250.167
258.785
267.468
276.207
284.993
293.815
302.641
311.407
320.103
328.716
337.234
345.643
353.931
362.082
370.084
377.921
385.581
393.05
400.309
407.344
414.143
420.695
426.986
433.006
438.745
444.19
449.333
454.165
458.677
462.861
466.711
470.221
473.385
476.198
478.655
480.755
482.495
483.876
484.896
485.556
485.859
485.807
485.402
484.65
483.554
482.122
480.358
478.271
475.869
473.159
470.151
466.854
463.28
459.439
455.341
450.999
446.424
441.629
436.625
431.427
426.045
420.494
414.787
408.935
402.953
396.853
390.648
384.349
377.971
371.524
365.021
358.474
351.893
345.29
338.675
332.059
325.451
318.861
312.299
305.773
299.294
292.87
286.51
280.224
274.021
267.91
261.901
256.006
250.237
244.608
239.132
233.827
228.706
223.781
219.04
214.522
12.5634
6.1152
4.79772
4.36168
4.2171
4.20862
4.27848
4.40051
4.5613
4.75339
4.9724
5.21572
5.4818
5.76985
6.07964
6.41136
6.76562
7.14337
7.54586
7.97465
8.43156
8.91867
9.43827
9.9929
10.5853
11.2183
11.895
12.6187
13.3929
14.2212
15.1075
16.0559
17.0708
18.1566
19.3182
20.5605
21.8888
23.3081
24.8236
26.4413
28.1671
30.0075
31.9687
34.0575
36.2806
38.6447
41.1569
43.824
46.6529
49.6506
52.8238
56.1791
59.7231
63.4623
67.4032
71.5533
75.914
80.4846
85.2707
90.276
95.503
100.954
106.628
112.528
118.651
124.997
131.562
138.345
145.34
152.543
159.949
167.55
175.341
183.313
191.458
199.767
208.232
216.841
225.587
234.457
243.438
252.518
261.687
270.936
280.255
289.634
299.065
308.533
318.042
327.52
336.922
346.235
355.445
364.54
373.505
382.326
390.989
399.481
407.786
415.89
423.781
431.443
438.862
446.024
452.918
459.529
465.848
471.864
477.566
482.944
487.989
492.694
497.05
501.051
504.691
507.964
510.866
513.393
515.541
517.311
518.699
519.708
520.337
520.588
520.465
519.97
519.108
517.884
516.305
514.376
512.105
509.501
506.572
503.329
499.78
495.937
491.811
487.414
482.757
477.854
472.716
467.357
461.789
456.028
450.085
443.974
437.709
431.304
424.771
418.125
411.378
404.544
397.635
390.663
383.642
376.582
369.495
362.394
355.287
348.186
341.101
334.041
327.016
320.036
313.109
306.245
299.453
292.742
286.122
279.602
273.193
266.905
260.751
254.744
248.898
243.228
237.745
232.462
227.364
222.493
12.3138
6.0293
4.73061
4.29547
4.14719
4.13361
4.19814
4.31517
4.47162
4.66025
4.87684
5.11894
5.38517
5.67492
5.98815
6.32531
6.68729
7.07535
7.49116
7.9367
8.41431
8.92661
9.47657
10.0675
10.703
11.3869
12.1233
12.9163
13.7706
14.6912
15.6834
16.7527
17.9051
19.1467
20.4842
21.9246
23.4758
25.1433
26.9326
28.8521
30.9097
33.1132
35.4705
37.9895
40.6781
43.544
46.5947
49.8378
53.2801
56.9287
60.7898
64.8694
69.1732
73.7061
78.4727
83.4765
88.7193
94.2015
99.9244
105.888
112.093
118.538
125.22
132.137
139.285
146.659
154.254
162.064
170.082
178.301
186.712
195.306
204.073
213.005
222.09
231.318
240.678
250.159
259.749
269.437
279.21
289.057
298.968
308.933
318.944
328.988
339.071
349.145
359.129
369.013
378.783
388.424
397.921
407.262
416.432
425.418
434.206
442.782
451.132
459.245
467.105
474.702
482.021
489.05
495.778
502.193
508.286
514.047
519.465
524.534
529.244
533.589
537.563
541.159
544.373
547.2
549.638
551.683
553.335
554.592
555.455
555.925
556.003
555.694
555
553.925
552.477
550.659
548.481
545.948
543.071
539.857
536.317
532.46
528.299
523.844
519.107
514.101
508.838
503.332
497.595
491.642
485.486
479.14
472.62
465.938
459.109
452.146
445.064
437.875
430.594
423.233
415.805
408.324
400.8
393.247
385.676
378.097
370.522
362.961
355.424
347.921
340.461
333.053
325.707
318.431
311.234
304.127
297.117
290.215
283.431
276.776
270.261
263.9
257.706
251.692
245.869
240.249
234.815
229.614
12.0518
5.92754
4.65443
4.22733
4.08275
4.07201
4.13992
4.26159
4.42438
4.62139
4.84872
5.10419
5.3868
5.69634
6.03323
6.39849
6.79362
7.22061
7.68192
8.18049
8.71975
9.30335
9.9354
10.6208
11.365
12.1742
13.0542
14.0095
15.0474
16.1755
17.4016
18.7337
20.1803
21.7502
23.4523
25.2959
27.2905
29.4447
31.7674
34.2678
36.9552
39.8385
42.9262
46.2265
49.7472
53.4952
57.4771
61.6986
66.1647
70.8796
75.8468
81.0687
86.5471
92.2828
98.2757
104.525
111.027
117.78
124.78
132.022
139.501
147.211
155.147
163.3
171.662
180.227
188.985
197.926
207.041
216.32
225.752
235.327
245.034
254.862
264.798
274.833
284.955
295.153
305.416
315.734
326.096
336.492
346.916
357.352
367.817
378.255
388.585
398.791
408.862
418.785
428.548
438.138
447.541
456.745
465.738
474.508
483.041
491.326
499.352
507.105
514.576
521.753
528.624
535.18
541.41
547.304
552.855
558.053
562.891
567.361
571.458
575.175
578.508
581.452
584.003
586.158
587.916
589.276
590.236
590.797
590.96
590.729
590.104
589.092
587.695
585.92
583.772
581.26
578.39
575.17
571.611
567.722
563.513
558.995
554.18
549.079
543.706
538.072
532.191
526.076
519.74
513.199
506.465
499.552
492.475
485.247
477.883
470.396
462.8
455.109
447.335
439.493
431.594
423.651
415.677
407.682
399.679
391.677
383.689
375.723
367.79
359.898
352.058
344.278
336.566
328.932
321.384
313.931
306.583
299.348
292.237
285.26
278.43
271.757
265.255
258.936
252.811
246.891
241.158
235.663
11.8173
5.82632
4.58499
4.17577
4.04633
4.05133
4.13707
4.27952
4.46667
4.69219
4.9528
5.24705
5.57474
5.9366
6.33417
6.76966
7.24598
7.7667
8.33589
8.95848
9.64098
10.3884
11.2065
12.1035
13.088
14.1693
15.3566
16.6595
18.0888
19.6556
21.3715
23.2485
25.2986
27.5338
29.966
32.6069
35.4676
38.5584
41.8889
45.468
49.3036
53.4026
57.7705
62.4119
67.3299
72.5261
78.0012
83.7544
89.7837
96.0862
102.658
109.493
116.586
123.931
131.519
139.343
147.393
155.662
164.138
172.813
181.676
190.718
199.929
209.297
218.813
228.466
238.247
248.144
258.148
268.248
278.433
288.695
299.022
309.406
319.836
330.304
340.801
351.317
361.844
372.382
382.914
393.438
403.968
414.431
424.749
434.921
444.937
454.787
464.458
473.942
483.226
492.301
501.155
509.778
518.16
526.289
534.156
541.751
549.063
556.083
562.802
569.209
575.296
581.054
586.475
591.551
596.275
600.639
604.638
608.265
611.516
614.387
616.872
618.969
620.676
621.99