/*--------------------------------*- C++ -*----------------------------------*\
  =========                 |
  \\      /  F ield         | OpenFOAM: The Open Source CFD Toolbox
   \\    /   O peration     | Website:  https://openfoam.org
    \\  /    A nd           | Version:  12
     \\/     M anipulation  |
\*---------------------------------------------------------------------------*/
FoamFile
{
    format      ascii;
    class       volScalarField;
    location    "0.13";
    object      k;
}
// * * * * * * * * * * * * * * * * * * * * * * * * * * * * * * * * * * * * * //

dimensions      [0 2 -2 0 0 0 0];

internalField   nonuniform List<scalar> 
12225
(
0.353921
0.335043
0.316966
0.300961
0.288126
0.278908
0.273301
0.271008
0.271574
0.274481
0.279217
0.285313
0.292362
0.300028
0.308059
0.316241
0.324629
0.336791
0.436864
0.44898
0.438086
0.433064
0.438794
0.453598
0.474819
0.500009
0.52718
0.554847
0.581981
0.607921
0.632288
0.654911
0.675905
0.695169
0.714886
0.730284
0.395187
0.410873
0.410631
0.405747
0.402011
0.400926
0.402619
0.406815
0.413093
0.420996
0.43009
0.439996
0.450404
0.461074
0.471869
0.482682
0.493826
0.504651
0.379641
0.38484
0.386546
0.38573
0.383905
0.382027
0.380568
0.379741
0.379609
0.380153
0.381309
0.382997
0.385134
0.387648
0.390487
0.393618
0.397069
0.400737
0.374976
0.3759
0.376239
0.375721
0.37457
0.373083
0.371496
0.369967
0.368593
0.367427
0.366486
0.365771
0.365273
0.364976
0.364869
0.364945
0.365199
0.365602
0.373488
0.372554
0.371759
0.370807
0.369631
0.368275
0.366809
0.3653
0.363803
0.362357
0.360989
0.359713
0.358537
0.357462
0.356491
0.355623
0.354856
0.354187
0.373012
0.371296
0.369813
0.368416
0.367025
0.36561
0.364168
0.36271
0.361256
0.359822
0.358424
0.357071
0.355771
0.354531
0.353352
0.352239
0.351192
0.350219
0.372865
0.370838
0.369004
0.36731
0.365711
0.364174
0.362678
0.361215
0.359781
0.358379
0.357013
0.355685
0.354399
0.353158
0.351963
0.350818
0.349725
0.348693
0.37282
0.37068
0.368691
0.366836
0.365095
0.363448
0.361879
0.360375
0.358927
0.357529
0.35618
0.354877
0.353619
0.352405
0.351237
0.350113
0.349037
0.348018
0.372806
0.370628
0.368578
0.366648
0.364828
0.36311
0.361481
0.359933
0.358456
0.357044
0.355691
0.354394
0.353149
0.351955
0.350808
0.349708
0.348654
0.347658
0.372801
0.370609
0.368537
0.366576
0.36472
0.362963
0.361298
0.359718
0.358215
0.356783
0.355418
0.354116
0.352871
0.351681
0.350543
0.349455
0.348416
0.347435
0.372799
0.370602
0.368522
0.366549
0.36468
0.362907
0.361224
0.359626
0.358107
0.356663
0.355287
0.353976
0.352726
0.351534
0.350397
0.349311
0.348275
0.3473
0.372797
0.370599
0.368514
0.366537
0.36466
0.362879
0.361188
0.359581
0.358052
0.356599
0.355215
0.353897
0.352642
0.351446
0.350305
0.349218
0.348182
0.347207
0.372796
0.370596
0.368509
0.366528
0.364649
0.362863
0.361167
0.359555
0.358021
0.356562
0.355173
0.35385
0.35259
0.35139
0.350246
0.349155
0.348116
0.347139
0.372795
0.370593
0.368505
0.366523
0.364641
0.362853
0.361154
0.359539
0.358002
0.35654
0.355148
0.353822
0.352559
0.351355
0.350208
0.349115
0.348073
0.347093
0.372794
0.370592
0.368502
0.366518
0.364634
0.362845
0.361144
0.359527
0.357989
0.356525
0.355131
0.353803
0.352538
0.351332
0.350183
0.349087
0.348043
0.347061
0.372794
0.37059
0.368499
0.366515
0.36463
0.362839
0.361137
0.359519
0.357979
0.356513
0.355118
0.353789
0.352523
0.351316
0.350165
0.349067
0.348022
0.347037
0.372794
0.37059
0.368498
0.366512
0.364627
0.362835
0.361132
0.359513
0.357972
0.356506
0.355109
0.353779
0.352512
0.351304
0.350152
0.349053
0.348006
0.34702
0.372793
0.370589
0.368497
0.366512
0.364626
0.362834
0.361131
0.359511
0.35797
0.356503
0.355106
0.353775
0.352507
0.351298
0.350145
0.349046
0.347998
0.347012
0.372794
0.37059
0.368498
0.366513
0.364628
0.362836
0.361133
0.359514
0.357973
0.356507
0.35511
0.35378
0.352512
0.351303
0.35015
0.349051
0.348003
0.347017
0.372794
0.370591
0.3685
0.366516
0.364632
0.362842
0.36114
0.359522
0.357983
0.356518
0.355123
0.353794
0.352527
0.35132
0.350169
0.349071
0.348025
0.34704
0.372795
0.370593
0.368504
0.366522
0.364642
0.362855
0.361159
0.359546
0.358012
0.356553
0.355164
0.35384
0.352579
0.351377
0.35023
0.349136
0.348093
0.347111
0.372796
0.370598
0.368518
0.366547
0.364681
0.362913
0.361235
0.359642
0.358127
0.356686
0.355312
0.354002
0.352752
0.351558
0.350417
0.349326
0.348284
0.3473
0.372804
0.370631
0.368592
0.366676
0.364872
0.363167
0.361548
0.360006
0.358533
0.357121
0.355768
0.354468
0.35322
0.352021
0.350869
0.349763
0.348703
0.347699
0.372856
0.370818
0.368973
0.367264
0.365645
0.364085
0.362567
0.361083
0.359632
0.358214
0.356833
0.355494
0.354198
0.352947
0.351745
0.350591
0.349488
0.348447
0.373166
0.37177
0.370579
0.369371
0.368049
0.366605
0.365072
0.363493
0.361906
0.360343
0.358826
0.357372
0.355991
0.354689
0.353468
0.35233
0.351272
0.350303
0.374797
0.375829
0.376175
0.375401
0.373834
0.371876
0.369792
0.36774
0.365814
0.364066
0.362524
0.361194
0.360074
0.359155
0.358422
0.35786
0.357453
0.357185
0.382729
0.39167
0.392375
0.388805
0.384384
0.380403
0.377247
0.374996
0.373619
0.373035
0.373148
0.37386
0.375075
0.376706
0.378673
0.380906
0.383346
0.385924
0.407499
0.414513
0.405423
0.395991
0.390553
0.389288
0.391449
0.396206
0.402823
0.410708
0.41941
0.428589
0.437991
0.447428
0.456764
0.465905
0.474805
0.483379
0.360554
0.347547
0.334933
0.322917
0.311965
0.302352
0.294189
0.28747
0.282113
0.278002
0.274998
0.272962
0.27176
0.271266
0.271366
0.27196
0.27296
0.274284
0.00206765
0.00936185
0.0146416
0.0192979
0.0239681
0.0291978
0.0350589
0.041699
0.0492401
0.0572044
0.065258
0.0732545
0.081057
0.0885561
0.0956722
0.102351
0.108557
0.114267
0.119463
0.124129
0.128253
0.131833
0.134878
0.137412
0.139411
0.140694
0.140815
0.139564
0.140771
0.142698
0.141709
0.142349
0.143266
0.144202
0.143485
0.143898
0.144792
0.144504
0.145027
0.15093
0.15726
0.163816
0.170556
0.17747
0.184548
0.191785
0.199181
0.206733
0.214441
0.222307
0.230328
0.238507
0.246842
0.255332
0.263977
0.272776
0.281727
0.290827
0.300074
0.309466
0.318998
0.328667
0.338469
0.348399
0.358453
0.368624
0.378907
0.389296
0.399784
0.410365
0.421031
0.431776
0.442592
0.45347
0.464403
0.475382
0.486399
0.497445
0.508512
0.519591
0.530672
0.541747
0.552806
0.56384
0.574839
0.585794
0.596695
0.607532
0.618295
0.628974
0.639559
0.650038
0.660403
0.670643
0.680752
0.690725
0.700568
0.710298
0.719957
0.729464
0.73875
0.747819
0.756665
0.765278
0.773648
0.781764
0.789614
0.797187
0.804473
0.811462
0.818143
0.824506
0.830544
0.836247
0.841607
0.846616
0.851268
0.855555
0.859472
0.863013
0.866175
0.868952
0.871341
0.873339
0.874945
0.876156
0.876972
0.877393
0.877419
0.877051
0.876292
0.875145
0.873612
0.871698
0.869407
0.866745
0.863718
0.860333
0.856597
0.852518
0.848104
0.843365
0.83831
0.832949
0.827293
0.821353
0.815141
0.808667
0.801946
0.794988
0.787806
0.780414
0.772825
0.76505
0.757107
0.749006
0.740757
0.732385
0.723887
0.715301
0.70662
0.697869
0.689138
0.680767
0.675731
0.671951
0.668207
0.66444
0.660646
0.656829
0.652991
0.64913
0.645239
0.641294
0.63725
0.633006
0.628328
0.622615
0.614309
0.59753
0.00593328
0.0202838
0.0295445
0.0369437
0.0438379
0.0506022
0.0575332
0.064859
0.0726326
0.0807511
0.0890518
0.0973771
0.105592
0.113591
0.121301
0.128675
0.135685
0.142319
0.148573
0.154454
0.159979
0.165182
0.170115
0.17484
0.17939
0.183757
0.188031
0.192693
0.197847
0.203026
0.208754
0.21506
0.22181
0.228981
0.236983
0.245603
0.254991
0.264727
0.276584
0.287612
0.29835
0.309398
0.320786
0.332495
0.344508
0.356815
0.369411
0.382297
0.395472
0.408938
0.422698
0.436752
0.451103
0.465751
0.480699
0.495946
0.511493
0.527339
0.543482
0.559922
0.576654
0.593677
0.610986
0.628577
0.646444
0.664581
0.682982
0.701639
0.720545
0.73969
0.759065
0.77866
0.798465
0.818469
0.838659
0.859024
0.879551
0.900226
0.921037
0.94197
0.96301
0.984143
1.00535
1.02663
1.04795
1.0693
1.09067
1.11204
1.13339
1.15471
1.17598
1.19719
1.21831
1.23932
1.26021
1.28096
1.30155
1.32195
1.342
1.36167
1.38106
1.40015
1.41895
1.43741
1.45554
1.47329
1.49065
1.50761
1.52412
1.54018
1.55577
1.57086
1.58543
1.59946
1.61295
1.62586
1.63818
1.64989
1.66099
1.67145
1.68126
1.69041
1.6989
1.7067
1.71381
1.72022
1.72593
1.73093
1.73521
1.73878
1.74163
1.74376
1.74517
1.74586
1.74584
1.74512
1.74369
1.74157
1.73876
1.73527
1.73112
1.72631
1.72087
1.7148
1.70812
1.70085
1.693
1.68459
1.67565
1.66619
1.65623
1.64579
1.6349
1.62358
1.61185
1.59975
1.58726
1.57447
1.56133
1.54794
1.53427
1.52034
1.50636
1.49238
1.4789
1.46559
1.45223
1.43879
1.4253
1.41177
1.39822
1.38465
1.37107
1.35749
1.34388
1.33021
1.31635
1.30219
1.2865
1.26631
0.0109822
0.0316447
0.0436546
0.0528332
0.0608522
0.0685102
0.0761959
0.0841143
0.0923371
0.100832
0.109507
0.118244
0.126936
0.135494
0.143855
0.151984
0.159866
0.167505
0.174918
0.182135
0.189203
0.196182
0.203149
0.210187
0.217371
0.224771
0.232485
0.240642
0.249228
0.25824
0.267818
0.277919
0.288543
0.299691
0.311414
0.323743
0.33664
0.350032
0.363896
0.37794
0.392187
0.406752
0.421678
0.436972
0.452633
0.46866
0.48505
0.501805
0.518926
0.536415
0.554273
0.572501
0.591101
0.610074
0.629421
0.64914
0.669231
0.689692
0.710522
0.731716
0.753272
0.775185
0.797448
0.820057
0.843003
0.866278
0.889874
0.913782
0.93799
0.962488
0.987263
1.0123
1.03759
1.06312
1.08887
1.11483
1.14098
1.1673
1.19378
1.22039
1.24713
1.27398
1.30091
1.3279
1.35494
1.38201
1.40908
1.43614
1.46317
1.49014
1.51704
1.54385
1.57054
1.5971
1.6235
1.64973
1.67576
1.70157
1.72699
1.75208
1.77682
1.80119
1.82519
1.84876
1.8719
1.89456
1.91672
1.93835
1.95942
1.97991
1.99978
2.01902
2.03759
2.05548
2.07265
2.08909
2.10477
2.11967
2.13378
2.14707
2.15953
2.17114
2.18189
2.19176
2.20075
2.20884
2.21603
2.2223
2.22766
2.23209
2.23561
2.2382
2.23987
2.24061
2.24045
2.23938
2.2374
2.23454
2.23079
2.22618
2.22072
2.21442
2.2073
2.19937
2.19067
2.18121
2.17101
2.16009
2.14849
2.13622
2.12331
2.1098
2.09571
2.08105
2.06589
2.05023
2.03408
2.01755
2.00055
1.98327
1.9657
1.94787
1.92987
1.91179
1.89387
1.87598
1.85803
1.83999
1.8219
1.80376
1.78561
1.76748
1.74937
1.73132
1.71335
1.69548
1.67772
1.66017
1.64236
1.62402
0.016989
0.0426822
0.0569193
0.0672817
0.0762072
0.0845728
0.0928103
0.101151
0.109699
0.11847
0.127417
0.136466
0.145535
0.154555
0.163479
0.172279
0.180951
0.189508
0.197981
0.206411
0.214856
0.223382
0.232064
0.240978
0.250194
0.259774
0.26978
0.280269
0.291268
0.302784
0.314842
0.327444
0.340585
0.354258
0.368463
0.383195
0.398428
0.41412
0.430222
0.446674
0.46346
0.480606
0.498134
0.516057
0.534383
0.553115
0.572259
0.591817
0.611793
0.63219
0.65301
0.674256
0.69593
0.718034
0.740567
0.763532
0.786926
0.81075
0.835
0.859674
0.884768
0.910277
0.936195
0.962517
0.989234
1.01634
1.04382
1.07166
1.09986
1.12841
1.15728
1.18646
1.21595
1.24571
1.27574
1.30602
1.33652
1.36723
1.39813
1.4292
1.46042
1.49176
1.5232
1.55472
1.5863
1.61791
1.64954
1.68115
1.71273
1.74425
1.77568
1.80701
1.83821
1.86926
1.90013
1.9308
1.96126
1.99137
2.02112
2.05048
2.07944
2.10797
2.13605
2.16363
2.19069
2.21718
2.24309
2.26836
2.29297
2.31689
2.34007
2.36251
2.38415
2.40498
2.42496
2.44407
2.46228
2.47957
2.49592
2.5113
2.52569
2.53908
2.55145
2.56278
2.57307
2.5823
2.59046
2.59754
2.60353
2.60845
2.61227
2.61501
2.61665
2.61722
2.61671
2.61514
2.6125
2.60882
2.6041
2.59837
2.59164
2.58393
2.57525
2.56564
2.55511
2.54369
2.53141
2.5183
2.50438
2.48969
2.47425
2.4581
2.44128
2.4238
2.40573
2.3871
2.36786
2.34823
2.32815
2.3077
2.28691
2.26582
2.24451
2.22306
2.2016
2.1801
2.15853
2.13687
2.11516
2.09341
2.07168
2.04998
2.02838
2.0069
1.98562
1.96462
1.94403
1.92409
1.90471
1.88617
0.0229375
0.0529029
0.0688445
0.0803409
0.0900825
0.0990502
0.107728
0.116384
0.125157
0.134102
0.143215
0.152458
0.16178
0.171135
0.180488
0.189822
0.199141
0.208464
0.217826
0.227272
0.236861
0.246654
0.256719
0.267121
0.277916
0.289156
0.30088
0.313121
0.3259
0.339222
0.353092
0.367507
0.38246
0.39794
0.413936
0.430438
0.447426
0.464879
0.482773
0.501083
0.519802
0.538933
0.558487
0.578475
0.598905
0.619784
0.641119
0.662916
0.685181
0.707917
0.73113
0.754823
0.779001
0.803665
0.828819
0.854464
0.880599
0.907226
0.934343
0.961948
0.990037
1.01861
1.04765
1.07717
1.10714
1.13757
1.16843
1.19973
1.23145
1.26357
1.29608
1.32897
1.36221
1.39578
1.42968
1.46387
1.49833
1.53305
1.568
1.60315
1.63848
1.67397
1.70959
1.74531
1.78111
1.81695
1.85282
1.88869
1.92452
1.96029
1.99597
2.03154
2.06697
2.10223
2.13729
2.17212
2.20668
2.24084
2.27459
2.30791
2.34077
2.37314
2.40498
2.43625
2.46692
2.49694
2.52627
2.55489
2.58273
2.60978
2.63599
2.66133
2.68576
2.70925
2.73177
2.75329
2.77377
2.7932
2.81154
2.82876
2.84486
2.85981
2.87358
2.88617
2.89756
2.90774
2.91669
2.92441
2.9309
2.93614
2.94014
2.94291
2.94443
2.94472
2.94379
2.94164
2.93829
2.93374
2.92803
2.92116
2.91316
2.90405
2.89384
2.88258
2.87028
2.85698
2.84271
2.82748
2.81136
2.79437
2.77653
2.75789
2.73851
2.71837
2.69757
2.67619
2.65421
2.63173
2.60876
2.58537
2.56159
2.53748
2.51309
2.48852
2.46384
2.43907
2.41421
2.38926
2.36426
2.33925
2.31427
2.28938
2.26462
2.24008
2.21586
2.1921
2.169
2.14688
2.12578
2.10599
0.0284518
0.0616425
0.0792376
0.0918081
0.102307
0.111817
0.120875
0.129783
0.138717
0.147767
0.156966
0.166311
0.175781
0.185352
0.195007
0.204738
0.214556
0.224483
0.234556
0.244818
0.255322
0.266124
0.27728
0.288842
0.300857
0.313361
0.326384
0.339945
0.354057
0.368723
0.383942
0.399709
0.416017
0.432855
0.450215
0.468085
0.486454
0.505312
0.524646
0.544446
0.564708
0.585434
0.606631
0.628307
0.65047
0.673129
0.696292
0.719968
0.744163
0.768885
0.79414
0.819935
0.846274
0.873163
0.900606
0.928606
0.957165
0.986285
1.01597
1.04621
1.077
1.10836
1.14026
1.17271
1.20569
1.2392
1.27323
1.30776
1.34279
1.37829
1.41426
1.45066
1.48749
1.52472
1.56233
1.6003
1.6386
1.6772
1.71609
1.75522
1.79458
1.83412
1.87383
1.91367
1.95362
1.99363
2.03368
2.07373
2.11376
2.15373
2.19361
2.23337
2.27297
2.31238
2.35157
2.39051
2.42908
2.46722
2.50489
2.54208
2.57876
2.61487
2.65039
2.68526
2.71944
2.75289
2.78556
2.81741
2.84839
2.87846
2.90759
2.93573
2.96284
2.98888
3.01383
3.03764
3.06028
3.08173
3.10194
3.12091
3.1386
3.15499
3.17006
3.1838
3.19618
3.20721
3.21686
3.22512
3.232
3.23748
3.24158
3.24428
3.2456
3.24554
3.24411
3.24133
3.2372
3.23175
3.22499
3.21695
3.20764
3.19711
3.18536
3.17243
3.15836
3.14318
3.12692
3.1096
3.0913
3.07204
3.05183
3.03074
3.00887
2.98621
2.96283
2.93879
2.91411
2.88886
2.86309
2.83685
2.81017
2.78313
2.75578
2.72819
2.70043
2.67254
2.64454
2.61646
2.58833
2.56021
2.53215
2.50421
2.47647
2.44903
2.42203
2.39564
2.37011
2.34578
2.32272
2.30109
0.0330506
0.0689982
0.0880303
0.101556
0.112737
0.122734
0.132128
0.141252
0.150311
0.159426
0.168662
0.178049
0.187592
0.197291
0.207143
0.217155
0.227341
0.237726
0.248344
0.259237
0.27045
0.28203
0.294021
0.306467
0.319401
0.332854
0.346844
0.361387
0.376489
0.392153
0.408377
0.425158
0.442488
0.460362
0.478771
0.497711
0.517174
0.537156
0.557652
0.578658
0.600175
0.622206
0.644757
0.667837
0.691454
0.715619
0.740341
0.76563
0.791497
0.81795
0.844999
0.872652
0.900917
0.9298
0.959309
0.989449
1.02022
1.05164
1.08369
1.11638
1.14972
1.18369
1.2183
1.25353
1.28939
1.32586
1.36293
1.4006
1.43884
1.47763
1.51697
1.55684
1.5972
1.63804
1.67932
1.72104
1.76314
1.80562
1.84843
1.89154
1.93491
1.97852
2.02234
2.06631
2.11041
2.15461
2.19886
2.24312
2.28737
2.33156
2.37566
2.41963
2.46342
2.507
2.55034
2.59338
2.63596
2.67806
2.71966
2.76071
2.80118
2.84102
2.88018
2.91862
2.95629
2.99312
3.02908
3.06412
3.09818
3.13123
3.16321
3.19409
3.22381
3.25234
3.27964
3.30567
3.3304
3.35379
3.3758
3.39642
3.41562
3.43337
3.44965
3.46445
3.47775
3.48953
3.49979
3.50851
3.5157
3.52134
3.52545
3.52802
3.52906
3.52858
3.52659
3.5231
3.51814
3.51172
3.50387
3.4946
3.48395
3.47195
3.45862
3.444
3.42812
3.41105
3.3928
3.37337
3.35287
3.33137
3.30887
3.28542
3.2611
3.23594
3.21
3.18333
3.15599
3.12802
3.09948
3.07043
3.04092
3.011
2.98073
2.95019
2.91944
2.88852
2.85748
2.82635
2.79519
2.76405
2.733
2.70212
2.6715
2.64125
2.61154
2.58258
2.55462
2.52799
2.50272
2.47889
0.0368173
0.0749974
0.0952122
0.109544
0.121309
0.131731
0.141419
0.150732
0.159896
0.169057
0.178307
0.1877
0.19727
0.207034
0.217006
0.227204
0.237646
0.248359
0.259376
0.270732
0.282466
0.294616
0.307219
0.320308
0.33391
0.348047
0.362735
0.377984
0.393802
0.41019
0.427148
0.444674
0.462764
0.481415
0.500625
0.52039
0.540708
0.561579
0.583004
0.604983
0.62752
0.650622
0.674295
0.69855
0.723397
0.748847
0.774914
0.801609
0.828944
0.856932
0.885584
0.914911
0.944924
0.975633
1.00705
1.03917
1.07202
1.10558
1.13988
1.17491
1.21067
1.24716
1.28437
1.32232
1.36097
1.40034
1.4404
1.48115
1.52256
1.56463
1.60732
1.65063
1.69451
1.73896
1.78393
1.8294
1.87534
1.92171
1.96847
2.01558
2.06302
2.11073
2.15868
2.20683
2.25513
2.30355
2.35204
2.40056
2.44906
2.49751
2.54585
2.59406
2.64207
2.68985
2.73735
2.78447
2.83107
2.87714
2.92265
2.96756
3.01181
3.05535
3.09814
3.14011
3.18122
3.2214
3.2606
3.29877
3.33586
3.37181
3.40658
3.44012
3.47237
3.50331
3.53288
3.56105
3.58777
3.61301
3.63673
3.65891
3.67952
3.69853
3.71593
3.73169
3.7458
3.75825
3.76903
3.77812
3.78552
3.79123
3.79527
3.79762
3.7983
3.79732
3.7947
3.79045
3.78459
3.77714
3.76813
3.75758
3.74554
3.73205
3.71711
3.70075
3.68305
3.66406
3.64382
3.62235
3.59972
3.57599
3.5512
3.5254
3.49866
3.47102
3.44255
3.41329
3.38331
3.35266
3.3214
3.28959
3.25728
3.22454
3.19142
3.15798
3.12431
3.09044
3.05644
3.02236
2.98824
2.95417
2.92021
2.88646
2.85302
2.82003
2.78767
2.75614
2.72572
2.6967
2.66905
2.64283
0.0397786
0.0796873
0.100828
0.115803
0.128046
0.138821
0.148759
0.158234
0.167488
0.176685
0.185937
0.195321
0.204888
0.214674
0.224706
0.235011
0.245613
0.25654
0.267822
0.27949
0.291578
0.304116
0.317133
0.330658
0.34471
0.359309
0.374468
0.390197
0.406503
0.423388
0.440855
0.458904
0.477537
0.496752
0.516551
0.536934
0.557904
0.579464
0.601618
0.624372
0.647733
0.671711
0.696314
0.721555
0.747448
0.774006
0.801244
0.829177
0.857819
0.887187
0.917295
0.948156
0.979785
1.01219
1.04539
1.0794
1.11421
1.14984
1.1863
1.22359
1.2617
1.30065
1.34043
1.38104
1.42246
1.4647
1.50773
1.55155
1.59614
1.64147
1.68753
1.73429
1.78173
1.82981
1.87849
1.92775
1.97755
2.02785
2.0786
2.12976
2.18129
2.23315
2.28527
2.33763
2.39016
2.44283
2.49558
2.54837
2.60115
2.65386
2.70647
2.75891
2.81115
2.86313
2.91479
2.96592
3.01651
3.06652
3.1159
3.1646
3.21258
3.25977
3.30611
3.35154
3.396
3.43943
3.48178
3.52299
3.56299
3.60174
3.63918
3.67526
3.70994
3.74316
3.77488
3.80505
3.83364
3.86061
3.88591
3.90952
3.93141
3.95155
3.96994
3.98654
4.00135
4.01434
4.02552
4.03487
4.04238
4.04806
4.05192
4.05396
4.0542
4.05263
4.0493
4.04421
4.03738
4.02885
4.01864
4.00675
3.99329
3.97826
3.9617
3.94364
3.92414
3.90326
3.88104
3.85753
3.83278
3.80686
3.77981
3.75169
3.72256
3.69249
3.66152
3.62973
3.59717
3.5639
3.52998
3.49547
3.46043
3.42493
3.38903
3.35278
3.31627
3.27955
3.24268
3.20572
3.16875
3.13183
3.09505
3.05852
3.02234
2.98668
2.9517
2.91764
2.88474
2.85327
2.82314
2.79441
0.041963
0.0831488
0.104972
0.120432
0.13304
0.144091
0.154228
0.163835
0.173163
0.182388
0.191636
0.200998
0.210542
0.220317
0.230361
0.240708
0.251386
0.262426
0.273854
0.285701
0.297992
0.310756
0.324017
0.337797
0.352115
0.366987
0.382426
0.398442
0.415043
0.432234
0.450021
0.468408
0.487398
0.506995
0.527204
0.54803
0.569478
0.591556
0.614272
0.637636
0.661658
0.68635
0.711727
0.737803
0.764594
0.792118
0.820392
0.849435
0.879264
0.909898
0.941355
0.973653
1.00681
1.04084
1.07575
1.11157
1.14829
1.18594
1.22452
1.26403
1.30448
1.34588
1.38821
1.43147
1.47567
1.52078
1.5668
1.61371
1.6615
1.71013
1.75958
1.80984
1.86085
1.91259
1.96503
2.01812
2.07181
2.12607
2.18084
2.23608
2.29173
2.34773
2.40405
2.46061
2.51738
2.57429
2.63129
2.68833
2.74535
2.8023
2.85913
2.91577
2.97219
3.02831
3.08396
3.13905
3.19353
3.24737
3.30051
3.3529
3.40447
3.45517
3.50493
3.55367
3.60134
3.64786
3.69319
3.73726
3.78001
3.82137
3.86131
3.89975
3.93666
3.97198
4.00566
4.03766
4.06794
4.09645
4.12315
4.14801
4.17101
4.19212
4.21133
4.22861
4.24395
4.25735
4.26879
4.27825
4.28574
4.29126
4.29483
4.29646
4.29614
4.2939
4.28977
4.28376
4.27591
4.26624
4.25478
4.24157
4.22667
4.2101
4.19192
4.17216
4.15088
4.12813
4.10397
4.07844
4.05161
4.02354
3.99429
3.9639
3.93246
3.90002
3.86664
3.83239
3.79733
3.76152
3.72503
3.68792
3.65026
3.6121
3.57351
3.53457
3.49533
3.45587
3.41625
3.37655
3.33683
3.29718
3.25769
3.21848
3.17966
3.1414
3.10388
3.06732
3.03196
2.998
2.96535
2.93408
0.0434235
0.0854924
0.107778
0.123571
0.136436
0.147684
0.157966
0.167668
0.177047
0.186286
0.19552
0.20485
0.214353
0.224088
0.234102
0.244433
0.255115
0.266178
0.277649
0.289555
0.301922
0.314772
0.328128
0.34201
0.356436
0.37142
0.386977
0.403117
0.419852
0.437189
0.455138
0.473705
0.492898
0.512726
0.533196
0.554319
0.576103
0.59856
0.621703
0.645545
0.6701
0.695386
0.721419
0.748218
0.775803
0.804195
0.833415
0.863485
0.894427
0.926262
0.959012
0.992698
1.02734
1.06296
1.09956
1.13718
1.17581
1.21548
1.25619
1.29795
1.34076
1.38462
1.42954
1.47551
1.52252
1.57055
1.61961
1.66966
1.72068
1.77266
1.82556
1.87934
1.93398
1.98943
2.04564
2.10258
2.16019
2.21843
2.27723
2.33653
2.39629
2.45643
2.51689
2.57762
2.63856
2.69965
2.76083
2.82203
2.8832
2.94429
3.00522
3.06594
3.1264
3.18646
3.24594
3.30479
3.36298
3.42045
3.47714
3.533
3.58796
3.64195
3.69488
3.74669
3.79731
3.84668
3.89473
3.9414
3.98662
4.03034
4.0725
4.11304
4.15191
4.18907
4.22445
4.25803
4.28975
4.31956
4.34741
4.37329
4.39717
4.41902
4.43883
4.45659
4.47227
4.48588
4.49741
4.50682
4.51413
4.51935
4.52249
4.52357
4.5226
4.5196
4.5146
4.50761
4.49869
4.48785
4.47513
4.46057
4.44422
4.42613
4.40634
4.38489
4.36186
4.33729
4.31123
4.28375
4.25491
4.22477
4.19339
4.16084
4.12717
4.09247
4.05678
4.02019
3.98275
3.94454
3.90561
3.86603
3.82588
3.78521
3.74408
3.70258
3.66077
3.61872
3.57651
3.53421
3.4919
3.44966
3.4076
3.36584
3.32451
3.28376
3.24379
3.20481
3.16703
3.13063
3.09548
3.0617
0.0442333
0.0868495
0.109403
0.125393
0.138412
0.149778
0.160145
0.169901
0.179302
0.188535
0.197739
0.20702
0.216462
0.22613
0.236075
0.246341
0.256962
0.267971
0.279395
0.291261
0.303591
0.316409
0.329736
0.343591
0.357991
0.372954
0.388494
0.404626
0.421362
0.438715
0.456697
0.475319
0.494594
0.514534
0.535152
0.556461
0.578476
0.601214
0.624689
0.648922
0.67393
0.699734
0.726357
0.753821
0.782151
0.81137
0.841505
0.872581
0.904623
0.937658
0.97171
1.0068
1.04296
1.0802
1.11855
1.15802
1.19863
1.24039
1.2833
1.32738
1.37263
1.41906
1.46665
1.51541
1.56531
1.61636
1.66853
1.7218
1.77614
1.83153
1.88793
1.94529
2.00359
2.06277
2.12278
2.18357
2.24509
2.30728
2.37007
2.43339
2.49718
2.56137
2.62589
2.69067
2.75565
2.82076
2.88595
2.95114
3.01627
3.08128
3.1461
3.21068
3.27492
3.33857
3.40158
3.4639
3.52548
3.58627
3.64619
3.70518
3.76317
3.8201
3.87586
3.93038
3.98359
4.03543
4.08582
4.13472
4.18205
4.22775
4.27177
4.31404
4.35452
4.39315
4.42989
4.4647
4.49756
4.52833
4.55703
4.58362
4.60808
4.6304
4.65055
4.66853
4.68431
4.6979
4.70928
4.71845
4.72542
4.73019
4.73277
4.73319
4.73146
4.72761
4.72166
4.71364
4.70359
4.69154
4.67754
4.66162
4.64384
4.62424
4.60288
4.57981
4.55507
4.52875
4.50088
4.47154
4.44079
4.40869
4.37531
4.34071
4.30497
4.26815
4.23032
4.19154
4.15189
4.11144
4.07025
4.02838
3.98592
3.94292
3.89945
3.85559
3.8114
3.76696
3.72235
3.67764
3.63292
3.58829
3.54384
3.49971
3.45601
3.41293
3.37064
3.32935
3.28924
3.25049
3.21292
3.17671
0.0444804
0.0873624
0.110016
0.126084
0.139162
0.150571
0.160962
0.170723
0.180111
0.18931
0.198462
0.207674
0.217032
0.226605
0.236446
0.246601
0.257107
0.267997
0.279299
0.291041
0.303245
0.315934
0.329131
0.342855
0.357126
0.371962
0.387382
0.403403
0.420041
0.437314
0.455237
0.473828
0.493103
0.513079
0.533776
0.555211
0.577404
0.600376
0.624149
0.648745
0.67419
0.700507
0.727725
0.755871
0.784974
0.815061
0.846164
0.878311
0.911532
0.945855
0.98131
1.01792
1.05572
1.09472
1.13495
1.17643
1.21917
1.26317
1.30846
1.35503
1.40288
1.45202
1.50244
1.55414
1.60709
1.66127
1.71668
1.77327
1.83103
1.8899
1.94985
2.01084
2.07281
2.13572
2.1995
2.2641
2.32946
2.3955
2.46218
2.5294
2.59707
2.66512
2.73348
2.80208
2.87084
2.93971
3.00861
3.07748
3.14625
3.21485
3.28322
3.35127
3.41873
3.48554
3.55165
3.617
3.68151
3.74513
3.80779
3.86942
3.92995
3.98935
4.04744
4.10415
4.15944
4.21323
4.26548
4.3161
4.36504
4.41223
4.45762
4.50115
4.54277
4.58242
4.62007
4.65567
4.68917
4.72052
4.74968
4.77663
4.80134
4.82381
4.844
4.86191
4.87754
4.89086
4.90189
4.91061
4.91704
4.92118
4.92306
4.92269
4.92009
4.91529
4.90831
4.89921
4.88799
4.87472
4.85943
4.84217
4.82298
4.80192
4.77905
4.75441
4.72808
4.7001
4.67054
4.63947
4.60695
4.57305
4.53784
4.50137
4.46374
4.42499
4.38521
4.34446
4.30282
4.26035
4.21712
4.1732
4.12867
4.08358
4.038
3.99202
3.9457
3.89911
3.85234
3.80547
3.75859
3.71179
3.66517
3.61888
3.57303
3.5278
3.48337
3.43992
3.39764
3.35666
3.31682
3.27831
0.0442625
0.0871772
0.109789
0.125829
0.138881
0.15026
0.160617
0.170335
0.179668
0.188801
0.197872
0.20699
0.21624
0.225689
0.235394
0.245401
0.255747
0.266467
0.27759
0.289143
0.301153
0.313643
0.326637
0.340158
0.354228
0.368869
0.384103
0.399952
0.416437
0.43358
0.451403
0.469928
0.489179
0.509179
0.529952
0.551524
0.573919
0.597163
0.621285
0.646311
0.672273
0.699201
0.727128
0.756086
0.786108
0.817228
0.849478
0.882892
0.917502
0.95334
0.990435
1.02882
1.06851
1.10954
1.15193
1.19571
1.24086
1.2874
1.33533
1.38465
1.43537
1.48747
1.54096
1.5958
1.65199
1.70949
1.76828
1.82832
1.88957
1.95199
2.01553
2.08013
2.14575
2.21231
2.27976
2.34802
2.41704
2.48673
2.55705
2.62793
2.69918
2.77076
2.84259
2.91461
2.98674
3.05891
3.13107
3.20312
3.27503
3.34671
3.41804
3.48878
3.55887
3.62823
3.6968
3.76452
3.8313
3.89709
3.96181
4.02539
4.08775
4.14884
4.20853
4.26677
4.32347
4.37857
4.43202
4.48374
4.53367
4.58175
4.62793
4.67214
4.71434
4.75448
4.79251
4.8284
4.86209
4.89354
4.92273
4.94962
4.97419
4.99643
5.01632
5.03384
5.049
5.06179
5.0722
5.08025
5.08593
5.08927
5.09028
5.08898
5.0854
5.07956
5.0715
5.06125
5.04886
5.03436
5.0178
4.99923
4.97869
4.95625
4.93196
4.90588
4.87807
4.84859
4.8175
4.78488
4.75078
4.71528
4.67845
4.64035
4.60105
4.56063
4.51916
4.47671
4.43334
4.38913
4.34415
4.29847
4.25215
4.20527
4.15789
4.11008
4.06192
4.01349
3.96486
3.91612
3.86735
3.81867
3.77016
3.72197
3.67422
3.62709
3.58073
3.53534
3.49108
3.44807
3.40615
3.36553
0.0436836
0.0864371
0.108887
0.124809
0.137758
0.149042
0.159306
0.168931
0.178168
0.1872
0.196162
0.205159
0.214275
0.223578
0.23312
0.24295
0.253105
0.26362
0.274527
0.285856
0.297633
0.309887
0.322644
0.335931
0.349775
0.364204
0.379243
0.39492
0.411262
0.428297
0.446055
0.464566
0.48386
0.503968
0.524923
0.546758
0.569506
0.593197
0.617863
0.643537
0.670259
0.698064
0.72699
0.757075
0.788356
0.820868
0.854648
0.889731
0.926149
0.963933
1.00311
1.04372
1.08577
1.12929
1.17431
1.22085
1.2689
1.31841
1.3694
1.42187
1.47582
1.53122
1.58807
1.64633
1.70597
1.76697
1.82927
1.89284
1.95763
2.02359
2.09065
2.15875
2.22784
2.29784
2.36868
2.44029
2.51259
2.5855
2.65896
2.73286
2.80711
2.88162
2.9563
3.0311
3.10593
3.18072
3.25541
3.32993
3.40423
3.4781
3.55138
3.62398
3.69584
3.76689
3.83705
3.90625
3.97443
4.0415
4.10739
4.17204
4.23537
4.29731
4.35777
4.41668
4.47398
4.52958
4.58344
4.63548
4.68565
4.73389
4.78014
4.82436
4.86648
4.90647
4.94428
4.97987
5.0132
5.04423
5.07294
5.0993
5.12328
5.14488
5.16407
5.18085
5.19522
5.20716
5.2167
5.22383
5.22856
5.2309
5.23089
5.22854
5.22387
5.21692
5.20773
5.19632
5.18275
5.16705
5.14927
5.12947
5.10768
5.08398
5.05842
5.03105
5.00194
4.97116
4.93876
4.90481
4.86939
4.83255
4.79437
4.75492
4.71427
4.67249
4.62964
4.58581
4.54106
4.49545
4.44907
4.40197
4.35422
4.3059
4.25707
4.2078
4.15816
4.10824
4.05811
4.00784
3.95754
3.90731
3.85724
3.80746
3.75812
3.70937
3.66137
3.61431
3.56831
3.52352
3.47976
3.43727
0.042813
0.0852372
0.107417
0.123137
0.135911
0.147036
0.15715
0.166632
0.175732
0.184625
0.193446
0.202295
0.211254
0.220387
0.229747
0.239382
0.24933
0.259628
0.27031
0.281408
0.292956
0.304983
0.317523
0.330609
0.344274
0.358555
0.373483
0.38909
0.405414
0.422491
0.440362
0.459065
0.47864
0.499131
0.52058
0.543033
0.566543
0.591134
0.616827
0.643674
0.67172
0.701008
0.731581
0.763478
0.796737
0.831395
0.867486
0.90504
0.944087
0.984651
1.02675
1.07041
1.11565
1.16246
1.21087
1.26086
1.31243
1.36555
1.42021
1.47639
1.53406
1.5932
1.65378
1.71575
1.77908
1.84372
1.90961
1.97671
2.04495
2.11428
2.18462
2.25592
2.3281
2.40108
2.47479
2.54915
2.62409
2.69952
2.77536
2.85152
2.92792
3.00447
3.08109
3.15771
3.23426
3.31066
3.3869
3.4628
3.53816
3.61291
3.68698
3.76028
3.83274
3.90429
3.97486
4.04437
4.11276
4.17996
4.24588
4.31047
4.37366
4.43536
4.49552
4.55406
4.61091
4.66601
4.7193
4.77071
4.8202
4.86771
4.91318
4.95656
4.99782
5.03689
5.07375
5.10836
5.14067
5.17066
5.1983
5.22357
5.24645
5.26692
5.28497
5.3006
5.31379
5.32457
5.33292
5.33885
5.34239
5.34354
5.34233
5.33879
5.33293
5.3248
5.31442
5.30184
5.2871
5.27024
5.25131
5.23036
5.20745
5.18263
5.15596
5.12749
5.0973
5.06543
5.03197
4.99697
4.96049
4.92262
4.88341
4.84294
4.80126
4.75847
4.71461
4.66976
4.624
4.57738
4.52997
4.48185
4.43307
4.38371
4.33382
4.28349
4.23277
4.18175
4.1305
4.0791
4.02765
3.97623
3.92496
3.87396
3.82335
3.77331
3.72398
3.67552
3.62809
3.5818
3.53647
3.49238
0.0419041
0.0838631
0.105682
0.121126
0.133661
0.14457
0.154488
0.163788
0.172718
0.181449
0.190112
0.198805
0.207605
0.216576
0.225772
0.23524
0.245023
0.255159
0.265688
0.276648
0.288077
0.300014
0.312495
0.325567
0.339275
0.353674
0.368807
0.384691
0.401384
0.418941
0.437415
0.456858
0.477324
0.498866
0.521537
0.545392
0.570481
0.596847
0.624532
0.653583
0.684043
0.715954
0.749354
0.784278
0.820755
0.858812
0.898469
0.939743
0.982646
1.02719
1.07336
1.12118
1.17062
1.22168
1.27434
1.32858
1.38437
1.44167
1.50046
1.56068
1.6223
1.68527
1.74955
1.8151
1.88184
1.94974
2.01873
2.08875
2.15973
2.23162
2.30435
2.37784
2.45203
2.52685
2.60221
2.67805
2.75429
2.83085
2.90765
2.98463