/*--------------------------------*- C++ -*----------------------------------*\
  =========                 |
  \\      /  F ield         | OpenFOAM: The Open Source CFD Toolbox
   \\    /   O peration     | Website:  https://openfoam.org
    \\  /    A nd           | Version:  12
     \\/     M anipulation  |
\*---------------------------------------------------------------------------*/
FoamFile
{
    format      ascii;
    class       volScalarField;
    location    "0.13";
    object      nut;
}
// * * * * * * * * * * * * * * * * * * * * * * * * * * * * * * * * * * * * * //

dimensions      [0 2 -1 0 0 0 0];

internalField   nonuniform List<scalar> 
12225
(
4.04768e-05
3.83178e-05
3.62504e-05
3.44199e-05
3.2952e-05
3.18978e-05
3.12565e-05
3.09943e-05
3.1059e-05
3.13915e-05
3.19332e-05
3.26303e-05
3.34364e-05
3.43132e-05
3.52317e-05
3.61673e-05
3.71266e-05
3.85175e-05
0.000281048
0.000209265
0.000176266
0.000157438
0.00014627
0.000139686
0.000135792
0.000133429
0.000131914
0.000130857
0.000130043
0.000129356
0.000128739
0.000128161
0.000127623
0.00012708
0.000126691
0.000125715
0.000556047
0.000419906
0.000349812
0.000304732
0.000272443
0.000247977
0.000228759
0.000213293
0.000200662
0.000190259
0.000181642
0.000174471
0.000168479
0.000163442
0.000159187
0.000155525
0.000152372
0.000149273
0.000740307
0.00062582
0.000544113
0.000484994
0.000439764
0.000403642
0.00037383
0.00034859
0.000326836
0.000307869
0.000291215
0.000276528
0.000263537
0.000252012
0.000241755
0.000232546
0.000224226
0.0002165
0.000817069
0.00075914
0.000700543
0.000648573
0.00060389
0.000565574
0.00053246
0.000503496
0.000477856
0.000454932
0.000434276
0.000415555
0.000398509
0.000382926
0.000368625
0.000355417
0.000343154
0.000331733
0.0008421
0.000819687
0.000789923
0.000757603
0.000725548
0.000695155
0.000666954
0.000641001
0.000617154
0.000595211
0.000574969
0.000556239
0.000538857
0.000522676
0.000507562
0.000493383
0.000480036
0.000467563
0.000849261
0.000841808
0.000829741
0.000814186
0.000796477
0.000777755
0.000758841
0.000740244
0.000722252
0.000705012
0.000688583
0.000672973
0.00065816
0.000644106
0.000630761
0.000618071
0.000605992
0.000594651
0.00085112
0.000848747
0.00084448
0.000838235
0.000830244
0.000820892
0.000810593
0.000799714
0.000788543
0.000777297
0.000766132
0.000755155
0.000744433
0.000734009
0.000723906
0.000714131
0.000704698
0.000695759
0.00085156
0.000850665
0.00084917
0.000846886
0.00084374
0.000839757
0.000835031
0.000829689
0.000823868
0.000817695
0.000811285
0.00080473
0.000798109
0.00079148
0.00078489
0.000778375
0.000771973
0.000765819
0.000851652
0.000851133
0.000850468
0.000849564
0.000848346
0.000846771
0.000844824
0.000842517
0.000839879
0.000836952
0.000833781
0.000830412
0.000826888
0.000823249
0.000819531
0.000815764
0.000811982
0.000808283
0.000851668
0.00085123
0.000850778
0.000850278
0.000849697
0.000849006
0.000848181
0.000847209
0.000846085
0.00084481
0.000843394
0.000841846
0.000840184
0.000838421
0.000836574
0.000834659
0.000832697
0.000830744
0.000851669
0.000851245
0.000850835
0.000850429
0.000850013
0.000849575
0.0008491
0.000848578
0.000848001
0.000847362
0.000846661
0.000845897
0.000845072
0.00084419
0.000843257
0.000842279
0.000841266
0.000840251
0.000851668
0.000851244
0.000850843
0.000850459
0.000850088
0.000849725
0.000849365
0.000849
0.000848627
0.000848241
0.000847839
0.000847417
0.000846976
0.000846514
0.000846031
0.00084553
0.000845014
0.000844502
0.000851667
0.000851242
0.000850839
0.000850458
0.000850096
0.000849751
0.00084942
0.000849101
0.000848792
0.00084849
0.000848193
0.0008479
0.000847609
0.000847318
0.000847028
0.000846738
0.00084645
0.000846175
0.000851666
0.000851239
0.000850835
0.000850452
0.00085009
0.000849746
0.000849419
0.000849108
0.000848811
0.000848527
0.000848256
0.000847995
0.000847744
0.000847503
0.00084727
0.000847045
0.00084683
0.000846635
0.000851665
0.000851236
0.000850831
0.000850447
0.000850083
0.000849737
0.000849409
0.000849098
0.000848801
0.000848519
0.00084825
0.000847994
0.000847749
0.000847516
0.000847294
0.000847081
0.000846881
0.000846702
0.000851664
0.000851235
0.000850828
0.000850442
0.000850077
0.00084973
0.000849401
0.000849088
0.00084879
0.000848507
0.000848237
0.00084798
0.000847735
0.000847502
0.000847279
0.000847067
0.000846866
0.000846689
0.000851663
0.000851234
0.000850826
0.00085044
0.000850073
0.000849725
0.000849395
0.000849081
0.000848782
0.000848498
0.000848227
0.000847969
0.000847723
0.000847488
0.000847264
0.000847051
0.000846849
0.000846671
0.000851663
0.000851233
0.000850825
0.000850439
0.000850072
0.000849724
0.000849393
0.000849079
0.000848779
0.000848494
0.000848223
0.000847964
0.000847717
0.000847482
0.000847257
0.000847042
0.00084684
0.00084666
0.000851664
0.000851234
0.000850826
0.00085044
0.000850074
0.000849726
0.000849396
0.000849082
0.000848783
0.000848498
0.000848226
0.000847966
0.000847719
0.000847482
0.000847255
0.000847039
0.000846834
0.000846651
0.000851664
0.000851235
0.000850829
0.000850443
0.000850078
0.00084973
0.000849399
0.000849083
0.00084878
0.00084849
0.00084821
0.000847941
0.000847681
0.000847429
0.000847184
0.000846947
0.000846718
0.000846509
0.000851665
0.000851237
0.00085083
0.000850442
0.000850069
0.000849706
0.000849351
0.000848999
0.000848648
0.000848294
0.000847936
0.000847571
0.0008472
0.000846821
0.000846435
0.000846042
0.000845645
0.000845256
0.000851664
0.000851228
0.000850794
0.000850348
0.00084987
0.000849345
0.000848762
0.000848112
0.000847389
0.000846595
0.00084573
0.000844799
0.000843809
0.000842765
0.000841676
0.000840549
0.000839394
0.000838233
0.000851634
0.000851073
0.000850343
0.000849364
0.00084808
0.000846468
0.000844532
0.000842294
0.000839788
0.000837055
0.000834139
0.00083108
0.000827916
0.000824681
0.000821403
0.000818109
0.000814823
0.00081159
0.000851287
0.000849596
0.000846721
0.000842578
0.000837263
0.000830981
0.000823974
0.000816475
0.000808679
0.000800744
0.000792792
0.000784912
0.00077717
0.00076961
0.000762263
0.000755147
0.000748279
0.00074171
0.000848318
0.000839426
0.000826161
0.000810018
0.000792359
0.000774228
0.000756323
0.000739046
0.000722597
0.000707054
0.00069243
0.000678697
0.000665809
0.000653711
0.000642346
0.000631661
0.000621608
0.000612195
0.000828548
0.000788843
0.000746034
0.000705702
0.000669463
0.0006375
0.000609444
0.000584737
0.000562842
0.000543303
0.000525751
0.000509887
0.00049547
0.000482305
0.000470233
0.000459124
0.000448872
0.000439428
0.000730726
0.000627346
0.000554507
0.000501059
0.000460317
0.000428346
0.000402631
0.000381466
0.000363707
0.000348577
0.000335532
0.000324174
0.000314203
0.000305392
0.000297561
0.000290564
0.000284282
0.000278633
0.000439249
0.000338471
0.000287935
0.000256869
0.000236362
0.00022251
0.000212993
0.000206312
0.000201506
0.000197959
0.000195272
0.000193178
0.0001915
0.000190117
0.000188947
0.000187933
0.000187037
0.00018621
7.16431e-05
6.90587e-05
6.65522e-05
6.41646e-05
6.19883e-05
6.00783e-05
5.84563e-05
5.71211e-05
5.60568e-05
5.52397e-05
5.46428e-05
5.42384e-05
5.39995e-05
5.39013e-05
5.39213e-05
5.40393e-05
5.4238e-05
5.4501e-05
6.46277e-07
1.33555e-05
2.08779e-05
2.75041e-05
3.41492e-05
4.15822e-05
4.99038e-05
5.93201e-05
6.99988e-05
8.12375e-05
9.25789e-05
0.000103816
0.000114756
0.000125246
0.000135178
0.000144475
0.00015309
0.000160991
0.000168155
0.000174563
0.000180203
0.000185079
0.000189211
0.000192615
0.00019521
0.000196665
0.000196509
0.000196107
0.000197746
0.000199073
0.000199056
0.000199957
0.000201378
0.00020211
0.000200068
0.00020091
0.000201839
4.70548e-05
4.72307e-05
4.81565e-05
4.9128e-05
5.01138e-05
5.11064e-05
5.21033e-05
5.31028e-05
5.41039e-05
5.51062e-05
5.61093e-05
5.7113e-05
5.81172e-05
5.91217e-05
6.01264e-05
6.11311e-05
6.21357e-05
6.31399e-05
6.41435e-05
6.51463e-05
6.61478e-05
6.71479e-05
6.8146e-05
6.9142e-05
7.01352e-05
7.11254e-05
7.2112e-05
7.30946e-05
7.40728e-05
7.5046e-05
7.60138e-05
7.69756e-05
7.7931e-05
7.88795e-05
7.98205e-05
8.07536e-05
8.16782e-05
8.25939e-05
8.35002e-05
8.43965e-05
8.52825e-05
8.61575e-05
8.70213e-05
8.78732e-05
8.87129e-05
8.954e-05
9.03539e-05
9.11544e-05
9.19409e-05
9.2713e-05
9.34703e-05
9.42124e-05
9.49389e-05
9.56493e-05
9.63433e-05
9.70205e-05
9.76805e-05
9.83232e-05
9.89487e-05
9.95576e-05
0.000100151
0.000100733
0.000101299
0.000101842
0.000102365
0.000102866
0.000103347
0.000103805
0.000104242
0.000104656
0.000105048
0.000105417
0.000105762
0.000106083
0.00010638
0.000106653
0.000106902
0.000107125
0.000107324
0.000107497
0.000107645
0.000107768
0.000107865
0.000107936
0.000107982
0.000108001
0.000107996
0.000107964
0.000107907
0.000107824
0.000107716
0.000107583
0.000107424
0.00010724
0.000107032
0.000106799
0.000106542
0.000106261
0.000105956
0.000105628
0.000105278
0.000104904
0.000104509
0.000104092
0.000103654
0.000103196
0.000102717
0.000102219
0.000101702
0.000101167
0.000100614
0.000100044
9.94574e-05
9.8855e-05
9.82376e-05
9.76057e-05
9.69601e-05
9.63016e-05
9.56307e-05
9.49481e-05
9.42551e-05
9.35515e-05
9.28395e-05
9.21187e-05
9.13903e-05
9.06602e-05
8.99473e-05
8.94463e-05
8.90372e-05
8.86301e-05
8.82205e-05
8.7808e-05
8.7393e-05
8.69757e-05
8.65558e-05
8.61327e-05
8.57052e-05
8.52699e-05
8.48202e-05
8.43403e-05
8.37895e-05
8.30622e-05
8.17537e-05
1.85881e-06
3.47018e-05
7.26903e-05
0.000101066
0.000122062
0.000137675
0.000150533
0.000162403
0.000174187
0.000186205
0.000198431
0.000210685
0.000222752
0.00023443
0.000245549
0.000255972
0.000265583
0.000274275
0.000281943
0.000288485
0.000293807
0.000297832
0.000300484
0.000301572
0.000300533
0.000296169
0.000287281
0.00027632
0.000275623
0.000276572
0.000269385
0.000267729
0.000267513
0.000266943
0.000263911
0.000264888
0.000266731
0.000263022
0.000268453
0.00027473
0.000280574
0.000286764
0.000293215
0.000299864
0.000306665
0.000313589
0.00032062
0.000327748
0.000334969
0.00034228
0.000349682
0.000357174
0.000364757
0.000372433
0.000380203
0.000388068
0.000396027
0.000404082
0.000412232
0.000420477
0.000428816
0.000437249
0.000445772
0.000454385
0.000463084
0.000471868
0.000480732
0.000489673
0.000498688
0.000507772
0.00051692
0.000526129
0.000535392
0.000544705
0.000554063
0.000563459
0.000572889
0.000582347
0.000591827
0.000601324
0.000610831
0.000620344
0.000629858
0.000639366
0.000648864
0.000658347
0.00066781
0.000677249
0.00068666
0.000696037
0.000705375
0.00071467
0.000723913
0.000733095
0.000742199
0.000751202
0.000760062
0.000768723
0.000776874
0.000784606
0.000792193
0.000799665
0.000807019
0.000814251
0.000821356
0.000828327
0.00083516
0.000841847
0.000848384
0.000854766
0.000860986
0.000867039
0.000872921
0.000878627
0.000884152
0.000889491
0.00089464
0.000899596
0.000904353
0.000908909
0.000913261
0.000917404
0.000921337
0.000925056
0.00092856
0.000931845
0.00093491
0.000937754
0.000940374
0.000942771
0.000944942
0.000946888
0.000948608
0.000950103
0.000951373
0.000952418
0.000953239
0.000953839
0.000954217
0.000954377
0.00095432
0.00095405
0.000953568
0.000952877
0.000951983
0.000950887
0.000949594
0.000948109
0.000946435
0.000944578
0.000942543
0.000940334
0.000937959
0.000935422
0.00093273
0.000929891
0.000926903
0.00092379
0.00092054
0.000917176
0.000913707
0.000910104
0.000906293
0.000901923
0.000895565
0.000888218
0.000880586
0.000872828
0.000864992
0.000857099
0.00084916
0.000841185
0.000833177
0.000825137
0.000817055
0.000808911
0.000800628
0.000792099
0.000782274
0.000762207
3.44197e-06
5.31029e-05
0.000110102
0.000153484
0.000185231
0.000208922
0.00022746
0.000243021
0.000257076
0.000270484
0.00028364
0.000296638
0.000309412
0.000321826
0.000333733
0.000344993
0.000355486
0.000365112
0.000373793
0.000381481
0.000388166
0.000393891
0.000398744
0.000402814
0.000406122
0.00040862
0.000410465
0.000412667
0.000417012
0.000422191
0.000427121
0.000433578
0.000441055
0.000449183
0.000457716
0.000467378
0.000478017
0.000489172
0.000501639
0.000514917
0.000528403
0.000542118
0.000556061
0.000570222
0.000584585
0.000599141
0.000613884
0.000628809
0.000643916
0.000659206
0.000674679
0.000690338
0.000706185
0.000722221
0.000738447
0.000754865
0.000771473
0.000788271
0.000805257
0.000822429
0.000839784
0.000857318
0.000875025
0.0008929
0.000910936
0.000929127
0.000947464
0.000965938
0.000984542
0.00100326
0.00102209
0.00104102
0.00106004
0.00107912
0.00109828
0.00111748
0.00113672
0.00115599
0.00117527
0.00119455
0.00121383
0.00123308
0.00125229
0.00127146
0.00129057
0.00130961
0.00132857
0.00134743
0.00136619
0.00138483
0.00140333
0.00142168
0.00143985
0.00145783
0.00147557
0.00149304
0.00151019
0.00152695
0.00154308
0.00155883
0.00157431
0.00158955
0.00160453
0.00161926
0.00163371
0.00164788
0.00166175
0.00167531
0.00168856
0.00170147
0.00171405
0.00172627
0.00173814
0.00174963
0.00176073
0.00177145
0.00178177
0.00179168
0.00180118
0.00181025
0.00181889
0.00182709
0.00183486
0.00184218
0.00184904
0.00185545
0.0018614
0.00186688
0.0018719
0.00187645
0.00188053
0.00188414
0.00188727
0.00188994
0.00189214
0.00189387
0.00189513
0.00189593
0.00189627
0.00189616
0.00189559
0.00189458
0.00189313
0.00189124
0.00188893
0.0018862
0.00188306
0.00187952
0.00187559
0.00187128
0.00186659
0.00186155
0.00185616
0.00185043
0.00184439
0.00183804
0.00183138
0.00182446
0.00181729
0.00180986
0.0018022
0.00179426
0.00178589
0.00177671
0.00176574
0.00175359
0.00174087
0.00172784
0.00171459
0.00170119
0.00168767
0.00167403
0.0016603
0.00164648
0.00163253
0.00161838
0.00160384
0.00158841
0.00157012
0.0015401
5.32379e-06
6.73212e-05
0.000137597
0.000191898
0.00023258
0.00026329
0.000287141
0.000306564
0.000323328
0.000338611
0.000353112
0.000367173
0.000380908
0.000394307
0.000407299
0.000419803
0.000431746
0.000443081
0.00045379
0.000463896
0.000473466
0.000482615
0.000491501
0.000500294
0.000509156
0.000518236
0.000527722
0.000537915
0.000549111
0.000561186
0.000574027
0.000587811
0.000602453
0.000617863
0.000633989
0.0006509
0.000668578
0.000686933
0.000705913
0.00072536
0.00074509
0.000765052
0.00078524
0.000805655
0.000826301
0.00084718
0.000868296
0.000889652
0.000911252
0.0009331
0.000955199
0.000977552
0.00100016
0.00102303
0.00104616
0.00106954
0.00109318
0.00111708
0.00114123
0.00116563
0.00119027
0.00121514
0.00124024
0.00126555
0.00129107
0.00131679
0.00134269
0.00136876
0.00139499
0.00142136
0.00144785
0.00147446
0.00150116
0.00152794
0.00155477
0.00158165
0.00160856
0.00163547
0.00166237
0.00168924
0.00171606
0.00174282
0.00176949
0.00179607
0.00182253
0.00184885
0.00187502
0.00190102
0.00192684
0.00195244
0.00197782
0.00200294
0.00202779
0.00205233
0.00207653
0.00210038
0.00212383
0.00214667
0.002169
0.00219091
0.00221247
0.00223368
0.00225454
0.00227503
0.00229513
0.00231485
0.00233414
0.00235301
0.00237144
0.0023894
0.0024069
0.0024239
0.00244041
0.0024564
0.00247186
0.00248678
0.00250115
0.00251495
0.00252819
0.00254083
0.00255289
0.00256434
0.00257518
0.00258541
0.00259501
0.00260399
0.00261232
0.00262002
0.00262708
0.00263348
0.00263924
0.00264435
0.0026488
0.00265261
0.00265577
0.00265827
0.00266013
0.00266135
0.00266193
0.00266188
0.0026612
0.0026599
0.00265799
0.00265547
0.00265236
0.00264867
0.0026444
0.00263957
0.00263419
0.00262828
0.00262184
0.0026149
0.00260747
0.00259956
0.0025912
0.00258241
0.00257321
0.00256361
0.00255365
0.00254331
0.00253261
0.00252151
0.00250988
0.00249744
0.00248369
0.00246887
0.00245338
0.00243744
0.00242119
0.00240469
0.00238798
0.00237111
0.00235408
0.00233691
0.00231956
0.00230194
0.00228379
0.00226443
0.00224173
0.00220918
7.18549e-06
7.85905e-05
0.000159093
0.000222695
0.000271063
0.000307926
0.000336591
0.000359689
0.000379202
0.000396537
0.000412615
0.000427984
0.000442933
0.000457581
0.00047196
0.000486061
0.000499873
0.000513398
0.000526666
0.000539739
0.000552713
0.000565714
0.000578893
0.000592406
0.000606396
0.000620991
0.0006363
0.000652423
0.000669425
0.000687292
0.000705991
0.000725508
0.000745792
0.000766791
0.000788464
0.000810783
0.000833709
0.000857174
0.000881102
0.000905402
0.000929999
0.000954856
0.000979963
0.00100532
0.00103094
0.00105683
0.00108299
0.00110942
0.00113615
0.00116316
0.00119047
0.00121808
0.00124599
0.0012742
0.00130272
0.00133153
0.00136064
0.00139005
0.00141974
0.00144971
0.00147996
0.00151047
0.00154123
0.00157223
0.00160346
0.0016349
0.00166654
0.00169836
0.00173034
0.00176246
0.00179471
0.00182706
0.00185949
0.00189199
0.00192453
0.0019571
0.00198966
0.00202219
0.00205468
0.0020871
0.00211944
0.00215166
0.00218375
0.00221568
0.00224745
0.00227901
0.00231037
0.00234148
0.00237234
0.00240292
0.0024332
0.00246316
0.00249276
0.00252199
0.00255082
0.00257923
0.00260717
0.00263449
0.0026613
0.00268767
0.00271363
0.00273916
0.00276428
0.00278896
0.00281318
0.00283694
0.0028602
0.00288296
0.00290519
0.00292688
0.00294801
0.00296857
0.00298854
0.0030079
0.00302664
0.00304474
0.0030622
0.00307899
0.0030951
0.00311053
0.00312526
0.00313928
0.00315258
0.00316516
0.003177
0.0031881
0.00319845
0.00320804
0.00321687
0.00322494
0.00323224
0.00323877
0.00324453
0.00324952
0.00325373
0.00325718
0.00325986
0.00326177
0.00326293
0.00326333
0.00326299
0.0032619
0.00326008
0.00325753
0.00325428
0.00325032
0.00324567
0.00324034
0.00323435
0.00322771
0.00322044
0.00321256
0.00320408
0.00319502
0.00318541
0.00317527
0.00316462
0.00315347
0.00314186
0.00312978
0.00311725
0.00310423
0.00309065
0.00307632
0.00306099
0.00304477
0.00302786
0.00301044
0.00299263
0.0029745
0.0029561
0.0029375
0.0029187
0.00289973
0.00288057
0.00286114
0.00284119
0.00282005
0.00279588
0.00276443
8.91075e-06
8.76008e-05
0.00017668
0.000248168
0.000303239
0.000345631
0.000378763
0.000405406
0.000427697
0.00044721
0.000465044
0.00048192
0.000498278
0.000514365
0.00053031
0.000546182
0.000562022
0.000577872
0.000593787
0.00060984
0.000626125
0.000642751
0.000659834
0.000677486
0.000695807
0.000714875
0.000734745
0.000755446
0.000776986
0.000799342
0.00082248
0.000846356
0.000870924
0.000896135
0.000921942
0.000948303
0.00097517
0.00100249
0.00103021
0.00105828
0.00108665
0.00111531
0.00114424
0.00117344
0.00120293
0.00123271
0.00126279
0.00129317
0.00132386
0.00135486
0.00138619
0.00141784
0.00144982
0.00148212
0.00151474
0.00154768
0.00158095
0.00161452
0.00164839
0.00168256
0.00171702
0.00175174
0.00178673
0.00182196
0.00185742
0.0018931
0.00192897
0.00196501
0.00200121
0.00203754
0.00207398
0.00211052
0.00214712
0.00218376
0.00222042
0.00225707
0.0022937
0.00233027
0.00236676
0.00240315
0.00243941
0.00247551
0.00251144
0.00254717
0.00258268
0.00261795
0.00265295
0.00268767
0.00272208
0.00275616
0.00278989
0.00282324
0.00285621
0.00288876
0.00292087
0.00295252
0.00298362
0.00301415
0.00304417
0.00307373
0.00310284
0.00313149
0.00315969
0.0031874
0.00321462
0.00324132
0.00326749
0.00329311
0.00331816
0.00334262
0.00336647
0.0033897
0.00341228
0.00343421
0.00345546
0.00347601
0.00349586
0.00351499
0.00353337
0.00355101
0.00356788
0.00358398
0.0035993
0.00361382
0.00362754
0.00364044
0.00365252
0.00366378
0.0036742
0.00368378
0.00369251
0.00370041
0.00370745
0.00371365
0.00371899
0.00372349
0.00372713
0.00372993
0.0037319
0.00373303
0.00373332
0.00373279
0.00373145
0.00372931
0.00372637
0.00372264
0.00371814
0.00371289
0.00370689
0.00370015
0.00369272
0.00368459
0.00367577
0.00366631
0.00365621
0.00364551
0.00363422
0.00362236
0.00360996
0.00359702
0.00358356
0.00356957
0.00355498
0.00353971
0.00352363
0.00350678
0.00348927
0.00347122
0.00345274
0.00343389
0.00341475
0.00339535
0.00337574
0.00335596
0.00333602
0.00331585
0.00329526
0.00327369
0.00324973
0.00322069
1.0348e-05
9.50175e-05
0.000191104
0.000269251
0.000330195
0.000377606
0.000414938
0.00044504
0.000470146
0.000491955
0.000511699
0.000530239
0.000548145
0.000565777
0.000583357
0.000601019
0.000618853
0.000636929
0.000655313
0.000674078
0.000693299
0.000713059
0.000733437
0.000754504
0.000776319
0.00079892
0.000822327
0.000846539
0.00087154
0.000897297
0.000923771
0.000950916
0.000978685
0.00100703
0.00103591
0.00106528
0.00109509
0.00112531
0.0011559
0.00118683
0.00121807
0.0012496
0.00128143
0.00131355
0.00134596
0.00137868
0.00141171
0.00144505
0.00147872
0.00151271
0.00154703
0.00158168
0.00161667
0.00165199
0.00168764
0.00172362
0.00175992
0.00179653
0.00183345
0.00187066
0.00190816
0.00194592
0.00198395
0.00202221
0.00206069
0.00209939
0.00213826
0.0021773
0.00221649
0.0022558
0.0022952
0.00233468
0.00237421
0.00241377
0.00245332
0.00249285
0.00253232
0.00257172
0.00261101
0.00265017
0.00268917
0.00272799
0.0027666
0.00280498
0.00284311
0.00288096
0.00291852
0.00295575
0.00299265
0.00302918
0.00306533
0.00310109
0.00313642
0.00317132
0.00320576
0.00323973
0.0032731
0.00330594
0.00333829
0.00337017
0.00340159
0.00343255
0.00346302
0.003493
0.00352246
0.00355139
0.00357976
0.00360756
0.00363477
0.00366137
0.00368733
0.00371265
0.00373729
0.00376125
0.0037845
0.00380703
0.00382882
0.00384985
0.0038701
0.00388958
0.00390825
0.00392611
0.00394314
0.00395934
0.00397469
0.00398919
0.00400283
0.00401559
0.00402747
0.00403846
0.00404856
0.00405777
0.00406608
0.0040735
0.00408001
0.00408561
0.00409032
0.00409413
0.00409705
0.00409908
0.00410022
0.00410048
0.00409987
0.00409841
0.00409609
0.00409292
0.00408893
0.00408413
0.00407852
0.00407212
0.00406495
0.00405703
0.00404837
0.00403901
0.00402896
0.00401824
0.00400687
0.00399489
0.0039823
0.00396913
0.00395538
0.00394105
0.00392612
0.00391054
0.00389426
0.00387729
0.00385969
0.00384156
0.00382296
0.00380397
0.00378465
0.00376506
0.00374526
0.00372529
0.00370521
0.00368498
0.00366447
0.00364326
0.00362032
0.00359392
1.15257e-05
0.000100909
0.000202636
0.000286385
0.000352473
0.000404443
0.000445729
0.000479198
0.00050714
0.000531329
0.000553098
0.000573414
0.000592951
0.000612168
0.000631363
0.000650734
0.000670409
0.000690481
0.000711024
0.000732102
0.000753775
0.000776098
0.00079912
0.00082288
0.000847405
0.000872707
0.000898783
0.000925618
0.000953184
0.000981444
0.00101036
0.00103988
0.00106997
0.00110057
0.00113166
0.0011632
0.00119514
0.00122745
0.00126012
0.00129312
0.00132642
0.00136003
0.00139393
0.00142813
0.00146264
0.00149744
0.00153257
0.001568
0.00160376
0.00163985
0.00167627
0.00171301
0.00175009
0.0017875
0.00182523
0.00186329
0.00190166
0.00194034
0.00197932
0.00201859
0.00205814
0.00209795
0.00213802
0.00217831
0.00221882
0.00225953
0.00230042
0.00234147
0.00238265
0.00242394
0.00246533
0.00250679
0.00254828
0.0025898
0.0026313
0.00267277
0.00271417
0.00275549
0.00279668
0.00283774
0.00287862
0.00291931
0.00295977
0.00299999
0.00303993
0.00307959
0.00311892
0.00315792
0.00319657
0.00323484
0.00327272
0.00331018
0.00334722
0.00338381
0.00341994
0.00345556
0.00349063
0.00352521
0.00355933
0.00359298
0.00362618
0.00365891
0.00369117
0.00372292
0.00375416
0.00378486
0.00381501
0.00384457
0.00387354
0.00390188
0.00392959
0.00395664
0.003983
0.00400867
0.00403361
0.00405782
0.00408128
0.00410395
0.00412584
0.00414692
0.00416718
0.0041866
0.00420518
0.0042229
0.00423974
0.00425571
0.00427079
0.00428497
0.00429823
0.00431057
0.00432199
0.00433249
0.00434207
0.00435071
0.00435842
0.00436519
0.00437101
0.00437591
0.00437988
0.00438294
0.00438506
0.00438625
0.00438654
0.00438595
0.00438446
0.00438207
0.00437881
0.0043747
0.00436975
0.00436396
0.00435736
0.00434997
0.00434181
0.0043329
0.00432326
0.0043129
0.00430186
0.00429015
0.00427779
0.00426481
0.00425121
0.00423701
0.00422218
0.00420673
0.00419062
0.00417387
0.00415653
0.00413864
0.00412028
0.00410151
0.00408239
0.004063
0.0040434
0.00402365
0.00400383
0.00398394
0.00396393
0.0039435
0.00392188
0.00389793
1.24515e-05
0.000105358
0.000211486
0.000299877
0.000370431
0.000426515
0.00047149
0.000508201
0.000538951
0.000565555
0.000589409
0.000611556
0.000632754
0.000653536
0.000674269
0.000695202
0.000716499
0.000738273
0.000760605
0.000783553
0.000807164
0.000831474
0.000856508
0.000882284
0.000908806
0.000936069
0.000964059
0.00099275
0.00102211
0.0010521
0.00108269
0.00111382
0.00114547
0.00117758
0.00121014
0.0012431
0.00127643
0.00131012
0.00134413
0.00137846
0.0014131
0.00144803
0.00148325
0.00151877
0.00155458
0.0015907
0.00162712
0.00166385
0.00170089
0.00173826
0.00177594
0.00181395
0.00185228
0.00189093
0.0019299
0.00196918
0.00200877
0.00204866
0.00208885
0.00212932
0.00217006
0.00221106
0.00225231
0.00229379
0.00233549
0.00237739
0.00241947
0.0024617
0.00250408
0.00254658
0.00258917
0.00263184
0.00267455
0.00271729
0.00276003
0.00280274
0.00284539
0.00288796
0.00293041
0.00297273
0.00301488
0.00305684
0.00309858
0.00314007
0.00318128
0.0032222
0.00326281
0.00330307
0.00334297
0.0033825
0.00342164
0.00346037
0.00349867
0.00353653
0.00357393
0.00361083
0.00364725
0.00368323
0.00371877
0.00375387
0.00378854
0.00382275
0.0038565
0.00388976
0.00392251
0.00395473
0.0039864
0.00401749
0.00404799
0.00407787
0.00410711
0.00413569
0.00416359
0.00419079
0.00421726
0.004243
0.00426797
0.00429215
0.00431554
0.0043381
0.00435984
0.00438072
0.00440074
0.0044199
0.00443816
0.00445554
0.00447201
0.00448755
0.00450216
0.00451583
0.00452856
0.00454035
0.00455119
0.00456109
0.00457002
0.00457799
0.00458499
0.00459103
0.00459614
0.00460031
0.0046035
0.00460574
0.00460704
0.00460743
0.00460689
0.00460544
0.00460308
0.00459985
0.00459574
0.00459078
0.00458498
0.00457835
0.00457092
0.00456271
0.00455373
0.00454401
0.00453357
0.00452243
0.0045106
0.00449811
0.00448498
0.00447121
0.00445681
0.00444178
0.00442612
0.00440984
0.00439298
0.00437558
0.0043577
0.00433939
0.00432074
0.00430179
0.00428264
0.00426338
0.00424407
0.00422478
0.00420549
0.00418601
0.00416577
0.00414393
1.31343e-05
0.000108497
0.00021789
0.000310023
0.000384384
0.000444126
0.000492491
0.000532267
0.000565736
0.000594724
0.000620658
0.000644632
0.000667461
0.000689738
0.000711883
0.000734187
0.000756849
0.00078
0.000803729
0.000828094
0.000853134
0.000878872
0.000905319
0.000932478
0.000960342
0.000988893
0.00101811
0.00104797
0.00107842
0.00110945
0.001141
0.00117305
0.00120556
0.00123849
0.00127181
0.0013055
0.00133953
0.00137388
0.00140854
0.0014435
0.00147874
0.00151427
0.00155007
0.00158616
0.00162253
0.00165919
0.00169614
0.00173339
0.00177094
0.0018088
0.00184697
0.00188545
0.00192424
0.00196334
0.00200276
0.00204248
0.00208251
0.00212284
0.00216346
0.00220436
0.00224555
0.002287
0.0023287
0.00237065
0.00241283
0.00245522
0.00249781
0.00254058
0.00258351
0.00262658
0.00266978
0.00271307
0.00275644
0.00279986
0.0028433
0.00288674
0.00293015
0.00297351
0.00301678
0.00305993
0.00310294
0.00314577
0.0031884
0.00323079
0.00327293
0.00331478
0.00335632
0.00339754
0.0034384
0.0034789
0.00351901
0.00355872
0.00359802
0.00363689
0.00367533
0.00371334
0.00375094
0.00378814
0.00382494
0.00386134
0.00389732
0.00393287
0.00396798
0.00400261
0.00403675
0.00407037
0.00410345
0.00413596
0.00416789
0.00419921
0.00422989
0.00425992
0.00428926
0.00431791
0.00434584
0.00437303
0.00439945
0.00442508
0.00444991
0.00447391
0.00449706
0.00451937
0.0045408
0.00456135
0.00458101
0.00459977
0.00461762
0.00463452
0.00465048
0.00466548
0.00467953
0.00469262
0.00470475
0.00471594
0.00472613
0.00473534
0.00474356
0.00475081
0.00475709
0.0047624
0.00476675
0.00477012
0.00477255
0.00477402
0.00477456
0.00477417
0.00477286
0.00477065
0.00476755
0.00476357
0.00475873
0.00475304
0.00474653
0.00473921
0.0047311
0.00472221
0.00471258
0.00470222
0.00469115
0.00467939
0.00466696
0.00465386
0.00464012
0.00462575
0.00461074
0.00459513
0.00457893
0.0045622
0.00454497
0.00452732
0.00450929
0.00449098
0.00447247
0.00445385
0.00443522
0.00441667
0.00439822
0.00437975
0.0043608
0.00434077
1.35906e-05
0.000110475
0.000222104
0.000317128
0.00039465
0.00045757
0.000508982
0.000551586
0.000587616
0.000618881
0.000646818
0.000672545
0.000696913
0.000720559
0.000743943
0.000767392
0.000791131
0.000815312
0.000840033
0.000865358
0.000891321
0.000917942
0.000945223
0.000973158
0.00100173
0.00103093
0.00106072
0.00109107
0.00112196
0.00115334
0.00118518
0.00121745
0.00125013
0.00128317
0.00131656
0.00135027
0.00138429
0.00141859
0.00145317
0.00148802
0.00152313
0.0015585
0.00159414
0.00163003
0.00166619
0.00170263
0.00173934
0.00177633
0.00181362
0.0018512
0.00188907
0.00192726
0.00196575
0.00200456
0.00204367
0.0020831
0.00212285
0.0021629
0.00220327
0.00224393
0.0022849
0.00232616
0.0023677
0.00240951
0.00245159
0.00249392
0.00253649
0.00257928
0.00262228
0.00266547
0.00270882
0.00275232
0.00279595
0.00283967
0.00288347
0.00292731
0.00297117
0.00301502
0.00305882
0.00310255
0.00314617
0.00318965
0.00323296
0.00327606
0.00331893
0.00336153
0.00340384
0.00344584
0.0034875
0.00352881
0.00356975
0.0036103
0.00365046
0.00369023
0.00372966
0.00376874
0.00380747
0.00384585
0.00388387
0.00392152
0.00395878
0.00399564
0.00403207
0.00406805
0.00410354
0.00413853
0.004173
0.00420691
0.00424024
0.00427297
0.00430507
0.00433652
0.0043673
0.00439738
0.00442674
0.00445536
0.00448323
0.0045103
0.00453655
0.00456198
0.00458655
0.00461027
0.00463311
0.00465506
0.00467612
0.00469627
0.00471552
0.0047338
0.00475112
0.00476747
0.00478286
0.00479727
0.00481072
0.0048232
0.00483468
0.00484517
0.00485467
0.00486319
0.00487072
0.00487728
0.00488285
0.00488745
0.00489109
0.00489376
0.00489549
0.00489627
0.00489613
0.00489506
0.00489309
0.00489023
0.0048865
0.0048819
0.00487646
0.00487019
0.00486311
0.00485524
0.00484659
0.0048372
0.00482707
0.00481623
0.00480468
0.00479246
0.00477957
0.00476603
0.00475186
0.00473707
0.0047217
0.00470578
0.00468937
0.0046725
0.00465526
0.00463773
0.00461998
0.00460214
0.00458431
0.00456658
0.00454902
0.00453156
0.00451381
0.00449529
1.38435e-05
0.00011145
0.000224395
0.000321512
0.000401548
0.00046714
0.000521205
0.000566331
0.000604684
0.000638037
0.000667813
0.000695137
0.00072088
0.000745702
0.000770094
0.00079441
0.000818898
0.000843728
0.00086901
0.000894815
0.000921179
0.000948122
0.000975644
0.00100374
0.00103239
0.00106156
0.00109125
0.00112141
0.00115202
0.00118304
0.00121446
0.00124623
0.00127833
0.00131074
0.00134344
0.00137641
0.00140963
0.00144311
0.00147682
0.00151077
0.00154495
0.00157936
0.00161401
0.00164891
0.00168405
0.00171945
0.00175512
0.00179106
0.00182729
0.00186382
0.00190065
0.00193779
0.00197526
0.00201305
0.00205118
0.00208965
0.00212846