/*--------------------------------*- C++ -*----------------------------------*\
  =========                 |
  \\      /  F ield         | OpenFOAM: The Open Source CFD Toolbox
   \\    /   O peration     | Website:  https://openfoam.org
    \\  /    A nd           | Version:  12
     \\/     M anipulation  |
\*---------------------------------------------------------------------------*/
FoamFile
{
    format      ascii;
    class       volScalarField;
    location    "0.13";
    object      p;
}
// * * * * * * * * * * * * * * * * * * * * * * * * * * * * * * * * * * * * * //

dimensions      [0 2 -2 0 0 0 0];

internalField   nonuniform List<scalar> 
12225
(
-1.14395
-3.42689
-4.58923
-4.8972
-5.0652
-5.22458
-5.34874
-5.43663
-5.50559
-5.56581
-5.61904
-5.66505
-5.70406
-5.73519
-5.75712
-5.75882
-5.74996
-5.63047
-4.61146
-5.31351
-5.40361
-5.26834
-5.22802
-5.29497
-5.37531
-5.44065
-5.49703
-5.54966
-5.59828
-5.64167
-5.67948
-5.71065
-5.73463
-5.74383
-5.75179
-5.72882
-4.81622
-4.71321
-4.86985
-4.99178
-5.09889
-5.22088
-5.32877
-5.41095
-5.47755
-5.53666
-5.58992
-5.63704
-5.67811
-5.71274
-5.74129
-5.76035
-5.78499
-5.81365
-4.67894
-4.60075
-4.87668
-5.05522
-5.14942
-5.24625
-5.34098
-5.41806
-5.48209
-5.5396
-5.59206
-5.63904
-5.68065
-5.71695
-5.74896
-5.77667
-5.81252
-5.86325
-4.68592
-4.70312
-4.94308
-5.09279
-5.16859
-5.253
-5.34224
-5.41786
-5.48129
-5.53838
-5.59076
-5.63823
-5.681
-5.71961
-5.75558
-5.79068
-5.83415
-5.89331
-4.74764
-4.79004
-4.9677
-5.09826
-5.17602
-5.25826
-5.34423
-5.41865
-5.48177
-5.53867
-5.59115
-5.63921
-5.68325
-5.72412
-5.76359
-5.80409
-5.85222
-5.91385
-4.80741
-4.84688
-4.98316
-5.1052
-5.18736
-5.26682
-5.34817
-5.42064
-5.48325
-5.53991
-5.59243
-5.64107
-5.6863
-5.72918
-5.7715
-5.81569
-5.86632
-5.92724
-4.86061
-4.89545
-5.00564
-5.1181
-5.20045
-5.2761
-5.35275
-5.42307
-5.48507
-5.54144
-5.59399
-5.64314
-5.68947
-5.73404
-5.77852
-5.825
-5.87649
-5.93511
-4.91046
-4.94214
-5.03282
-5.13347
-5.21335
-5.28558
-5.35806
-5.4261
-5.48725
-5.54326
-5.59574
-5.6453
-5.69251
-5.73837
-5.7843
-5.83193
-5.88314
-5.93884
-4.95789
-4.98647
-5.06154
-5.1503
-5.2265
-5.29568
-5.36436
-5.42989
-5.48994
-5.54543
-5.59773
-5.64751
-5.69531
-5.74201
-5.78872
-5.83662
-5.88681
-5.93948
-5.00275
-5.02799
-5.09069
-5.16862
-5.24035
-5.30644
-5.37157
-5.43448
-5.49318
-5.54799
-5.59996
-5.64973
-5.69782
-5.7449
-5.79182
-5.83936
-5.88811
-5.93788
-5.04135
-5.06365
-5.1174
-5.18655
-5.25367
-5.31678
-5.37886
-5.43936
-5.49665
-5.55067
-5.60218
-5.65174
-5.69979
-5.74687
-5.79357
-5.84038
-5.88763
-5.93495
-5.07716
-5.09692
-5.14337
-5.2048
-5.26724
-5.32731
-5.38654
-5.44467
-5.50046
-5.55358
-5.6045
-5.65367
-5.70147
-5.74826
-5.79445
-5.84033
-5.88602
-5.93113
-5.11483
-5.1321
-5.17183
-5.22573
-5.28297
-5.33954
-5.39569
-5.45122
-5.50519
-5.55713
-5.6072
-5.65573
-5.70297
-5.74914
-5.79448
-5.83911
-5.88303
-5.92588
-5.15314
-5.16802
-5.20182
-5.24876
-5.30059
-5.35328
-5.40617
-5.45894
-5.51082
-5.56126
-5.6102
-5.65776
-5.70409
-5.74929
-5.79343
-5.83653
-5.87854
-5.91916
-5.19016
-5.20289
-5.23172
-5.2726
-5.31921
-5.3679
-5.4175
-5.46745
-5.51704
-5.56572
-5.61322
-5.6595
-5.70459
-5.74847
-5.79112
-5.83251
-5.87255
-5.91103
-5.22301
-5.23401
-5.25898
-5.29499
-5.33709
-5.38207
-5.42857
-5.47583
-5.52314
-5.5699
-5.61575
-5.66052
-5.7041
-5.74643
-5.78742
-5.827
-5.86512
-5.90161
-5.24736
-5.25717
-5.27957
-5.31227
-5.35116
-5.39335
-5.4374
-5.48247
-5.5278
-5.5728
-5.61703
-5.66024
-5.70226
-5.74299
-5.78231
-5.82017
-5.85649
-5.89122
-5.25623
-5.2656
-5.28711
-5.31871
-5.35649
-5.3976
-5.44056
-5.48452
-5.52874
-5.57261
-5.61567
-5.65765
-5.69837
-5.73772
-5.77562
-5.81201
-5.84685
-5.88014
-5.24166
-5.25175
-5.27479
-5.30853
-5.34845
-5.3912
-5.43525
-5.47994
-5.52461
-5.56866
-5.61162
-5.65328
-5.69352
-5.73225
-5.76941
-5.80499
-5.83898
-5.8714
-5.21574
-5.22696
-5.25283
-5.29067
-5.33457
-5.38032
-5.42658
-5.47303
-5.51905
-5.56395
-5.60738
-5.64923
-5.68947
-5.72804
-5.76493
-5.80014
-5.83371
-5.8657
-5.181
-5.19342
-5.22354
-5.26813
-5.3178
-5.36713
-5.4161
-5.46506
-5.51308
-5.55926
-5.60343
-5.64573
-5.68618
-5.72479
-5.76158
-5.79661
-5.82994
-5.86166
-5.14054
-5.15318
-5.18863
-5.24335
-5.30065
-5.35386
-5.40568
-5.45735
-5.50745
-5.55497
-5.60003
-5.64292
-5.68373
-5.72249
-5.75928
-5.79423
-5.82743
-5.85899
-5.0968
-5.10841
-5.15089
-5.21764
-5.28251
-5.34037
-5.39653
-5.4515
-5.50333
-5.55175
-5.59747
-5.64087
-5.68196
-5.72082
-5.7576
-5.79247
-5.82556
-5.85698
-5.05002
-5.05782
-5.11895
-5.19889
-5.2642
-5.32408
-5.38623
-5.4461
-5.50018
-5.54958
-5.59599
-5.63987
-5.68119
-5.72008
-5.7568
-5.79157
-5.82455
-5.8559
-5.00212
-4.97851
-5.0894
-5.19847
-5.25922
-5.31353
-5.37721
-5.43985
-5.49545
-5.54579
-5.59303
-5.6375
-5.67915
-5.71819
-5.75496
-5.78972
-5.82267
-5.85396
-4.99284
-4.84855
-5.00768
-5.17401
-5.25868
-5.3199
-5.38494
-5.44636
-5.50041
-5.54987
-5.59662
-5.64066
-5.68185
-5.72045
-5.7568
-5.79116
-5.8238
-5.85489
-5.13826
-4.85449
-4.88932
-5.0199
-5.13965
-5.24686
-5.34114
-5.41716
-5.47969
-5.53523
-5.5863
-5.63324
-5.67638
-5.71635
-5.75367
-5.7887
-5.82197
-5.85411
-5.07507
-5.57479
-5.585
-5.42587
-5.34506
-5.36946
-5.42382
-5.47347
-5.51885
-5.56371
-5.60766
-5.64943
-5.68864
-5.72549
-5.76018
-5.7928
-5.82361
-5.85447
-1.73639
-3.60699
-4.67835
-4.97153
-5.10652
-5.24346
-5.35559
-5.43583
-5.49905
-5.55536
-5.60697
-5.65397
-5.69691
-5.73654
-5.77327
-5.80711
-5.83772
-5.86331
-6.76647
-6.76625
-6.76651
-6.76727
-6.76834
-6.76964
-6.77119
-6.77304
-6.77521
-6.77776
-6.78072
-6.78415
-6.7881
-6.79264
-6.79781
-6.80367
-6.81027
-6.81765
-6.82588
-6.83498
-6.845
-6.85601
-6.86804
-6.88116
-6.8957
-6.91177
-6.92757
-6.94272
-6.9611
-6.98195
-7.00303
-7.02609
-7.05297
-7.08272
-7.10032
-7.11131
-7.13138
-7.16725
-7.19705
-7.21441
-7.23885
-7.26498
-7.29232
-7.32045
-7.34919
-7.3784
-7.40796
-7.43779
-7.46781
-7.49795
-7.52813
-7.55827
-7.5883
-7.61814
-7.64769
-7.67688
-7.70559
-7.73373
-7.76119
-7.78785
-7.81359
-7.83828
-7.86179
-7.88398
-7.9047
-7.9238
-7.94113
-7.95651
-7.9698
-7.9808
-7.98936
-7.9953
-7.99843
-7.99857
-7.99554
-7.98916
-7.97924
-7.9656
-7.94806
-7.92642
-7.90051
-7.87016
-7.83518
-7.7954
-7.75065
-7.70077
-7.6456
-7.58498
-7.51875
-7.44678
-7.36894
-7.28508
-7.1951
-7.09888
-6.99634
-6.88745
-6.77223
-6.65058
-6.52229
-6.38705
-6.24479
-6.09564
-5.93964
-5.77679
-5.60713
-5.43066
-5.24744
-5.05751
-4.86095
-4.65784
-4.44827
-4.23238
-4.01029
-3.78215
-3.54813
-3.3084
-3.06315
-2.81261
-2.55698
-2.2965
-2.03142
-1.76199
-1.48848
-1.21118
-0.930364
-0.646333
-0.359389
-0.0698392
0.222001
0.515813
0.811277
1.10807
1.40586
1.70434
2.00317
2.30205
2.60064
2.89864
3.19574
3.49165
3.78607
4.07871
4.3693
4.65757
4.94328
5.22617
5.50602
5.78261
6.05572
6.32516
6.59076
6.85234
7.10974
7.36283
7.61146
7.85553
8.09492
8.32954
8.55932
8.78416
9.00404
9.2189
9.42872
9.63347
9.833
10.0272
10.2159
10.3993
10.5773
10.75
10.9174
11.0793
11.236
11.3874
11.5337
11.6753
11.8132
11.9491
12.0931
12.2459
-6.76516
-6.76529
-6.76563
-6.76624
-6.76683
-6.76729
-6.76774
-6.7684
-6.76942
-6.7709
-6.7729
-6.77545
-6.77857
-6.78229
-6.78665
-6.79168
-6.79743
-6.80395
-6.81126
-6.81941
-6.82842
-6.83831
-6.8491
-6.86086
-6.87348
-6.88614
-6.89957
-6.91621
-6.93397
-6.95087
-6.96888
-6.98819
-7.00676
-7.02048
-7.04148
-7.07266
-7.10451
-7.12417
-7.14705
-7.18262
-7.21284
-7.2417
-7.27038
-7.29915
-7.32815
-7.3574
-7.38688
-7.41658
-7.44642
-7.47637
-7.50636
-7.53631
-7.56617
-7.59585
-7.62527
-7.65434
-7.68296
-7.71104
-7.73846
-7.76512
-7.79089
-7.81564
-7.83924
-7.86156
-7.88244
-7.90175
-7.91931
-7.93497
-7.94857
-7.95993
-7.96888
-7.97525
-7.97886
-7.97952
-7.97706
-7.97128
-7.96202
-7.94907
-7.93226
-7.91141
-7.88633
-7.85685
-7.82279
-7.78398
-7.74025
-7.69144
-7.63738
-7.57793
-7.51294
-7.44226
-7.36576
-7.2833
-7.19478
-7.10007
-6.99906
-6.89163
-6.77765
-6.65695
-6.52933
-6.39506
-6.2542
-6.10662
-5.95224
-5.79106
-5.62307
-5.4483
-5.26677
-5.07855
-4.88369
-4.68228
-4.47441
-4.2602
-4.03978
-3.81329
-3.5809
-3.34278
-3.09912
-2.85012
-2.59601
-2.33701
-2.07336
-1.80533
-1.53317
-1.25717
-0.977599
-0.694763
-0.408956
-0.120487
0.170333
0.463187
0.757755
1.05372
1.35075
1.64852
1.94672
2.24503
2.54313
2.8407
3.13744
3.43304
3.72723
4.0197
4.31019
4.59842
4.88415
5.16712
5.4471
5.72387
5.99722
6.26695
6.53288
6.79484
7.05266
7.3062
7.55533
7.79993
8.03988
8.27508
8.50547
8.73096
8.9515
9.16705
9.37758
9.58303
9.78327
9.97814
10.1677
10.3518
10.5306
10.704
10.8722
11.0349
11.1925
11.3448
11.4923
11.6352
11.7751
11.9131
12.06
12.2063
-6.76116
-6.76235
-6.76359
-6.76473
-6.76551
-6.76596
-6.76631
-6.76679
-6.76758
-6.76879
-6.7705
-6.77276
-6.77562
-6.77911
-6.78327
-6.78813
-6.79374
-6.80012
-6.80732
-6.81537
-6.8243
-6.83413
-6.84491
-6.85669
-6.86948
-6.88301
-6.89724
-6.91312
-6.93065
-6.94849
-6.96696
-6.98636
-7.00613
-7.02606
-7.04803
-7.07319
-7.09877
-7.12232
-7.14607
-7.17304
-7.20034
-7.22801
-7.25598
-7.28423
-7.31275
-7.34152
-7.37052
-7.39971
-7.42906
-7.45851
-7.48801
-7.5175
-7.54691
-7.57615
-7.60516
-7.63385
-7.66212
-7.68987
-7.71699
-7.74338
-7.76892
-7.79348
-7.81693
-7.83912
-7.85993
-7.8792
-7.89677
-7.91248
-7.92618
-7.93769
-7.94685
-7.95347
-7.95738
-7.9584
-7.95635
-7.95105
-7.9423
-7.92994
-7.91378
-7.89362
-7.86931
-7.84065
-7.80747
-7.7696
-7.72688
-7.67913
-7.62619
-7.56792
-7.50416
-7.43477
-7.35961
-7.27856
-7.19148
-7.09825
-6.99877
-6.89291
-6.78049
-6.66153
-6.53586
-6.4035
-6.26448
-6.11875
-5.96625
-5.80699
-5.64094
-5.46812
-5.28857
-5.10233
-4.90945
-4.71003
-4.50415
-4.29192
-4.07348
-3.84895
-3.6185
-3.38229
-3.14052
-2.89339
-2.6411
-2.38389
-2.12199
-1.85566
-1.58516
-1.31076
-1.03274
-0.751387
-0.467006
-0.179898
0.109628
0.401258
0.694673
0.989554
1.28558
1.58243
1.87978
2.17731
2.47471
2.77167
3.06787
3.36302
3.65683
3.949
4.23926
4.52735
4.813
5.09596
5.37601
5.65291
5.92646
6.19646
6.46271
6.72504
6.98329
7.23731
7.48697
7.73214
7.9727
8.20856
8.43962
8.66581
8.88707
9.10333
9.31454
9.52066
9.72161
9.91733
10.1078
10.2928
10.4726
10.647
10.8161
10.9799
11.1384
11.292
11.4407
11.5852
11.7271
11.8667
12.0159
12.1508
-6.75466
-6.75702
-6.75965
-6.76184
-6.76331
-6.76426
-6.76498
-6.7657
-6.76662
-6.76787
-6.76956
-6.77178
-6.77458
-6.77802
-6.78212
-6.78693
-6.79249
-6.79883
-6.80599
-6.81399
-6.82286
-6.83263
-6.84333
-6.85498
-6.86759
-6.88113
-6.89559
-6.91112
-6.92783
-6.94547
-6.9639
-6.98315
-7.0031
-7.02392
-7.04593
-7.06931
-7.09344
-7.11783
-7.14262
-7.16825
-7.19457
-7.22141
-7.24868
-7.27632
-7.30429
-7.33255
-7.36106
-7.3898
-7.41871
-7.44774
-7.47684
-7.50595
-7.535
-7.56392
-7.59263
-7.62104
-7.64906
-7.6766
-7.70354
-7.72977
-7.75519
-7.77965
-7.80304
-7.82521
-7.84603
-7.86534
-7.88299
-7.89882
-7.91267
-7.92438
-7.93376
-7.94065
-7.94488
-7.94625
-7.94459
-7.93972
-7.93146
-7.91961
-7.90401
-7.88446
-7.86079
-7.83282
-7.80038
-7.76329
-7.72138
-7.67449
-7.62246
-7.56513
-7.50236
-7.43399
-7.35989
-7.27993
-7.19396
-7.10188
-7.00355
-6.89887
-6.78776
-6.67002
-6.54573
-6.41482
-6.27725
-6.13297
-5.98196
-5.82418
-5.65964
-5.48835
-5.31033
-5.12562
-4.93429
-4.73641
-4.53208
-4.32139
-4.10447
-3.88146
-3.65251
-3.4178
-3.1775
-2.93181
-2.68094
-2.42513
-2.16459
-1.89958
-1.63037
-1.35722
-1.0804
-0.800219
-0.516954
-0.230913
0.0575967
0.348263
0.640769
0.934797
1.23003
1.52614
1.82281
2.11973
2.41657
2.71303
3.0088
3.30358
3.59708
3.889
4.17907
4.46702
4.7526
5.03555
5.31563
5.59263
5.86632
6.13651
6.403
6.66562
6.9242
7.1786
7.42866
7.67428
7.91531
8.15167
8.38326
8.61001
8.83185
9.04871
9.26052
9.46718
9.66867
9.86496
10.056
10.2418
10.4222
10.5973
10.7671
10.9316
11.091
11.2453
11.395
11.5405
11.6832
11.8229
11.9705
12.0925
-6.74704
-6.75065
-6.75493
-6.75845
-6.76089
-6.76259
-6.76392
-6.76513
-6.76643
-6.768
-6.76994
-6.77238
-6.77537
-6.77898
-6.78326
-6.78825
-6.79399
-6.80051
-6.80785
-6.81603
-6.82508
-6.83503
-6.8459
-6.85771
-6.87046
-6.88415
-6.89881
-6.91446
-6.93109
-6.94863
-6.96701
-6.98622
-7.00622
-7.02703
-7.04873
-7.07133
-7.09471
-7.11873
-7.14336
-7.16862
-7.19443
-7.22073
-7.24747
-7.2746
-7.3021
-7.32993
-7.35804
-7.38639
-7.41495
-7.44365
-7.47245
-7.50128
-7.53007
-7.55876
-7.58726
-7.61549
-7.64336
-7.67076
-7.6976
-7.72376
-7.74912
-7.77355
-7.79694
-7.81914
-7.84
-7.85939
-7.87714
-7.89311
-7.90711
-7.919
-7.92859
-7.93572
-7.94021
-7.94187
-7.94053
-7.93601
-7.92811
-7.91667
-7.90149
-7.8824
-7.85922
-7.83176
-7.79986
-7.76334
-7.72203
-7.67577
-7.62439
-7.56774
-7.50568
-7.43804
-7.3647
-7.28552
-7.20036
-7.1091
-7.01162
-6.90782
-6.79761
-6.68088
-6.5576
-6.4277
-6.29115
-6.1479
-5.99791
-5.84117
-5.67767
-5.50742
-5.33045
-5.1468
-4.95652
-4.75969
-4.5564
-4.34676
-4.13088
-3.9089
-3.68098
-3.44728
-3.20797
-2.96327
-2.71336
-2.45849
-2.19888
-1.93477
-1.66644
-1.39413
-1.11814
-0.838747
-0.556244
-0.270931
0.0168846
0.306891
0.598775
0.892217
1.1869
1.4825
1.77871
2.0752
2.37166
2.66777
2.96324
3.25776
3.55103
3.84277
4.13271
4.42056
4.70608
4.98901
5.26912
5.54617
5.81996
6.09028
6.35693
6.61975
6.87856
7.13321
7.38356
7.62948
7.87085
8.10758
8.33956
8.56671
8.78896
9.00623
9.21842
9.42546
9.62729
9.82394
10.0154
10.2015
10.3823
10.5579
10.7281
10.8931
11.053
11.2078
11.3579
11.5037
11.6464
11.7847
11.9292
12.0391
-6.73982
-6.74466
-6.75047
-6.75532
-6.75882
-6.76139
-6.76347
-6.76534
-6.76722
-6.76929
-6.77169
-6.77455
-6.77794
-6.78193
-6.78658
-6.79194
-6.79805
-6.80493
-6.81262
-6.82116
-6.83056
-6.84084
-6.85203
-6.86413
-6.87715
-6.89109
-6.90594
-6.92171
-6.93838
-6.9559
-6.97424
-6.99337
-7.01328
-7.03396
-7.05542
-7.07762
-7.10052
-7.12406
-7.14822
-7.17298
-7.19829
-7.22411
-7.2504
-7.27712
-7.30423
-7.3317
-7.35948
-7.38754
-7.41582
-7.44427
-7.47285
-7.50148
-7.53011
-7.55865
-7.58703
-7.61516
-7.64295
-7.6703
-7.6971
-7.72325
-7.74862
-7.77309
-7.79653
-7.8188
-7.83975
-7.85925
-7.87713
-7.89324
-7.90741
-7.91948
-7.92927
-7.93661
-7.94133
-7.94324
-7.94216
-7.93792
-7.93033
-7.9192
-7.90435
-7.88561
-7.86279
-7.83571
-7.80421
-7.7681
-7.72722
-7.68141
-7.6305
-7.57433
-7.51277
-7.44565
-7.37285
-7.29422
-7.20963
-7.11897
-7.02211
-6.91894
-6.80939
-6.69336
-6.57077
-6.44158
-6.30572
-6.16317
-6.01387
-5.85783
-5.69502
-5.52547
-5.3492
-5.16625
-4.97667
-4.78054
-4.57795
-4.36899
-4.1538
-3.93251
-3.70527
-3.47223
-3.23359
-2.98954
-2.74028
-2.48603
-2.22704
-1.96354
-1.69579
-1.42406
-1.14863
-0.869772
-0.587787
-0.302972
-0.0156322
0.273921
0.565373
0.858408
1.15271
1.44795
1.74383
2.04001
2.33619
2.63206
2.9273
3.22162
3.51473
3.80633
4.09615
4.38392
4.66938
4.95229
5.23239
5.50947
5.78331
6.0537
6.32045
6.58339
6.84234
7.09716
7.3477
7.59383
7.83544
8.07241
8.30465
8.53206
8.75457
8.9721
9.18455
9.39184
9.59392
9.7908
9.98247
10.1689
10.35
10.5258
10.6964
10.8617
11.0218
11.1768
11.3271
11.4727
11.6148
11.7513
11.8924
11.9915
-6.73459
-6.74031
-6.74733
-6.7533
-6.75776
-6.7612
-6.76404
-6.76661
-6.76913
-6.7718
-6.77476
-6.77815
-6.78204
-6.78653
-6.79166
-6.79748
-6.80404
-6.81137
-6.8195
-6.82845
-6.83824
-6.8489
-6.86041
-6.87281
-6.88608
-6.90021
-6.91521
-6.93106
-6.94774
-6.96522
-6.98348
-7.0025
-7.02226
-7.04276
-7.06397
-7.08588
-7.10844
-7.13164
-7.15544
-7.17982
-7.20476
-7.23022
-7.25617
-7.28257
-7.30939
-7.33659
-7.36413
-7.39198
-7.42008
-7.44838
-7.47682
-7.50534
-7.53388
-7.56236
-7.5907
-7.61882
-7.64661
-7.67398
-7.70082
-7.72702
-7.75246
-7.77702
-7.80056
-7.82294
-7.84403
-7.86366
-7.88169
-7.89796
-7.9123
-7.92455
-7.93453
-7.94207
-7.94699
-7.94911
-7.94825
-7.94424
-7.93687
-7.92598
-7.91138
-7.89289
-7.87033
-7.84352
-7.81229
-7.77647
-7.73589
-7.69038
-7.63978
-7.58394
-7.52271
-7.45594
-7.3835
-7.30524
-7.22104
-7.13077
-7.03432
-6.93158
-6.82247
-6.70689
-6.58475
-6.45601
-6.3206
-6.17848
-6.02963
-5.87402
-5.71165
-5.54253
-5.36669
-5.18417
-4.99503
-4.79933
-4.59717
-4.38866
-4.1739
-3.95304
-3.72622
-3.49362
-3.2554
-3.01177
-2.76292
-2.50909
-2.2505
-1.9874
-1.72004
-1.44869
-1.17363
-0.895141
-0.61351
-0.329037
-0.0420294
0.247204
0.53835
0.831093
1.12511
1.4201
1.71572
2.01168
2.30764
2.60331
2.89837
3.19253
3.48549
3.77697
4.06668
4.35436
4.63975
4.92261
5.20268
5.47974
5.75358
6.02399
6.29078
6.55378
6.81281
7.06773
7.31838
7.56464
7.80638
8.0435
8.2759
8.50348
8.72616
8.94385
9.15647
9.36393
9.56619
9.76326
9.9551
10.1417
10.323
10.499
10.6698
10.8352
10.9955
11.1506
11.3008
11.446
11.5871
11.7216
11.8596
11.9493
-6.73192
-6.73826
-6.74612
-6.75295
-6.75821
-6.76238
-6.76594
-6.76917
-6.77233
-6.77559
-6.77913
-6.78306
-6.78749
-6.79249
-6.79812
-6.80443
-6.81146
-6.81924
-6.82779
-6.83714
-6.8473
-6.85829
-6.8701
-6.88274
-6.89621
-6.9105
-6.9256
-6.94149
-6.95817
-6.9756
-6.99378
-7.01268
-7.03229
-7.0526
-7.0736
-7.09527
-7.11758
-7.14052
-7.16406
-7.18818
-7.21285
-7.23806
-7.26378
-7.28997
-7.3166
-7.34364
-7.37104
-7.39877
-7.42678
-7.45502
-7.48342
-7.51192
-7.54046
-7.56896
-7.59734
-7.62551
-7.65337
-7.68083
-7.70777
-7.73409
-7.75966
-7.78435
-7.80803
-7.83056
-7.8518
-7.8716
-7.88979
-7.90623
-7.92074
-7.93316
-7.94331
-7.95102
-7.95611
-7.9584
-7.95771
-7.95386
-7.94666
-7.93594
-7.92151
-7.90318
-7.88079
-7.85415
-7.82309
-7.78743
-7.74702
-7.70169
-7.65127
-7.59562
-7.53458
-7.46801
-7.39577
-7.31773
-7.23375
-7.14371
-7.0475
-6.94501
-6.83615
-6.72082
-6.59893
-6.47043
-6.33526
-6.19338
-6.04476
-5.88938
-5.72724
-5.55835
-5.38273
-5.20044
-5.01153
-4.81607
-4.61414
-4.40586
-4.19134
-3.97072
-3.74415
-3.51179
-3.27382
-3.03043
-2.78183
-2.52825
-2.26991
-2.00706
-1.73995
-1.46885
-1.19403
-0.915783
-0.634391
-0.350154
-0.0633767
0.225631
0.516556
0.809082
1.10289
1.39768
1.69311
1.98888
2.28467
2.58017
2.87507
3.16908
3.46191
3.75326
4.04286
4.33044
4.61574
4.89851
5.17852
5.45553
5.72933
5.99972
6.26651
6.52951
6.78857
7.04351
7.29421
7.54052
7.78233
8.01953
8.25202
8.47969
8.70247
8.92026
9.13298
9.34056
9.54295
9.74014
9.93211
10.1188
10.3003
10.4764
10.6473
10.8128
10.9731
11.1281
11.278
11.4227
11.5627
11.695
11.8301
11.9117
-6.73219
-6.73885
-6.74719
-6.75455
-6.76038
-6.76514
-6.76928
-6.77309
-6.7768
-6.78061
-6.78467
-6.78911
-6.79403
-6.7995
-6.80558
-6.81232
-6.81976
-6.82793
-6.83685
-6.84654
-6.857
-6.86825
-6.88029
-6.89312
-6.90673
-6.92112
-6.93627
-6.95218
-6.96883
-6.98621
-7.00431
-7.02311
-7.04259
-7.06276
-7.0836
-7.10509
-7.12722
-7.14998
-7.17334
-7.19729
-7.22181
-7.24687
-7.27246
-7.29854
-7.32509
-7.35206
-7.37942
-7.40713
-7.43514
-7.4634
-7.49184
-7.52041
-7.54903
-7.57762
-7.60611
-7.6344
-7.6624
-7.69
-7.71709
-7.74357
-7.7693
-7.79415
-7.818
-7.84071
-7.86211
-7.88208
-7.90043
-7.91703
-7.93169
-7.94426
-7.95455
-7.9624
-7.96762
-7.97003
-7.96945
-7.96571
-7.95861
-7.94798
-7.93363
-7.91538
-7.89306
-7.86649
-7.8355
-7.79991
-7.75956
-7.71429
-7.66393
-7.60835
-7.54738
-7.48088
-7.40872
-7.33075
-7.24686
-7.15692
-7.0608
-6.95842
-6.84965
-6.7344
-6.6126
-6.48418
-6.34908
-6.20726
-6.05871
-5.90339
-5.74132
-5.57249
-5.39695
-5.21473
-5.02589
-4.83051
-4.62867
-4.42047
-4.20605
-3.98553
-3.75907
-3.52682
-3.28897
-3.04571
-2.79724
-2.54379
-2.28559
-2.02288
-1.75592
-1.48498
-1.21032
-0.932232
-0.651004
-0.366932
-0.0803219
0.208517
0.499274
0.791632
1.08528
1.37989
1.67516
1.97076
2.26639
2.56174
2.85649
3.15035
3.44303
3.73425
4.02372
4.31118
4.59636
4.87903
5.15894
5.43587
5.7096
5.97993
6.24666
6.50962
6.76864
7.02356
7.27425
7.52057
7.76239
7.99961
8.23212
8.45983
8.68265
8.90049
9.11326
9.32091
9.52338
9.72066
9.91272
10.0995
10.281
10.4573
10.6281
10.7937
10.9539
11.1088
11.2583
11.4022
11.5409
11.671
11.8036
11.8782
-6.73538
-6.74208
-6.75054
-6.75814
-6.7643
-6.76945
-6.77401
-6.77826
-6.78242
-6.78667
-6.79116
-6.79601
-6.80132
-6.80716
-6.81361
-6.82069
-6.82845
-6.83691
-6.8461
-6.85603
-6.8667
-6.87813
-6.89032
-6.90326
-6.91695
-6.93139
-6.94656
-6.96246
-6.97908
-6.9964
-7.01443
-7.03314
-7.05253
-7.0726
-7.09333
-7.11471
-7.13674
-7.1594
-7.18267
-7.20654
-7.231
-7.25602
-7.28157
-7.30765
-7.3342
-7.3612
-7.38861
-7.41639
-7.44449
-7.47285
-7.50141
-7.53011
-7.55887
-7.58762
-7.61627
-7.64473
-7.67291
-7.70069
-7.72797
-7.75462
-7.78054
-7.80557
-7.8296
-7.85247
-7.87403
-7.89415
-7.91265
-7.92937
-7.94416
-7.95683
-7.96722
-7.97515
-7.98044
-7.9829
-7.98237
-7.97866
-7.97158
-7.96096
-7.94661
-7.92836
-7.90602
-7.87942
-7.8484
-7.81277
-7.77239
-7.72707
-7.67668
-7.62105
-7.56004
-7.49351
-7.42131
-7.34332
-7.2594
-7.16943
-7.0733
-6.97088
-6.86206
-6.74677
-6.62491
-6.49643
-6.36127
-6.2194
-6.07078
-5.9154
-5.75327
-5.58439
-5.4088
-5.22653
-5.03766
-4.84224
-4.64038
-4.43218
-4.21775
-3.99724
-3.77079
-3.53857
-3.30076
-3.05754
-2.80913
-2.55574
-2.29762
-2.03499
-1.76813
-1.49728
-1.22274
-0.944766
-0.663662
-0.379721
-0.093249
0.195447
0.486056
0.778263
1.07175
1.36621
1.66131
1.95675
2.25221
2.54739
2.84197
3.13567
3.42819
3.71925
4.00857
4.29588
4.58092
4.86345
5.14323
5.42003
5.69364
5.96386
6.23049
6.49336
6.7523
7.00715
7.25778
7.50404
7.74583
7.98301
8.21551
8.4432
8.66601
8.88386
9.09665
9.30433
9.50685
9.70417
9.89627
10.0831
10.2647
10.4409
10.6118
10.7773
10.9374
11.0919
11.241
11.3841
11.5215
11.6495
11.7796
11.8483
-6.7412
-6.7477
-6.75596
-6.76351
-6.76978
-6.77512
-6.77994
-6.78447
-6.78893
-6.79348
-6.79826
-6.8034
-6.80899
-6.81509
-6.82177
-6.82907
-6.83702
-6.84567
-6.85501
-6.86507
-6.87586
-6.88738
-6.89963
-6.91262
-6.92633
-6.94077
-6.95593
-6.9718
-6.98838
-7.00566
-7.02363
-7.04229
-7.06163
-7.08164
-7.10232
-7.12367
-7.14566
-7.1683
-7.19157
-7.21545
-7.23993
-7.26499
-7.29061
-7.31676
-7.34341
-7.37052
-7.39806
-7.42598
-7.45423
-7.48275
-7.51149
-7.54037
-7.56933
-7.59827
-7.62712
-7.65578
-7.68415
-7.71213
-7.73959
-7.76643
-7.79252
-7.81772
-7.84189
-7.8649
-7.8866
-7.90682
-7.92541
-7.94222
-7.95706
-7.96978
-7.98019
-7.98813
-7.99341
-7.99586
-7.99528
-7.99152
-7.98437
-7.97367
-7.95923
-7.94087
-7.91842
-7.89171
-7.86056
-7.82481
-7.78429
-7.73884
-7.68831
-7.63255
-7.57141
-7.50475
-7.43243
-7.35432
-7.27028
-7.18019
-7.08392
-6.98136
-6.87239
-6.75694
-6.63492
-6.50628
-6.37096
-6.22893
-6.08016
-5.92463
-5.76235
-5.59333
-5.41761
-5.23523
-5.04624
-4.85073
-4.64879
-4.44051
-4.22602
-4.00546
-3.77898
-3.54674
-3.30892
-3.06571
-2.81732
-2.56397
-2.30589
-2.04332
-1.77653
-1.50577
-1.23132
-0.953455
-0.672473
-0.388667
-0.102338
0.186206
0.476656
0.768697
1.06201
1.35629
1.65121
1.94646
2.24173
2.53671
2.83111
3.12461
3.41693
3.70779
3.99691
4.28403
4.56888
4.85123
5.13083
5.40746
5.6809
5.95096
6.21745
6.48018
6.73899
6.99372
7.24424
7.4904
7.7321
7.96921
8.20164
8.42928
8.65205
8.86986
9.08263
9.29031
9.49283
9.69017
9.88229
10.0692
10.2507
10.4269
10.5978
10.7632
10.923
11.0773
11.2257
11.3679
11.504
11.63
11.7579
11.8216
-6.74917
-6.75528
-6.7631
-6.77037
-6.77652
-6.78187
-6.78675
-6.7914
-6.796
-6.80069
-6.80563
-6.81091
-6.81662
-6.82284
-6.82962
-6.83701
-6.84504
-6.85374
-6.86313
-6.87323
-6.88403
-6.89555
-6.9078
-6.92077
-6.93445
-6.94886
-6.96398
-6.97981
-6.99635
-7.01359
-7.03153
-7.05017
-7.0695
-7.08951
-7.1102
-7.13157
-7.15361
-7.1763
-7.19964
-7.22361
-7.24819
-7.27338
-7.29913
-7.32543
-7.35224
-7.37953
-7.40725
-7.43536
-7.46381
-7.49254
-7.52148
-7.55057
-7.57973
-7.60888
-7.63793
-7.66678
-7.69533
-7.72348
-7.7511
-7.77809
-7.8043
-7.82961
-7.85388
-7.87697
-7.89872
-7.91897
-7.93758
-7.95438
-7.9692
-7.98187
-7.99222
-8.00007
-8.00524
-8.00756
-8.00686
-8.00293
-7.99562
-7.98474
-7.97012
-7.95156
-7.92891
-7.90199
-7.87063
-7.83467
-7.79393
-7.74827
-7.69754
-7.64157
-7.58022
-7.51336
-7.44085
-7.36255
-7.27832
-7.18802
-7.09152
-6.98872
-6.87951
-6.76382
-6.64157
-6.5127
-6.37715
-6.2349
-6.08591
-5.93017
-5.7677
-5.5985
-5.42261
-5.24007
-5.05094
-4.8553
-4.65324
-4.44487
-4.23031
-4.00968
-3.78315
-3.55088
-3.31305
-3.06985
-2.82149
-2.56818
-2.31017
-2.04768
-1.78097
-1.51032
-1.23599
-0.958255
-0.67742
-0.393775
-0.107619
0.180742
0.470999
0.762837
1.05594
1.35
1.64469
1.9397
2.23474
2.52947
2.82362
3.11687
3.40895
3.69956
3.98843
4.2753
4.55991
4.84202
5.12138
5.39779
5.67101
5.94086
6.20714
6.46968
6.72831
6.98287
7.23323
7.47925
7.72082
7.95781
8.19012
8.41767
8.64036
8.8581
9.07083
9.27847
9.48097
9.6783
9.87042
10.0573
10.2388
10.415
10.5857
10.751
10.9106
11.0644
11.2123
11.3535
11.4882
11.6123
11.7382
11.7977
-6.75875
-6.76435
-6.77155
-6.77834
-6.7842
-6.78936
-6.79414
-6.79872
-6.80328
-6.80796
-6.81288
-6.81814
-6.82383
-6.83003
-6.83677
-6.84412
-6.85209
-6.86074
-6.87006
-6.88009
-6.89082
-6.90227
-6.91445
-6.92735
-6.94097
-6.95532
-6.97039
-6.98618
-7.00269
-7.01991
-7.03785
-7.0565
-7.07586
-7.09592
-7.11668
-7.13813
-7.16027
-7.18308
-7.20655
-7.23067
-7.25542
-7.28078
-7.30672
-7.33321
-7.36023
-7.38772
-7.41566
-7.44398
-7.47263
-7.50157
-7.53071
-7.55999
-7.58933
-7.61864
-7.64784
-7.67683
-7.7055
-7.73375
-7.76146
-7.7885
-7.81475
-7.84008
-7.86434
-7.88739
-7.90909
-7.92927
-7.94778
-7.96445
-7.97913
-7.99163
-8.00179
-8.00944
-8.0144
-8.01648
-8.01553
-8.01135
-8.00377
-7.99261
-7.9777
-7.95887
-7.93593
-7.90872
-7.87708
-7.84083
-7.79982
-7.75389
-7.70289
-7.64666
-7.58506
-7.51796
-7.44522
-7.36667
-7.28217
-7.19157
-7.09478
-6.99168
-6.88219
-6.76621
-6.64368
-6.51454
-6.37873
-6.23623
-6.08701
-5.93106
-5.76839
-5.599
-5.42294
-5.24025
-5.05098
-4.85523
-4.65308
-4.44463
-4.23
-4.00934
-3.7828
-3.55053
-3.31272
-3.06957
-2.82127
-2.56805
-2.31013
-2.04776
-1.78119
-1.51069
-1.23653
-0.958989
-0.678357
-0.39493
-0.109006
0.17911
0.469108
0.760678
1.05351
1.34727
1.64167
1.93638
2.23111
2.52553
2.81936
3.1123
3.40405
3.69435
3.9829
4.26946
4.55376
4.83556
5.11463
5.39075
5.66369
5.93327
6.19929
6.46158
6.71997
6.97431
7.22446
7.47029
7.71167
7.9485
8.18067
8.40809
8.63066
8.8483
9.06095
9.26853
9.471
9.66829
9.86038
10.0472
10.2287
10.4048
10.5754
10.7405
10.8998
11.0532
11.2004
11.3407
11.4741
11.5963
11.7202
11.7765
-6.76943
-6.77445
-6.78092
-6.78709
-6.79248
-6.79729
-6.80178
-6.80611
-6.81045
-6.81492
-6.81965
-6.82473
-6.83025
-6.83626
-6.84283
-6.85
-6.85781
-6.86629
-6.87545
-6.88533
-6.89592
-6.90723
-6.91929
-6.93208
-6.94561
-6.95988
-6.97489
-6.99065
-7.00714
-7.02437
-7.04234
-7.06103
-7.08046
-7.10061
-7.12149
-7.14307
-7.16535
-7.18832
-7.21197
-7.23627
-7.26122
-7.28677
-7.31291
-7.3396
-7.36681
-7.3945
-7.42261
-7.45111
-7.47992
-7.509
-7.53827
-7.56766
-7.59709
-7.62647
-7.65572
-7.68472
-7.71339
-7.74161
-7.76926
-7.79622
-7.82237
-7.84756
-7.87167
-7.89454
-7.91604
-7.93599
-7.95425
-7.97066
-7.98505
-7.99725
-8.0071
-8.01441
-8.01903
-8.02077
-8.01945
-8.01491
-8.00697
-7.99545
-7.98018
-7.96099
-7.93771
-7.91016
-7.87819
-7.84162
-7.8003
-7.75408
-7.70279
-7.64629
-7.58444
-7.51709
-7.44407
-7.36521
-7.28038
-7.18947
-7.09235
-6.98895
-6.87915
-6.76288
-6.64007
-6.51067
-6.37461
-6.23188
-6.08245
-5.92631
-5.76346
-5.59392
-5.41772
-5.23492
-5.04557
-4.84974
-4.64754
-4.43907
-4.22445
-4.00381
-3.77731
-3.54511
-3.3074
-3.06436
-2.8162
-2.56314
-2.3054
-2.04323
-1.77688
-1.50662
-1.23272
-0.955448
-0.675106
-0.391985
-0.106381
0.181401
0.471053
0.762266
1.05472
1.34812
1.64213
1.93645
2.23078
2.52481
2.81824
3.11077
3.40213
3.69202
3.98018
4.26634
4.55026
4.83168
5.11038
5.38614
5.65873
5.92797
6.19367
6.45565
6.71375
6.96781
7.2177
7.46329
7.70444
7.94107
8.17305
8.4003
8.62272
8.84024
9.05279
9.26029
9.46269
9.65993
9.85198
10.0388
10.2202
10.3962
10.5667
10.7316
10.8906
11.0435
11.19
11.3294
11.4614
11.582
11.704
11.7576
-6.7808
-6.78522
-6.7909
-6.79636
-6.80114
-6.80542
-6.80941
-6.81329
-6.8172
-6.82128
-6.82563
-6.83035
-6.83551
-6.8412
-6.84745
-6.85433
-6.86186
-6.87007
-6.87899
-6.88863
-6.89902
-6.91015
-6.92204
-6.93469
-6.94811
-6.9623
-6.97725
-6.99297
-7.00946
-7.02671
-7.04472
-7.06349
-7.08301
-7.10328
-7.12428
-7.14601
-7.16844
-7.19158
-7.21539
-7.23986
-7.26496
-7.29067
-7.31696
-7.34378
-7.37111
-7.39889
-7.42708
-7.45563
-7.48447
-7.51355
-7.54279
-7.57213
-7.60148
-7.63075
-7.65986
-7.6887
-7.71717
-7.74517
-7.77258
-7.79927
-7.82513
-7.85001
-7.87378
-7.8963
-7.91742
-7.93699
-7.95485
-7.97084
-7.9848
-7.99657
-8.00598
-8.01285
-8.01702
-8.01832
-8.01657
-8.01159
-8.00323
-7.99129
-7.97562
-7.95605
-7.93239
-7.90449
-7.87218
-7.83529
-7.79367
-7.74717
-7.69562
-7.63888
-7.57679
-7.50916
-7.43581
-7.35662
-7.27146
-7.18022
-7.08281
-6.97911
-6.86904
-6.75252
-6.62948
-6.49986
-6.36361
-6.22071
-6.07113
-5.91486
-5.75191
-5.58229
-5.40604
-5.22321
-5.03386
-4.83806
-4.63591
-4.42751
-4.21299
-3.99247
-3.76612
-3.5341
-3.29659
-3.05377
-2.80586
-2.55306
-2.29562
-2.03376
-1.76775
-1.49784
-1.22431
-0.947427
-0.66749
-0.384789
-0.0996193
0.187715
0.476908
0.76765
1.05963
1.35254
1.64606
1.93988
2.23371
2.52724
2.82016
3.1122
3.40305
3.69245
3.98012
4.2658
4.54925
4.83021
5.10846
5.38378
5.65595
5.92478
6.19009
6.4517
6.70944
6.96317
7.21275
7.45804
7.69893
7.9353
8.16706
8.39411
8.61636
8.83374
9.04616
9.25356
9.45588
9.65306
9.84505
10.0318
10.2131
10.3891
10.5594
10.7241
10.8828
11.0352
11.181
11.3194
11.4502
11.5692
11.6893
11.7409
-6.79303
-6.79688
-6.80177
-6.80641
-6.81042
-6.81393
-6.81719
-6.82035
-6.82358
-6.827
-6.83073
-6.83487
-6.83949
-6.84467
-6.85046
-6.85689
-6.86402
-6.87186
-6.88043
-6.88977
-6.89987
-6.91076
-6.92243
-6.9349
-6.94817
-6.96224
-6.97711
-6.99278
-7.00925
-7.0265
-7.04454
-7.06336
-7.08294
-7.10329
-7.12437
-7.14618
-7.16871
-7.19192
-7.2158
-7.24032
-7.26545
-7.29117
-7.31744
-7.34422
-7.37147
-7.39915
-7.4272
-7.45558
-7.48421
-7.51305
-7.54203
-7.57106
-7.60008
-7.62899
-7.65771
-7.68615
-7.71419
-7.74173
-7.76867
-7.79487
-7.82022
-7.84458
-7.86782
-7.8898
-7.91037
-7.92939
-7.9467
-7.96214
-7.97555
-7.98678
-7.99564
-8.00199
-8.00564
-8.00644
-8.0042
-7.99875
-7.98994
-7.97758
-7.9615
-7.94155
-7.91754
-7.88932
-7.85671
-7.81956
-7.77771
-7.731
-7.67926
-7.62231
-7.55995
-7.492
-7.41834
-7.33885
-7.25342
-7.16193
-7.06429
-6.96038
-6.85012
-6.73344
-6.61025
-6.48052
-6.34418
-6.20122
-6.0516
-5.89532
-5.73239
-5.56282
-5.38665
-5.20392
-5.0147
-4.81906
-4.6171
-4.40891
-4.19463
-3.97439
-3.74834
-3.51664
-3.27948
-3.03704
-2.78952
-2.53715
-2.28015
-2.01877
-1.75324
-1.48384
-1.21083
-0.934497
-0.655118
-0.372989
-0.0884049
0.198333
0.486919
0.777045
1.0684
1.36068