/*--------------------------------*- C++ -*----------------------------------*\
  =========                 |
  \\      /  F ield         | OpenFOAM: The Open Source CFD Toolbox
   \\    /   O peration     | Website:  https://openfoam.org
    \\  /    A nd           | Version:  12
     \\/     M anipulation  |
\*---------------------------------------------------------------------------*/
FoamFile
{
    format      ascii;
    class       surfaceScalarField;
    location    "0.13";
    object      phi;
}
// * * * * * * * * * * * * * * * * * * * * * * * * * * * * * * * * * * * * * //

dimensions      [0 3 -1 0 0 0 0];

internalField   nonuniform List<scalar> 
24170
(
3.1336e-06
5.48095e-08
3.04826e-06
8.53349e-08
2.97312e-06
7.51371e-08
2.90427e-06
6.88542e-08
2.83942e-06
6.48535e-08
2.78217e-06
5.72515e-08
2.73323e-06
4.89364e-08
2.69166e-06
4.15688e-08
2.65617e-06
3.54934e-08
2.62558e-06
3.05882e-08
2.59892e-06
2.66552e-08
2.57539e-06
2.35325e-08
2.55429e-06
2.1105e-08
2.53492e-06
1.93682e-08
2.51662e-06
1.83021e-08
2.49749e-06
1.91224e-08
2.47623e-06
2.12658e-08
3.98596e-08
2.43637e-06
3.45361e-06
1.84479e-08
3.45616e-06
8.27844e-08
3.44961e-06
8.16878e-08
3.43798e-06
8.04845e-08
3.42348e-06
7.93547e-08
3.40592e-06
7.48095e-08
3.38627e-06
6.8588e-08
3.36534e-06
6.25003e-08
3.3439e-06
5.69347e-08
3.32255e-06
5.19345e-08
3.3017e-06
4.75094e-08
3.28156e-06
4.36721e-08
3.26224e-06
4.04196e-08
3.24374e-06
3.78748e-08
3.22608e-06
3.59555e-08
3.20911e-06
3.60929e-08
3.19374e-06
3.66325e-08
4.78328e-08
3.18577e-06
3.66535e-06
1.56126e-08
3.67825e-06
6.98897e-08
3.6853e-06
7.4634e-08
3.68957e-06
7.62132e-08
3.69123e-06
7.7695e-08
3.69008e-06
7.59594e-08
3.68661e-06
7.20621e-08
3.68138e-06
6.77237e-08
3.67484e-06
6.34821e-08
3.66731e-06
5.94577e-08
3.65909e-06
5.57291e-08
3.65039e-06
5.23785e-08
3.64134e-06
4.94662e-08
3.63206e-06
4.71552e-08
3.62254e-06
4.54794e-08
3.61322e-06
4.54125e-08
3.60373e-06
4.61187e-08
5.14086e-08
3.60015e-06
3.92465e-06
1.63539e-08
3.93579e-06
5.87431e-08
3.94253e-06
6.78986e-08
3.94799e-06
7.07491e-08
3.95239e-06
7.32984e-08
3.95529e-06
7.30586e-08
3.95682e-06
7.05331e-08
3.95727e-06
6.72704e-08
3.95684e-06
6.39169e-08
3.95566e-06
6.06337e-08
3.95387e-06
5.75172e-08
3.95158e-06
5.46724e-08
3.94886e-06
5.2188e-08
3.94579e-06
5.02204e-08
3.94241e-06
4.88585e-08
3.93918e-06
4.8649e-08
3.93609e-06
4.92071e-08
5.1579e-08
3.93592e-06
4.20777e-06
1.57156e-08
4.21599e-06
5.05169e-08
4.22165e-06
6.22437e-08
4.22657e-06
6.58296e-08
4.23125e-06
6.86157e-08
4.23519e-06
6.91221e-08
4.23826e-06
6.74625e-08
4.2406e-06
6.49307e-08
4.24231e-06
6.21987e-08
4.24349e-06
5.94527e-08
4.24422e-06
5.67964e-08
4.24454e-06
5.43435e-08
4.24454e-06
5.2194e-08
4.24428e-06
5.04808e-08
4.24384e-06
4.92926e-08
4.24359e-06
4.8899e-08
4.24373e-06
4.9071e-08
4.98688e-08
4.24544e-06
4.51044e-06
1.43651e-08
4.51685e-06
4.41003e-08
4.52216e-06
5.69419e-08
4.5268e-06
6.11834e-08
4.5314e-06
6.40196e-08
4.53557e-06
6.49523e-08
4.53913e-06
6.39042e-08
4.54214e-06
6.19175e-08
4.54469e-06
5.96504e-08
4.54683e-06
5.73126e-08
4.54861e-06
5.50136e-08
4.55009e-06
5.28673e-08
4.55131e-06
5.09728e-08
4.55235e-06
4.94342e-08
4.55333e-06
4.83154e-08
4.55451e-06
4.77216e-08
4.55611e-06
4.74659e-08
4.73049e-08
4.55868e-06
4.83412e-06
1.29664e-08
4.83957e-06
3.86474e-08
4.84481e-06
5.17001e-08
4.84939e-06
5.6607e-08
4.85388e-06
5.95276e-08
4.85809e-06
6.07456e-08
4.86183e-06
6.01656e-08
4.86513e-06
5.86145e-08
4.86806e-06
5.67176e-08
4.87067e-06
5.47063e-08
4.87299e-06
5.26956e-08
4.87506e-06
5.07941e-08
4.87694e-06
4.90931e-08
4.8787e-06
4.76691e-08
4.88046e-06
4.65566e-08
4.88242e-06
4.57687e-08
4.88475e-06
4.5136e-08
4.43782e-08
4.88767e-06
5.1809e-06
1.16489e-08
5.1857e-06
3.3849e-08
5.19082e-06
4.65762e-08
5.19539e-06
5.20424e-08
5.19983e-06
5.50824e-08
5.20407e-06
5.65081e-08
5.20792e-06
5.63093e-08
5.21141e-06
5.51317e-08
5.21457e-06
5.3551e-08
5.21746e-06
5.18162e-08
5.22011e-06
5.00475e-08
5.22256e-06
4.83464e-08
5.22486e-06
4.67934e-08
5.22709e-06
4.54424e-08
5.22934e-06
4.43037e-08
5.23176e-06
4.33451e-08
5.23448e-06
4.24183e-08
4.12942e-08
5.23756e-06
5.5526e-06
1.03879e-08
5.55684e-06
2.96058e-08
5.56175e-06
4.16694e-08
5.5663e-06
4.74899e-08
5.57074e-06
5.06445e-08
5.57502e-06
5.22233e-08
5.57899e-06
5.23401e-08
5.58263e-06
5.14942e-08
5.58598e-06
5.01971e-08
5.58909e-06
4.87071e-08
5.59199e-06
4.71493e-08
5.59472e-06
4.56177e-08
5.59733e-06
4.4182e-08
5.59989e-06
4.28794e-08
5.60249e-06
4.17054e-08
5.60523e-06
4.06117e-08
5.60817e-06
3.94768e-08
3.81399e-08
5.61132e-06
5.95098e-06
9.18043e-09
5.95475e-06
2.58405e-08
5.95939e-06
3.70245e-08
5.96391e-06
4.29702e-08
5.96835e-06
4.6206e-08
5.97268e-06
4.78919e-08
5.97676e-06
4.82622e-08
5.98055e-06
4.77079e-08
5.98408e-06
4.6668e-08
5.98738e-06
4.53992e-08
5.9905e-06
4.403e-08
5.99347e-06
4.26471e-08
5.99635e-06
4.13104e-08
5.99918e-06
4.00468e-08
6.00204e-06
3.88453e-08
6.00499e-06
3.76584e-08
6.00807e-06
3.6394e-08
3.49516e-08
6.01126e-06
6.37795e-06
8.03971e-09
6.38132e-06
2.24754e-08
6.38569e-06
3.26504e-08
6.39015e-06
3.85079e-08
6.39459e-06
4.17723e-08
6.39896e-06
4.35235e-08
6.40313e-06
4.40852e-08
6.40706e-06
4.37778e-08
6.41076e-06
4.29678e-08
6.41426e-06
4.18992e-08
6.41759e-06
4.07007e-08
6.42079e-06
3.94523e-08
6.42389e-06
3.8206e-08
6.42696e-06
3.6983e-08
6.43003e-06
3.57728e-08
6.43315e-06
3.4537e-08
6.43633e-06
3.32109e-08
3.17402e-08
6.43954e-06
5.74175e-06
7.12707e-09
5.74433e-06
1.98964e-08
5.74782e-06
2.91598e-08
5.75153e-06
3.47947e-08
5.75527e-06
3.80322e-08
5.75898e-06
3.98098e-08
5.76258e-06
4.04871e-08
5.76601e-06
4.03501e-08
5.76927e-06
3.97119e-08
5.77237e-06
3.87969e-08
5.77534e-06
3.77305e-08
5.7782e-06
3.65881e-08
5.78099e-06
3.54165e-08
5.78374e-06
3.4235e-08
5.78648e-06
3.30361e-08
5.78922e-06
3.17918e-08
5.79198e-06
3.04571e-08
2.90077e-08
5.79471e-06
6.99913e-06
6.15182e-09
7.00186e-06
1.71689e-08
7.00564e-06
2.53828e-08
7.00979e-06
3.06423e-08
7.01405e-06
3.37701e-08
7.01833e-06
3.55318e-08
7.02252e-06
3.62943e-08
7.02656e-06
3.63113e-08
7.03043e-06
3.58415e-08
7.03414e-06
3.50833e-08
7.03772e-06
3.41556e-08
7.04118e-06
3.31283e-08
7.04455e-06
3.20439e-08
7.04786e-06
3.09212e-08
7.05114e-06
2.97582e-08
7.05439e-06
2.85389e-08
7.05762e-06
2.72365e-08
2.58499e-08
7.06077e-06
8.53188e-06
5.12307e-09
8.53473e-06
1.4319e-08
8.53876e-06
2.13458e-08
8.54335e-06
2.60563e-08
8.54816e-06
2.89622e-08
8.55304e-06
3.06449e-08
8.55789e-06
3.14445e-08
8.56262e-06
3.15833e-08
8.5672e-06
3.12672e-08
8.57162e-06
3.0663e-08
8.57589e-06
2.98782e-08
8.58004e-06
2.89766e-08
8.58409e-06
2.79967e-08
8.58806e-06
2.69582e-08
8.59195e-06
2.58655e-08
8.59577e-06
2.47138e-08
8.59952e-06
2.34917e-08
2.22136e-08
8.60315e-06
1.04003e-05
4.0512e-09
1.04032e-05
1.13637e-08
1.04075e-05
1.70666e-08
1.04125e-05
2.10415e-08
1.04179e-05
2.3585e-08
1.04235e-05
2.5101e-08
1.0429e-05
2.58718e-08
1.04345e-05
2.60835e-08
1.04399e-05
2.58938e-08
1.04451e-05
2.54339e-08
1.04502e-05
2.47942e-08
1.04552e-05
2.4031e-08
1.046e-05
2.31789e-08
1.04647e-05
2.22582e-08
1.04693e-05
2.12787e-08
1.04737e-05
2.02445e-08
1.04781e-05
1.91548e-08
1.80325e-08
1.04823e-05
1.26779e-05
2.94151e-09
1.2681e-05
8.29384e-09
1.26855e-05
1.2535e-08
1.2691e-05
1.55844e-08
1.26969e-05
1.76012e-08
1.27032e-05
1.88372e-08
1.27096e-05
1.94957e-08
1.27159e-05
1.97178e-08
1.27222e-05
1.96162e-08
1.27284e-05
1.92845e-08
1.27344e-05
1.87916e-08
1.27402e-05
1.81829e-08
1.27459e-05
1.74878e-08
1.27514e-05
1.67254e-08
1.27568e-05
1.59082e-08
1.2762e-05
1.50454e-08
1.2767e-05
1.41418e-08
1.32231e-08
1.27718e-05
1.54543e-05
1.7824e-09
1.54576e-05
5.05708e-09
1.54624e-05
7.68184e-09
1.54684e-05
9.61205e-09
1.54751e-05
1.09234e-08
1.54822e-05
1.17463e-08
1.54895e-05
1.21968e-08
1.54968e-05
1.236e-08
1.55041e-05
1.23031e-08
1.55113e-05
1.20822e-08
1.55184e-05
1.17402e-08
1.55253e-05
1.13074e-08
1.5532e-05
1.08044e-08
1.55384e-05
1.02464e-08
1.55447e-05
9.64479e-09
1.55507e-05
9.00918e-09
1.55565e-05
8.34584e-09
7.67877e-09
1.55621e-05
1.88389e-05
5.31739e-10
1.88424e-05
1.52047e-09
1.88478e-05
2.31792e-09
1.88545e-05
2.9152e-09
1.88621e-05
3.33515e-09
1.88702e-05
3.6078e-09
1.88787e-05
3.75597e-09
1.88872e-05
3.79842e-09
1.88958e-05
3.75325e-09
1.89042e-05
3.63648e-09
1.89125e-05
3.46074e-09
1.89206e-05
3.23585e-09
1.89284e-05
2.96984e-09
1.8936e-05
2.66967e-09
1.89433e-05
2.34159e-09
1.89503e-05
1.99201e-09
1.8957e-05
1.62513e-09
1.26011e-09
1.89634e-05
2.29648e-05
-9.18516e-10
2.29689e-05
-2.6199e-09
2.29752e-05
-3.99741e-09
2.29832e-05
-5.00696e-09
2.29922e-05
-5.66444e-09
2.30018e-05
-6.05605e-09
2.30119e-05
-6.27488e-09
2.3022e-05
-6.37959e-09
2.30322e-05
-6.40705e-09
2.30422e-05
-6.38869e-09
2.3052e-05
-6.34999e-09
2.30616e-05
-6.3073e-09
2.30708e-05
-6.26967e-09
2.30797e-05
-6.24192e-09
2.30883e-05
-6.22623e-09
2.30965e-05
-6.22242e-09
2.31044e-05
-6.23044e-09
-6.23793e-09
2.31119e-05
1.68119e-05
-2.06715e-09
1.68151e-05
-5.86354e-09
1.682e-05
-8.93982e-09
1.68262e-05
-1.11507e-08
1.68331e-05
-1.25442e-08
1.68404e-05
-1.33542e-08
1.68479e-05
-1.37844e-08
1.68554e-05
-1.39429e-08
1.68629e-05
-1.39049e-08
1.68703e-05
-1.3741e-08
1.68774e-05
-1.35063e-08
1.68844e-05
-1.32353e-08
1.6891e-05
-1.29486e-08
1.68975e-05
-1.26597e-08
1.69036e-05
-1.23768e-08
1.69095e-05
-1.2104e-08
1.69151e-05
-1.18437e-08
-1.15878e-08
1.69205e-05
1.46357e-05
-3.17937e-09
1.46388e-05
-9.03226e-09
1.46437e-05
-1.37789e-08
1.46496e-05
-1.70529e-08
1.4656e-05
-1.89999e-08
1.46628e-05
-2.00942e-08
1.46696e-05
-2.0638e-08
1.46765e-05
-2.07655e-08
1.46832e-05
-2.05965e-08
1.46897e-05
-2.02475e-08
1.4696e-05
-1.97977e-08
1.4702e-05
-1.92927e-08
1.47078e-05
-1.87613e-08
1.47134e-05
-1.82238e-08
1.47187e-05
-1.76931e-08
1.47238e-05
-1.71757e-08
1.47286e-05
-1.66757e-08
-1.61876e-08
1.47332e-05
1.27412e-05
-4.23088e-09
1.27444e-05
-1.22519e-08
1.27494e-05
-1.87509e-08
1.27552e-05
-2.28664e-08
1.27613e-05
-2.51377e-08
1.27676e-05
-2.64095e-08
1.2774e-05
-2.69858e-08
1.27802e-05
-2.69936e-08
1.27862e-05
-2.66244e-08
1.2792e-05
-2.60497e-08
1.27976e-05
-2.53645e-08
1.28029e-05
-2.46185e-08
1.2808e-05
-2.3846e-08
1.28129e-05
-2.30718e-08
1.28175e-05
-2.2311e-08
1.28219e-05
-2.1571e-08
1.28261e-05
-2.08558e-08
-2.01612e-08
1.283e-05
1.10918e-05
-5.11109e-09
1.10951e-05
-1.55823e-08
1.11004e-05
-2.40595e-08
1.11062e-05
-2.86653e-08
1.11121e-05
-3.10002e-08
1.11181e-05
-3.23534e-08
1.11239e-05
-3.2873e-08
1.11296e-05
-3.26781e-08
1.11351e-05
-3.20605e-08
1.11402e-05
-3.12365e-08
1.11452e-05
-3.03035e-08
1.11499e-05
-2.93128e-08
1.11543e-05
-2.8304e-08
1.11586e-05
-2.73047e-08
1.11626e-05
-2.633e-08
1.11664e-05
-2.53865e-08
1.117e-05
-2.44776e-08
-2.35995e-08
1.11735e-05
9.65583e-06
-5.72775e-09
9.65936e-06
-1.91138e-08
9.66498e-06
-2.9672e-08
9.67067e-06
-3.43637e-08
9.67633e-06
-3.66576e-08
9.68199e-06
-3.80106e-08
9.68745e-06
-3.83316e-08
9.69261e-06
-3.78401e-08
9.69749e-06
-3.69437e-08
9.70212e-06
-3.58646e-08
9.7065e-06
-3.4683e-08
9.71064e-06
-3.34501e-08
9.71454e-06
-3.2211e-08
9.71823e-06
-3.09948e-08
9.72172e-06
-2.9816e-08
9.72501e-06
-2.86803e-08
9.72813e-06
-2.7589e-08
-2.65371e-08
9.73106e-06
8.40543e-06
-5.81008e-09
8.40982e-06
-2.34946e-08
8.41533e-06
-3.51848e-08
8.42053e-06
-3.95666e-08
8.42598e-06
-4.21032e-08
8.43147e-06
-4.34999e-08
8.43664e-06
-4.35023e-08
8.44142e-06
-4.26222e-08
8.44587e-06
-4.13957e-08
8.45003e-06
-4.00227e-08
8.45391e-06
-3.85607e-08
8.45752e-06
-3.70618e-08
8.46088e-06
-3.55737e-08
8.46401e-06
-3.41256e-08
8.46693e-06
-3.2731e-08
8.46964e-06
-3.13959e-08
8.47217e-06
-3.01209e-08
-2.89022e-08
8.47454e-06
7.31506e-06
-3.58512e-09
7.32195e-06
-3.03847e-08
7.32741e-06
-4.06425e-08
7.33219e-06
-4.4345e-08
7.33751e-06
-4.74278e-08
7.3429e-06
-4.88887e-08
7.34788e-06
-4.84805e-08
7.35238e-06
-4.71215e-08
7.35644e-06
-4.54587e-08
7.36009e-06
-4.36707e-08
7.36334e-06
-4.18165e-08
7.36624e-06
-3.99594e-08
7.36882e-06
-3.8149e-08
7.3711e-06
-3.64113e-08
7.37313e-06
-3.47581e-08
7.37493e-06
-3.31938e-08
7.37652e-06
-3.17156e-08
-3.03172e-08
7.37794e-06
6.36222e-06
4.25852e-09
6.37295e-06
-4.11135e-08
6.38008e-06
-4.77752e-08
6.38627e-06
-5.05329e-08
6.39225e-06
-5.34064e-08
6.39755e-06
-5.41869e-08
6.40192e-06
-5.28513e-08
6.40551e-06
-5.07114e-08
6.40843e-06
-4.83812e-08
6.41073e-06
-4.5973e-08
6.41247e-06
-4.35545e-08
6.41372e-06
-4.12033e-08
6.41454e-06
-3.89681e-08
6.41499e-06
-3.68684e-08
6.41515e-06
-3.49108e-08
6.41505e-06
-3.30966e-08
6.41475e-06
-3.14173e-08
-2.98525e-08
6.41428e-06
5.53608e-06
1.36421e-08
5.54776e-06
-5.27904e-08
5.55745e-06
-5.74663e-08
5.56602e-06
-5.91078e-08
5.5728e-06
-6.01806e-08
5.57723e-06
-5.86159e-08
5.57938e-06
-5.50071e-08
5.57983e-06
-5.1156e-08
5.57898e-06
-4.75372e-08
5.57713e-06
-4.41223e-08
5.5745e-06
-4.09187e-08
5.57126e-06
-3.79642e-08
5.56756e-06
-3.52723e-08
5.56353e-06
-3.28346e-08
5.55925e-06
-3.06367e-08
5.55483e-06
-2.86757e-08
5.55036e-06
-2.69423e-08
-2.53757e-08
5.54588e-06
4.85751e-06
-1.62585e-08
4.86091e-06
-5.61935e-08
4.86151e-06
-5.80622e-08
4.85884e-06
-5.64446e-08
4.85484e-06
-5.6179e-08
4.84815e-06
-5.19277e-08
4.83891e-06
-4.57621e-08
4.82767e-06
-3.99146e-08
4.81507e-06
-3.49388e-08
4.8017e-06
-3.07576e-08
4.78802e-06
-2.72351e-08
4.77432e-06
-2.42681e-08
4.76082e-06
-2.17657e-08
4.74763e-06
-1.96489e-08
4.73485e-06
-1.78546e-08
4.72255e-06
-1.6373e-08
4.71084e-06
-1.52306e-08
-1.49204e-08
4.70038e-06
4.18642e-06
4.13022e-06
4.07216e-06
4.01572e-06
3.95954e-06
3.90761e-06
3.86185e-06
3.82193e-06
3.787e-06
3.75624e-06
3.729e-06
3.70473e-06
3.68297e-06
3.66332e-06
3.64547e-06
3.62909e-06
3.61386e-06
3.59894e-06
1.18225e-08
-1.18225e-08
2.48309e-08
-1.30084e-08
3.40719e-08
-9.241e-09
3.80729e-08
-4.00105e-09
3.64267e-08
1.64622e-09
2.96413e-08
6.78538e-09
1.85377e-08
1.11036e-08
4.07711e-09
1.44606e-08
-1.28769e-08
1.69541e-08
-3.16751e-08
1.87981e-08
-5.18834e-08
2.02083e-08
-7.32379e-08
2.13546e-08
-9.559e-08
2.23521e-08
-1.18856e-07
2.32661e-08
-1.42983e-07
2.41265e-08
-1.67924e-07
2.49414e-08
-1.93632e-07
2.57082e-08
-2.20054e-07
2.64218e-08
-2.47134e-07
2.70801e-08
-2.74821e-07
2.76867e-08
-3.0307e-07
2.82488e-08
-3.31833e-07
2.87638e-08
-3.61035e-07
2.92012e-08
-3.90549e-07
2.95139e-08
-4.20295e-07
2.97468e-08
-4.50829e-07
3.05334e-08
-4.83718e-07
3.28896e-08
-5.16559e-07
3.28406e-08
-5.46701e-07
3.0142e-08
-5.79772e-07
3.30713e-08
-6.14854e-07
3.50815e-08
-6.48923e-07
3.40696e-08
-6.83326e-07
3.44026e-08
-7.20176e-07
3.68501e-08
-7.60091e-07
3.9915e-08
-8.00097e-07
4.00057e-08
-8.39138e-07
3.90411e-08
-8.80902e-07
4.17638e-08
-9.20583e-07
3.96815e-08
-9.56303e-07
3.57204e-08
-9.94609e-07
3.83053e-08
-1.03401e-06
3.94056e-08
-1.07411e-06
4.00925e-08
-1.1146e-06
4.0495e-08
-1.15533e-06
4.07293e-08
-1.19619e-06
4.08622e-08
-1.23713e-06
4.09317e-08
-1.27809e-06
4.09602e-08
-1.31905e-06
4.09601e-08
-1.35998e-06
4.09383e-08
-1.40088e-06
4.08982e-08
-1.44172e-06
4.08408e-08
-1.48249e-06
4.07659e-08
-1.52316e-06
4.06724e-08
-1.56372e-06
4.05586e-08
-1.60414e-06
4.04226e-08
-1.6444e-06
4.02624e-08
-1.68448e-06
4.00757e-08
-1.72434e-06
3.98606e-08
-1.76396e-06
3.9615e-08
-1.80329e-06
3.93371e-08
-1.84232e-06
3.90251e-08
-1.881e-06
3.86775e-08
-1.91929e-06
3.82928e-08
-1.95716e-06
3.78698e-08
-1.99457e-06
3.74075e-08
-2.03147e-06
3.6905e-08
-2.06783e-06
3.63615e-08
-2.10361e-06
3.57767e-08
-2.13876e-06
3.51501e-08
-2.17324e-06
3.44815e-08
-2.20701e-06
3.37709e-08
-2.24003e-06
3.30184e-08
-2.27225e-06
3.22242e-08
-2.30364e-06
3.13886e-08
-2.33415e-06
3.0512e-08
-2.36375e-06
2.95951e-08
-2.39239e-06
2.86384e-08
-2.42003e-06
2.76426e-08
-2.44664e-06
2.66083e-08
-2.47218e-06
2.55362e-08
-2.4966e-06
2.4427e-08
-2.51988e-06
2.32814e-08
-2.54198e-06
2.20997e-08
-2.56287e-06
2.08823e-08
-2.58249e-06
1.96293e-08
-2.60084e-06
1.83405e-08
-2.61785e-06
1.70153e-08
-2.6335e-06
1.56526e-08
-2.64775e-06
1.42503e-08
-2.66056e-06
1.28056e-08
-2.67187e-06
1.13146e-08
-2.68164e-06
9.76993e-09
-2.68981e-06
8.16283e-09
-2.69629e-06
6.48037e-09
-2.70099e-06
4.70683e-09
-2.70383e-06
2.83672e-09
-2.70468e-06
8.48142e-10
-2.7037e-06
-9.75822e-10
-2.70111e-06
-2.59676e-09
-2.69695e-06
-4.15573e-09
-2.69125e-06
-5.69584e-09
-2.68402e-06
-7.23635e-09
-2.67523e-06
-8.78453e-09
-2.66489e-06
-1.03413e-08
-2.65299e-06
-1.19058e-08
-2.63951e-06
-1.34762e-08
-2.62446e-06
-1.50505e-08
-2.60783e-06
-1.66268e-08
-2.58963e-06
-1.82028e-08
-2.56985e-06
-1.97764e-08
-2.54851e-06
-2.13455e-08
-2.5256e-06
-2.29079e-08
-2.50114e-06
-2.44615e-08
-2.47513e-06
-2.60042e-08
-2.4476e-06
-2.75339e-08
-2.41855e-06
-2.90483e-08
-2.38801e-06
-3.05454e-08
-2.35598e-06
-3.20231e-08
-2.3225e-06
-3.34793e-08
-2.28759e-06
-3.4912e-08
-2.25127e-06
-3.63192e-08
-2.21357e-06
-3.76991e-08
-2.17452e-06
-3.90498e-08
-2.13416e-06
-4.03694e-08
-2.0925e-06
-4.16562e-08
-2.04959e-06
-4.29085e-08
-2.00547e-06
-4.41243e-08
-1.96016e-06
-4.53022e-08
-1.91372e-06
-4.64407e-08
-1.86618e-06
-4.75383e-08
-1.81759e-06
-4.85937e-08
-1.76799e-06
-4.96058e-08
-1.71741e-06
-5.05734e-08
-1.66592e-06
-5.14954e-08
-1.61355e-06
-5.23708e-08
-1.56035e-06
-5.31987e-08
-1.50637e-06
-5.39788e-08
-1.45166e-06
-5.47103e-08
-1.39627e-06
-5.53929e-08
-1.34024e-06
-5.60263e-08
-1.28363e-06
-5.66102e-08
-1.22648e-06
-5.71449e-08
-1.16885e-06
-5.76305e-08
-1.11079e-06
-5.80674e-08
-1.05233e-06
-5.84559e-08
-9.93533e-07
-5.87967e-08
-9.34443e-07
-5.90909e-08
-8.75103e-07
-5.93392e-08
-8.1556e-07
-5.95428e-08
-7.55858e-07
-5.97029e-08
-6.96037e-07
-5.9821e-08
-6.36138e-07
-5.98985e-08
-5.76201e-07
-5.99368e-08
-5.16264e-07
-5.99376e-08
-4.56361e-07
-5.99022e-08
-3.9653e-07
-5.98316e-08
-3.36804e-07
-5.97262e-08
-2.77217e-07
-5.95867e-08
-2.17807e-07
-5.94099e-08
-1.58614e-07
-5.91935e-08
-9.96737e-08
-5.89399e-08
-4.10315e-08
-5.86422e-08
1.72672e-08
-5.82986e-08
7.51765e-08
-5.79093e-08
1.3269e-07
-5.75135e-08
1.89823e-07
-5.71328e-08
2.46595e-07
-5.67725e-08
3.03015e-07
-5.64201e-08
3.59077e-07
-5.60615e-08
4.14757e-07
-5.56801e-08
4.70009e-07
-5.5252e-08
5.24747e-07
-5.47377e-08
5.78815e-07
-5.40682e-08
6.31922e-07
-5.31069e-08
6.83499e-07
-5.15777e-08
7.32256e-07
-4.87564e-08
7.75189e-07
-4.29327e-08
8.03943e-07
-2.8754e-08
1.39182e-08
7.90024e-07
9.50925e-09
-2.13317e-08
1.29455e-08
-1.64447e-08
1.12569e-08
-7.55231e-09
5.88301e-09
1.3728e-09
-2.39344e-09
9.92267e-09
-1.33662e-08
1.77581e-08
-2.69265e-08
2.4664e-08
-4.29862e-08
3.05202e-08
-6.13813e-08
3.53491e-08
-8.18756e-08
3.92924e-08
-1.04213e-07
4.25453e-08
-1.28156e-07
4.52984e-08
-1.53512e-07
4.77072e-08
-1.80128e-07
4.98827e-08
-2.07897e-07
5.18957e-08
-2.36743e-07
5.37873e-08
-2.66616e-07
5.55805e-08
-2.97484e-07
5.72899e-08
-3.29333e-07
5.89291e-08
-3.6216e-07
6.05139e-08
-3.95971e-07
6.206e-08
-4.30782e-07
6.35746e-08
-4.66629e-07
6.5048e-08
-5.0358e-07
6.64656e-08
-5.41717e-07
6.78836e-08
-5.80728e-07
6.95447e-08
-6.19403e-07
7.15646e-08
-6.59554e-07
7.29916e-08
-7.02957e-07
7.35449e-08
-7.44868e-07
7.49822e-08
-7.8643e-07
7.66431e-08
-8.29811e-07
7.7451e-08
-8.73738e-07
7.83298e-08
-9.16434e-07
7.95462e-08
-9.57325e-07
8.08057e-08
-9.98487e-07
8.11676e-08
-1.04055e-06
8.11047e-08
-1.08e-06
8.12108e-08
-1.1209e-06
8.0584e-08
-1.16452e-06
7.93357e-08
-1.2055e-06
7.92873e-08
-1.24542e-06
7.9326e-08
-1.28465e-06
7.93284e-08
-1.32344e-06
7.9282e-08
-1.3619e-06
7.91863e-08
-1.40008e-06
7.90494e-08
-1.43803e-06
7.88789e-08
-1.47575e-06
7.86802e-08
-1.51325e-06
7.84561e-08
-1.55052e-06
7.82071e-08
-1.58755e-06
7.79325e-08
-1.62434e-06
7.76298e-08
-1.66087e-06
7.72962e-08
-1.69713e-06
7.69282e-08
-1.73309e-06
7.65218e-08
-1.76874e-06
7.60734e-08
-1.80406e-06
7.5579e-08
-1.83902e-06
7.50349e-08
-1.87359e-06
7.44376e-08
-1.90776e-06
7.37837e-08
-1.94149e-06
7.30701e-08
-1.97476e-06
7.22942e-08
-2.00754e-06
7.14535e-08
-2.03979e-06
7.05457e-08
-2.07149e-06
6.9569e-08
-2.10261e-06
6.85219e-08
-2.1331e-06
6.74031e-08
-2.16295e-06
6.62116e-08
-2.19212e-06
6.49467e-08
-2.22058e-06
6.3608e-08
-2.2483e-06
6.21954e-08
-2.27523e-06
6.07088e-08
-2.30136e-06
5.91485e-08
-2.32665e-06
5.7515e-08
-2.35108e-06
5.58089e-08
-2.37459e-06
5.40311e-08
-2.39718e-06
5.21824e-08
-2.41881e-06
5.02639e-08
-2.43944e-06
4.82768e-08
-2.45906e-06
4.6222e-08
-2.47762e-06
4.4101e-08
-2.49511e-06
4.19147e-08
-2.51149e-06
3.96643e-08
-2.52674e-06
3.73507e-08
-2.54083e-06
3.49748e-08
-2.55374e-06
3.25372e-08
-2.56544e-06
3.00383e-08
-2.5759e-06
2.74781e-08
-2.58511e-06
2.48565e-08
-2.59303e-06
2.2173e-08
-2.59965e-06
1.94269e-08
-2.60495e-06
1.66179e-08
-2.60893e-06
1.37456e-08
-2.61158e-06
1.08114e-08
-2.61292e-06
7.81985e-09
-2.61299e-06
4.78195e-09
-2.61188e-06
1.72781e-09
-2.60972e-06
-1.31464e-09
-2.60638e-06
-4.31463e-09
-2.60169e-06
-7.29173e-09
-2.59555e-06
-1.02941e-08
-2.58792e-06
-1.33205e-08
-2.57879e-06
-1.637e-08
-2.56813e-06
-1.94416e-08
-2.55594e-06
-2.25325e-08
-2.54221e-06
-2.56392e-08
-2.52693e-06
-2.87578e-08
-2.51009e-06
-3.18841e-08
-2.49171e-06
-3.5014e-08
-2.47177e-06
-3.81433e-08
-2.45027e-06
-4.12675e-08
-2.42724e-06
-4.43825e-08
-2.40266e-06
-4.74841e-08
-2.37656e-06
-5.05681e-08
-2.34893e-06
-5.36301e-08
-2.3198e-06
-5.6666e-08
-2.28917e-06
-5.96716e-08
-2.25708e-06
-6.26426e-08
-2.22352e-06
-6.55748e-08
-2.18854e-06
-6.84641e-08
-2.15215e-06
-7.13066e-08
-2.11437e-06
-7.40983e-08
-2.07523e-06
-7.68354e-08
-2.03477e-06
-7.95143e-08
-1.993e-06
-8.21313e-08
-1.94998e-06
-8.46829e-08
-1.90572e-06
-8.71655e-08
-1.86027e-06
-8.95758e-08
-1.81366e-06
-9.19105e-08
-1.76593e-06
-9.41665e-08
-1.71713e-06
-9.63411e-08
-1.66729e-06
-9.84316e-08
-1.61646e-06
-1.00436e-07
-1.56469e-06
-1.02351e-07
-1.51201e-06
-1.04176e-07
-1.45847e-06
-1.05908e-07
-1.40412e-06
-1.07545e-07
-1.34901e-06
-1.09087e-07
-1.29319e-06
-1.10532e-07
-1.23671e-06
-1.1188e-07
-1.1796e-06
-1.1313e-07
-1.12193e-06
-1.14281e-07
-1.06374e-06
-1.15334e-07
-1.00508e-06
-1.16289e-07
-9.46004e-07
-1.17148e-07
-8.8655e-07
-1.1791e-07
-8.2677e-07
-1.18577e-07
-7.66709e-07
-1.19151e-07
-7.06415e-07
-1.19634e-07
-6.4593e-07
-1.20028e-07
-5.85298e-07
-1.20335e-07
-5.2456e-07
-1.20559e-07
-4.63756e-07
-1.20702e-07
-4.02926e-07
-1.20767e-07
-3.42106e-07
-1.20758e-07
-2.81331e-07
-1.20677e-07
-2.20636e-07
-1.20527e-07
-1.60054e-07
-1.20308e-07
-9.96169e-08
-1.20024e-07
-3.9356e-08
-1.19671e-07
2.06963e-08
-1.19246e-07
8.05063e-08
-1.1875e-07
1.40047e-07
-1.18183e-07
1.99302e-07
-1.17554e-07
2.58269e-07
-1.16876e-07
3.16939e-07
-1.16184e-07
3.75306e-07
-1.155e-07
4.33364e-07
-1.1483e-07
4.91105e-07
-1.14161e-07
5.48515e-07
-1.13471e-07
6.05564e-07
-1.12729e-07
6.622e-07
-1.11889e-07
7.18333e-07
-1.1087e-07
7.738e-07
-1.09536e-07
8.28314e-07
-1.07621e-07
8.81349e-07
-1.04613e-07
9.31889e-07
-9.92968e-08
9.78235e-07
-8.92779e-08
1.01708e-06
-6.75977e-08
-1.74357e-08
1.04843e-06
9.2508e-10
-2.22568e-08
-4.46705e-09
-1.10525e-08
-1.30786e-08
1.05926e-09
-2.38473e-08
1.21415e-08
-3.63686e-08
2.24439e-08
-5.05332e-08
3.19227e-08
-6.63632e-08
4.04941e-08
-8.39347e-08
4.80917e-08
-1.03302e-07
5.47167e-08
-1.24457e-07
6.04466e-08
-1.47324e-07
6.54126e-08
-1.71791e-07
6.97656e-08
-1.97732e-07
7.3648e-08
-2.25026e-07
7.71773e-08
-2.53572e-07
8.04418e-08
-2.83289e-07
8.35035e-08
-3.14113e-07
8.64046e-08
-3.45998e-07
8.9175e-08
-3.78906e-07
9.18376e-08
-4.12803e-07
9.44106e-08
-4.47649e-07
9.69061e-08
-4.834e-07
9.93258e-08
-5.20011e-07
1.01659e-07
-5.57439e-07
1.03893e-07
-5.95595e-07
1.0604e-07
-6.34185e-07
1.08135e-07
-6.72753e-07
1.10132e-07
-7.11601e-07
1.1184e-07
-7.51221e-07
1.13165e-07
-7.90609e-07
1.1437e-07
-8.29439e-07
1.15473e-07
-8.68241e-07
1.16254e-07
-9.0677e-07
1.16859e-07
-9.44566e-07
1.17342e-07
-9.81406e-07
1.17646e-07
-1.01786e-06
1.17622e-07
-1.05409e-06
1.17337e-07
-1.08973e-06
1.1685e-07
-1.12533e-06
1.16186e-07
-1.16146e-06
1.15465e-07
-1.19709e-06
1.14916e-07
-1.23225e-06
1.14481e-07
-1.26702e-06
1.14103e-07
-1.30149e-06
1.13751e-07
-1.33571e-06
1.13405e-07
-1.36971e-06
1.13055e-07
-1.40353e-06
1.12694e-07
-1.43717e-06
1.12317e-07
-1.47063e-06
1.11919e-07
-1.50392e-06
1.11494e-07
-1.53702e-06
1.11038e-07
-1.56994e-06
1.10545e-07
-1.60265e-06
1.10008e-07
-1.63514e-06
1.09423e-07
-1.66741e-06
1.08784e-07
-1.69942e-06
1.08084e-07
-1.73115e-06
1.07318e-07
-1.7626e-06
1.06481e-07
-1.79373e-06
1.05567e-07
-1.82452e-06
1.04573e-07
-1.85494e-06
1.03494e-07
-1.88498e-06
1.02327e-07
-1.91459e-06
1.01067e-07
-1.94375e-06
9.97114e-08
-1.97244e-06
9.82583e-08
-2.00063e-06
9.67051e-08
-2.02827e-06
9.505e-08
-2.05535e-06
9.32916e-08
-2.08184e-06
9.14288e-08
-2.10769e-06
8.94609e-08
-2.13288e-06
8.73877e-08
-2.15738e-06
8.5209e-08
-2.18116e-06
8.2925e-08
-2.20418e-06
8.05365e-08
-2.22641e-06
7.80441e-08
-2.24783e-06
7.54489e-08
-2.2684e-06
7.2752e-08
-2.28809e-06
6.9955e-08
-2.30688e-06
6.70592e-08
-2.32472e-06
6.40664e-08
-2.3416e-06
6.09783e-08
-2.35748e-06
5.77966e-08
-2.37234e-06
5.4523e-08
-2.38615e-06
5.11592e-08
-2.39888e-06
4.77068e-08
-2.41051e-06
4.41674e-08
-2.42101e-06
4.05425e-08
-2.43037e-06
3.68334e-08
-2.43855e-06
3.30414e-08
-2.44555e-06
2.91681e-08
-2.45134e-06
2.52155e-08
-2.45591e-06
2.11863e-08
-2.45924e-06
1.70847e-08
-2.46135e-06
1.29166e-08
-2.46222e-06
8.69136e-09
-2.46186e-06
4.42443e-09
-2.46025e-06
1.14873e-10
-2.45738e-06
-4.18314e-09
-2.45318e-06
-8.51918e-09
-2.44758e-06
-1.28925e-08
-2.44056e-06
-1.73152e-08
-2.43209e-06
-2.17844e-08
-2.42217e-06
-2.62953e-08
-2.41077e-06
-3.08423e-08
-2.39788e-06
-3.54194e-08
-2.3835e-06
-4.00208e-08
-2.36761e-06
-4.46401e-08
-2.35023e-06
-4.92711e-08
-2.33133e-06
-5.39075e-08
-2.31093e-06
-5.85429e-08
-2.28903e-06
-6.3171e-08
-2.26563e-06
-6.77855e-08
-2.24073e-06
-7.238e-08
-2.21435e-06
-7.69485e-08
-2.1865e-06
-8.14845e-08
-2.15718e-06
-8.59819e-08
-2.12642e-06
-9.04344e-08
-2.09423e-06
-9.48356e-08
-2.06062e-06
-9.91795e-08
-2.02563e-06
-1.0346e-07
-1.98926e-06
-1.07671e-07
-1.95155e-06
-1.11806e-07
-1.91253e-06
-1.15861e-07
-1.87221e-06
-1.19829e-07
-1.83064e-06
-1.23705e-07
-1.78784e-06
-1.27484e-07
-1.74384e-06
-1.31161e-07
-1.69869e-06
-1.34731e-07
-1.65241e-06
-1.38188e-07
-1.60505e-06
-1.41529e-07
-1.55664e-06
-1.44749e-07
-1.50723e-06
-1.47844e-07
-1.45685e-06
-1.5081e-07
-1.40556e-06
-1.53645e-07
-1.35339e-06
-1.56346e-07
-1.30039e-06
-1.58908e-07
-1.2466e-06
-1.6133e-07
-1.19208e-06
-1.6361e-07
-1.13687e-06
-1.65746e-07
-1.08101e-06
-1.67738e-07
-1.02455e-06
-1.69585e-07
-9.67549e-07
-1.71285e-07
-9.10044e-07
-1.72839e-07
-8.52085e-07
-1.74248e-07
-7.93719e-07
-1.75513e-07
-7.34993e-07
-1.76635e-07
-6.75954e-07
-1.77617e-07
-6.16645e-07
-1.7846e-07
-5.57112e-07
-1.79167e-07
-4.97397e-07
-1.79743e-07
-4.37542e-07
-1.8019e-07
-3.77588e-07
-1.80513e-07
-3.17574e-07
-1.80716e-07
-2.57537e-07
-1.80804e-07
-1.97513e-07
-1.80782e-07
-1.37536e-07
-1.80654e-07
-7.76389e-08
-1.80424e-07
-1.78515e-08
-1.80096e-07
4.17953e-08
-1.79671e-07
1.01272e-07
-1.79148e-07
1.60555e-07
-1.78528e-07
2.19618e-07
-1.77814e-07
2.7845e-07
-1.77014e-07
3.37049e-07
-1.76153e-07
3.95423e-07
-1.7525e-07
4.53558e-07
-1.74318e-07
5.11433e-07
-1.73376e-07
5.69033e-07
-1.7243e-07
6.2634e-07
-1.71469e-07
6.83337e-07
-1.70467e-07
7.3999e-07
-1.69382e-07
7.96247e-07
-1.68146e-07
8.52019e-07
-1.66642e-07
9.07155e-07
-1.64672e-07
9.61403e-07
-1.61869e-07
1.01434e-06
-1.57546e-07
1.0653e-06
-1.50257e-07
1.11334e-06
-1.3732e-07
1.15803e-06
-1.12295e-07
-6.30753e-08
1.20367e-06
-7.56968e-09
-1.46872e-08
-1.94794e-08
8.57211e-10
-3.29387e-08
1.45185e-08
-4.75808e-08
2.67836e-08
-6.32448e-08
3.81079e-08
-7.99397e-08
4.86176e-08
-9.7751e-08
5.83054e-08
-1.16796e-07
6.71368e-08
-1.37183e-07
7.51035e-08
-1.58979e-07
8.22423e-08
-1.82198e-07
8.86317e-08
-2.06807e-07
9.43754e-08
-2.32743e-07
9.95833e-08
-2.59922e-07
1.04356e-07
-2.88258e-07
1.08778e-07
-3.17667e-07
1.12912e-07
-3.48069e-07
1.16807e-07
-3.79387e-07
1.20493e-07
-4.11543e-07
1.23994e-07
-4.44454e-07
1.27321e-07
-4.78026e-07
1.30478e-07
-5.12157e-07
1.33457e-07
-5.4674e-07
1.36242e-07
-5.81661e-07
1.38814e-07
-6.16782e-07
1.4116e-07
-6.5192e-07
1.43273e-07
-6.86906e-07
1.45118e-07
-7.21705e-07
1.46639e-07
-7.56372e-07
1.47833e-07
-7.90763e-07
1.48761e-07
-8.24732e-07
1.49441e-07
-8.5834e-07
1.49862e-07
-8.9155e-07
1.50068e-07
-9.24311e-07
1.50103e-07
-9.5663e-07
1.49965e-07
-9.88646e-07
1.49637e-07
-1.02044e-06
1.49133e-07
-1.05208e-06
1.48489e-07
-1.08365e-06
1.47759e-07
-1.11522e-06
1.47027e-07
-1.14666e-06
1.46365e-07
-1.17796e-06
1.45771e-07
-1.20908e-06
1.45232e-07
-1.24006e-06
1.44729e-07
-1.27091e-06
1.44247e-07
-1.30162e-06
1.43773e-07
-1.33222e-06
1.43295e-07
-1.36271e-06
1.42805e-07
-1.39309e-06
1.42292e-07
-1.42334e-06
1.41749e-07
-1.45347e-06
1.41167e-07
-1.48346e-06
1.40537e-07
-1.5133e-06
1.39852e-07
-1.54298e-06
1.39102e-07
-1.57248e-06
1.38282e-07
-1.60178e-06
1.37382e-07
-1.63086e-06
1.36397e-07
-1.6597e-06
1.35319e-07
-1.68827e-06
1.34141e-07
-1.71656e-06
1.32859e-07
-1.74453e-06
1.31466e-07
-1.77216e-06
1.29958e-07
-1.79943e-06
1.28331e-07
-1.82629e-06
1.2658e-07
-1.85274e-06
1.24702e-07
-1.87873e-06
1.22695e-07
-1.90423e-06
1.20555e-07
-1.92922e-06
1.18282e-07
-1.95367e-06
1.15873e-07
-1.97754e-06
1.13328e-07
-2.00079e-06
1.10646e-07
-2.02341e-06
1.07827e-07
-2.04536e-06
1.04872e-07
-2.0666e-06
1.0178e-07
-2.08711e-06
9.8553e-08
-2.10685e-06
9.51922e-08
-2.1258e-06
9.16992e-08
-2.14392e-06
8.80756e-08
-2.16119e-06
8.43234e-08
-2.17756e-06
8.04448e-08
-2.19303e-06
7.6442e-08
-2.20755e-06
7.23175e-08
-2.2211e-06
6.80737e-08
-2.23365e-06
6.37132e-08
-2.24519e-06
5.92383e-08
-2.25567e-06
5.46516e-08
-2.26508e-06
4.99556e-08
-2.2734e-06
4.51529e-08
-2.28061e-06
4.02462e-08
-2.28668e-06
3.52384e-08
-2.2916e-06
3.01332e-08
-2.29534e-06
2.49347e-08
-2.29791e-06
1.96484e-08
-2.29927e-06
1.4281e-08
-2.29942e-06
8.84092e-09
-2.29833e-06
3.33703e-09
-2.29599e-06
-2.22491e-09
-2.29234e-06
-7.83265e-09
-2.28736e-06
-1.35001e-08
-2.28102e-06
-1.92348e-08
-2.2733e-06
-2.50379e-08
-2.26418e-06
-3.09046e-08
-2.25365e-06
-3.68278e-08
-2.24169e-06
-4.27997e-08
-2.2283e-06
-4.8812e-08
-2.21346e-06
-5.48565e-08
-2.19718e-06
-6.09249e-08
-2.17944e-06
-6.70088e-08
-2.16025e-06
-7.30999e-08
-2.1396e-06
-7.91898e-08
-2.1175e-06
-8.52702e-08
-2.09395e-06
-9.13328e-08
-2.06896e-06
-9.73693e-08
-2.04254e-06
-1.03372e-07
-2.01469e-06
-1.09331e-07
-1.98543e-06
-1.1524e-07
-1.95478e-06
-1.2109e-07
-1.92274e-06