/*--------------------------------*- C++ -*----------------------------------*\
  =========                 |
  \\      /  F ield         | OpenFOAM: The Open Source CFD Toolbox
   \\    /   O peration     | Website:  https://openfoam.org
    \\  /    A nd           | Version:  12
     \\/     M anipulation  |
\*---------------------------------------------------------------------------*/
FoamFile
{
    format      ascii;
    class       volVectorField;
    location    "0.13";
    object      U;
}
// * * * * * * * * * * * * * * * * * * * * * * * * * * * * * * * * * * * * * //

dimensions      [0 1 -1 0 0 0 0];

internalField   nonuniform List<vector> 
12225
(
(9.86107 -0.874317 0)
(9.67246 -0.700189 0)
(9.45891 -0.387585 0)
(9.22456 -0.188468 0)
(9.00332 -0.0843819 0)
(8.81014 -0.0328608 0)
(8.64476 -0.00753113 0)
(8.50364 0.00504992 0)
(8.38331 0.0113686 0)
(8.28025 0.0145136 0)
(8.19106 0.0160208 0)
(8.11285 0.0167072 0)
(8.04321 0.0170184 0)
(7.98029 0.017254 0)
(7.92107 0.017609 0)
(7.86654 0.0188841 0)
(7.79502 0.0219379 0)
(7.76838 0.0319805 0)
(10.0547 0.263071 0)
(10.1201 0.360746 0)
(10.118 0.273831 0)
(10.0826 0.187103 0)
(10.0405 0.131183 0)
(9.9938 0.096954 0)
(9.93995 0.0755925 0)
(9.88015 0.0617952 0)
(9.81749 0.0524021 0)
(9.75446 0.0456014 0)
(9.6925 0.0404518 0)
(9.6324 0.0364959 0)
(9.57455 0.0334824 0)
(9.51932 0.0314058 0)
(9.46588 0.0301113 0)
(9.41683 0.0314717 0)
(9.36472 0.0328908 0)
(9.34013 0.0547211 0)
(9.99919 0.0460893 0)
(10.0244 0.0342179 0)
(10.0538 0.0149643 0)
(10.0707 0.0218333 0)
(10.0778 0.0367034 0)
(10.0782 0.046049 0)
(10.0721 0.0500009 0)
(10.06 0.051206 0)
(10.0436 0.0511306 0)
(10.0241 0.0504374 0)
(10.0025 0.0495 0)
(9.97928 0.0485686 0)
(9.95494 0.0477991 0)
(9.92992 0.0474415 0)
(9.90413 0.0475801 0)
(9.87866 0.0496469 0)
(9.85262 0.052782 0)
(9.83259 0.0652038 0)
(9.9968 0.00643116 0)
(10.0085 0.0250287 0)
(10.0342 0.0389561 0)
(10.0528 0.0503293 0)
(10.0643 0.0571453 0)
(10.073 0.0592142 0)
(10.0788 0.0589177 0)
(10.0814 0.0580166 0)
(10.0812 0.0570341 0)
(10.0791 0.0560474 0)
(10.0752 0.0551124 0)
(10.07 0.0543207 0)
(10.0636 0.0537699 0)
(10.0562 0.0536701 0)
(10.0479 0.0541718 0)
(10.0395 0.0562202 0)
(10.0313 0.0594781 0)
(10.0257 0.0666769 0)
(9.99922 0.0067418 0)
(10.0081 0.0335876 0)
(10.0271 0.0460674 0)
(10.0418 0.0508804 0)
(10.0523 0.0539622 0)
(10.0621 0.0555664 0)
(10.0706 0.0559319 0)
(10.0772 0.0557712 0)
(10.0819 0.0554318 0)
(10.0853 0.0550074 0)
(10.0875 0.0545756 0)
(10.0888 0.0542466 0)
(10.0891 0.0541377 0)
(10.0888 0.054438 0)
(10.0879 0.0553154 0)
(10.087 0.0573041 0)
(10.0867 0.0602202 0)
(10.0883 0.0646193 0)
(10.0002 0.0090797 0)
(10.0078 0.0321422 0)
(10.0225 0.0419412 0)
(10.035 0.0457091 0)
(10.0447 0.0491848 0)
(10.0541 0.0517402 0)
(10.0628 0.052902 0)
(10.0702 0.053282 0)
(10.0764 0.0533573 0)
(10.0815 0.0532946 0)
(10.0858 0.0531892 0)
(10.0894 0.0531543 0)
(10.0924 0.0533083 0)
(10.0949 0.053807 0)
(10.0971 0.0547878 0)
(10.0994 0.0565173 0)
(10.1023 0.0588363 0)
(10.1067 0.061601 0)
(10.0003 0.00880749 0)
(10.0068 0.0275393 0)
(10.0189 0.0371191 0)
(10.0302 0.0417935 0)
(10.0394 0.0457331 0)
(10.0481 0.0485801 0)
(10.0564 0.0500172 0)
(10.0638 0.0506435 0)
(10.0703 0.0509467 0)
(10.0759 0.0511018 0)
(10.081 0.0511991 0)
(10.0855 0.0513435 0)
(10.0896 0.0516435 0)
(10.0934 0.0522184 0)
(10.097 0.0531613 0)
(10.1007 0.0545775 0)
(10.105 0.0563013 0)
(10.1104 0.0580018 0)
(10.0004 0.0078459 0)
(10.0057 0.0237204 0)
(10.016 0.0334121 0)
(10.0263 0.0386495 0)
(10.035 0.0425665 0)
(10.0432 0.045386 0)
(10.051 0.0469709 0)
(10.0582 0.0477882 0)
(10.0646 0.0482647 0)
(10.0704 0.0485766 0)
(10.0758 0.0488145 0)
(10.0807 0.0490748 0)
(10.0852 0.0494515 0)
(10.0896 0.050031 0)
(10.0938 0.0508641 0)
(10.0983 0.0519644 0)
(10.1032 0.0531644 0)
(10.1088 0.0541386 0)
(10.0004 0.00696136 0)
(10.0049 0.0207377 0)
(10.0136 0.0300853 0)
(10.0229 0.0354734 0)
(10.0311 0.0392831 0)
(10.0388 0.0420726 0)
(10.0462 0.0437975 0)
(10.0532 0.0447847 0)
(10.0595 0.0454007 0)
(10.0653 0.0458295 0)
(10.0707 0.0461659 0)
(10.0757 0.0464967 0)
(10.0805 0.0469002 0)
(10.0851 0.0474351 0)
(10.0898 0.0481205 0)
(10.0945 0.0489234 0)
(10.0996 0.0496895 0)
(10.1051 0.0501634 0)
(10.0004 0.00617609 0)
(10.0042 0.0181567 0)
(10.0116 0.0268554 0)
(10.0199 0.0322213 0)
(10.0276 0.0359583 0)
(10.0349 0.0387207 0)
(10.0419 0.0405427 0)
(10.0486 0.0416593 0)
(10.0547 0.0423824 0)
(10.0605 0.0428971 0)
(10.0659 0.0433002 0)
(10.071 0.0436677 0)
(10.0759 0.0440628 0)
(10.0806 0.0445235 0)
(10.0854 0.0450487 0)
(10.0902 0.0455877 0)
(10.0953 0.0460106 0)
(10.1006 0.0461391 0)
(10.0003 0.0054408 0)
(10.0036 0.0158386 0)
(10.0098 0.0237769 0)
(10.0173 0.0290026 0)
(10.0244 0.0326514 0)
(10.0313 0.0353507 0)
(10.038 0.0372103 0)
(10.0444 0.038412 0)
(10.0504 0.0392127 0)
(10.056 0.0397875 0)
(10.0614 0.0402313 0)
(10.0665 0.0406103 0)
(10.0714 0.0409742 0)
(10.0762 0.041347 0)
(10.081 0.0417174 0)
(10.0858 0.042034 0)
(10.0908 0.0421955 0)
(10.0958 0.0420885 0)
(10.0003 0.00478974 0)
(10.0031 0.0138976 0)
(10.0085 0.0211096 0)
(10.0152 0.026105 0)
(10.0219 0.0296294 0)
(10.0284 0.0322369 0)
(10.0347 0.0340857 0)
(10.0409 0.0353276 0)
(10.0467 0.0361724 0)
(10.0522 0.0367794 0)
(10.0575 0.0372393 0)
(10.0626 0.0376103 0)
(10.0675 0.0379321 0)
(10.0723 0.0382204 0)
(10.0771 0.0384613 0)
(10.0818 0.0386109 0)
(10.0866 0.0385932 0)
(10.0915 0.0383417 0)
(10.0003 0.00418462 0)
(10.0027 0.0121345 0)
(10.0074 0.0186019 0)
(10.0134 0.0232765 0)
(10.0196 0.0266335 0)
(10.0257 0.0291253 0)
(10.0318 0.0309289 0)
(10.0377 0.0321782 0)
(10.0434 0.0330434 0)
(10.0488 0.0336639 0)
(10.054 0.034124 0)
(10.059 0.0344753 0)
(10.0639 0.0347498 0)
(10.0686 0.0349587 0)
(10.0733 0.0350891 0)
(10.078 0.035107 0)
(10.0826 0.0349576 0)
(10.0872 0.0346091 0)
(10.0003 0.00355417 0)
(10.0024 0.0103004 0)
(10.0064 0.0159165 0)
(10.0117 0.0201392 0)
(10.0174 0.0232412 0)
(10.0231 0.0255585 0)
(10.0288 0.027265 0)
(10.0344 0.0284794 0)
(10.0399 0.0293342 0)
(10.0452 0.0299445 0)
(10.0503 0.0303851 0)
(10.0552 0.0307007 0)
(10.06 0.0309171 0)
(10.0647 0.0310429 0)
(10.0693 0.0310692 0)
(10.0738 0.0309733 0)
(10.0783 0.0307206 0)
(10.0826 0.0303051 0)
(10.0002 0.00289671 0)
(10.002 0.00839426 0)
(10.0055 0.0130631 0)
(10.0101 0.016699 0)
(10.0153 0.0194363 0)
(10.0206 0.0215014 0)
(10.0259 0.023044 0)
(10.0313 0.0241656 0)
(10.0365 0.0249653 0)
(10.0416 0.0255317 0)
(10.0466 0.0259267 0)
(10.0514 0.026188 0)
(10.0561 0.0263364 0)
(10.0607 0.0263798 0)
(10.0651 0.0263144 0)
(10.0695 0.026129 0)
(10.0737 0.0258051 0)
(10.0779 0.0253543 0)
(10.0002 0.00221241 0)
(10.0017 0.00641626 0)
(10.0047 0.0100461 0)
(10.0088 0.0129562 0)
(10.0134 0.0152002 0)
(10.0183 0.0169143 0)
(10.0233 0.0182095 0)
(10.0283 0.0191647 0)
(10.0333 0.01985 0)
(10.0382 0.0203282 0)
(10.043 0.0206457 0)
(10.0477 0.0208321 0)
(10.0523 0.0209042 0)
(10.0567 0.0208697 0)
(10.061 0.0207297 0)
(10.0652 0.0204817 0)
(10.0692 0.0201185 0)
(10.0731 0.0196614 0)
(10.0002 0.00149792 0)
(10.0015 0.00434914 0)
(10.0041 0.00684202 0)
(10.0077 0.00888532 0)
(10.0118 0.0104945 0)
(10.0164 0.0117399 0)
(10.021 0.0126886 0)
(10.0258 0.013392 0)
(10.0306 0.0138933 0)
(10.0353 0.0142312 0)
(10.0399 0.0144355 0)
(10.0444 0.0145261 0)
(10.0488 0.0145153 0)
(10.0531 0.0144099 0)
(10.0572 0.0142135 0)
(10.0612 0.0139286 0)
(10.065 0.0135542 0)
(10.0687 0.0131146 0)
(10.0001 0.00073524 0)
(10.0013 0.00213601 0)
(10.0037 0.00336976 0)
(10.0069 0.00439619 0)
(10.0108 0.00521841 0)
(10.015 0.00586162 0)
(10.0194 0.00635114 0)
(10.024 0.00670727 0)
(10.0285 0.00694782 0)
(10.0331 0.0070885 0)
(10.0375 0.00714155 0)
(10.0419 0.0071154 0)
(10.0461 0.00701557 0)
(10.0502 0.00684589 0)
(10.0541 0.00660928 0)
(10.0579 0.0063091 0)
(10.0616 0.00594636 0)
(10.0651 0.00554335 0)
(10.0001 -0.000122732 0)
(10.0013 -0.000356514 0)
(10.0035 -0.000561909 0)
(10.0067 -0.000725532 0)
(10.0104 -0.000844218 0)
(10.0145 -0.000931379 0)
(10.0189 -0.001006 0)
(10.0233 -0.00108183 0)
(10.0277 -0.00116763 0)
(10.0321 -0.00127078 0)
(10.0365 -0.00139814 0)
(10.0407 -0.00155515 0)
(10.0448 -0.00174555 0)
(10.0487 -0.00197163 0)
(10.0525 -0.0022345 0)
(10.0562 -0.00253354 0)
(10.0597 -0.00286925 0)
(10.0631 -0.00322487 0)
(10.0001 -0.000948497 0)
(10.0014 -0.00276228 0)
(10.0038 -0.00436311 0)
(10.0071 -0.00566828 0)
(10.0111 -0.00667102 0)
(10.0154 -0.00743254 0)
(10.0198 -0.00801967 0)
(10.0243 -0.00847761 0)
(10.0288 -0.00884101 0)
(10.0332 -0.00914207 0)
(10.0376 -0.00940759 0)
(10.0417 -0.00965653 0)
(10.0458 -0.00990175 0)
(10.0497 -0.0101523 0)
(10.0534 -0.0104144 0)
(10.057 -0.0106914 0)
(10.0604 -0.0109864 0)
(10.0637 -0.0112884 0)
(10.0002 -0.00166434 0)
(10.0015 -0.00487141 0)
(10.0042 -0.00769571 0)
(10.008 -0.00993342 0)
(10.0123 -0.0115996 0)
(10.0169 -0.0128508 0)
(10.0216 -0.0138044 0)
(10.0262 -0.0145201 0)
(10.0309 -0.0150521 0)
(10.0354 -0.0154594 0)
(10.0398 -0.0157894 0)
(10.044 -0.0160725 0)
(10.0481 -0.0163287 0)
(10.052 -0.016572 0)
(10.0557 -0.0168127 0)
(10.0592 -0.0170566 0)
(10.0626 -0.0173085 0)
(10.0658 -0.0175609 0)
(10.0002 -0.00234823 0)
(10.0017 -0.00696594 0)
(10.0049 -0.0110414 0)
(10.0092 -0.0141164 0)
(10.0141 -0.0162843 0)
(10.0191 -0.0178828 0)
(10.024 -0.0190919 0)
(10.029 -0.019976 0)
(10.0338 -0.0206073 0)
(10.0385 -0.0210685 0)
(10.0429 -0.0214213 0)
(10.0472 -0.0217041 0)
(10.0513 -0.0219431 0)
(10.0552 -0.022158 0)
(10.0589 -0.0223621 0)
(10.0625 -0.0225634 0)
(10.0658 -0.0227672 0)
(10.069 -0.0229687 0)
(10.0002 -0.00298568 0)
(10.0018 -0.00908042 0)
(10.0056 -0.0144325 0)
(10.0109 -0.0182563 0)
(10.0164 -0.0208544 0)
(10.0218 -0.0227268 0)
(10.0271 -0.0240681 0)
(10.0323 -0.0249841 0)
(10.0373 -0.0256124 0)
(10.0421 -0.0260648 0)
(10.0467 -0.0264014 0)
(10.051 -0.0266574 0)
(10.0552 -0.0268618 0)
(10.0591 -0.0270374 0)
(10.0628 -0.0271992 0)
(10.0663 -0.0273558 0)
(10.0697 -0.0275126 0)
(10.0729 -0.0276665 0)
(10.0001 -0.00356346 0)
(10.0019 -0.0115164 0)
(10.0065 -0.0178943 0)
(10.0127 -0.0220048 0)
(10.019 -0.0249707 0)
(10.0248 -0.0272532 0)
(10.0305 -0.0287766 0)
(10.0361 -0.0296706 0)
(10.0413 -0.0302119 0)
(10.0462 -0.0305788 0)
(10.0509 -0.0308374 0)
(10.0553 -0.0310199 0)
(10.0594 -0.0311559 0)
(10.0634 -0.031269 0)
(10.0671 -0.031373 0)
(10.0706 -0.0314749 0)
(10.0739 -0.0315784 0)
(10.077 -0.0316795 0)
(9.99997 -0.00368496 0)
(10.0018 -0.0151649 0)
(10.0076 -0.0226247 0)
(10.0148 -0.0259426 0)
(10.0214 -0.0284926 0)
(10.0278 -0.0309411 0)
(10.0341 -0.0327054 0)
(10.0401 -0.03373 0)
(10.0456 -0.0343161 0)
(10.0507 -0.0346728 0)
(10.0555 -0.0348835 0)
(10.0599 -0.034997 0)
(10.0641 -0.0350558 0)
(10.068 -0.0350895 0)
(10.0716 -0.0351146 0)
(10.0749 -0.0351396 0)
(10.078 -0.0351681 0)
(10.0809 -0.0351977 0)
(9.99898 -0.00130559 0)
(10 -0.0179628 0)
(10.0085 -0.0290499 0)
(10.0174 -0.032665 0)
(10.0244 -0.0340786 0)
(10.0312 -0.035294 0)
(10.0383 -0.0362297 0)
(10.045 -0.0368606 0)
(10.0509 -0.0372993 0)
(10.0561 -0.0375863 0)
(10.0608 -0.0377361 0)
(10.065 -0.0377848 0)
(10.0687 -0.0377739 0)
(10.0721 -0.0377327 0)
(10.075 -0.0376797 0)
(10.0776 -0.0376262 0)
(10.0799 -0.0375758 0)
(10.082 -0.0375277 0)
(9.99528 0.00387147 0)
(9.99334 -0.0103042 0)
(10.007 -0.0270905 0)
(10.0212 -0.0389065 0)
(10.0311 -0.0448367 0)
(10.0392 -0.0464349 0)
(10.0467 -0.0459428 0)
(10.0531 -0.0449771 0)
(10.0582 -0.0440929 0)
(10.0622 -0.0433114 0)
(10.0654 -0.0425892 0)
(10.0677 -0.0419236 0)
(10.0693 -0.0413209 0)
(10.0703 -0.0407809 0)
(10.0708 -0.0403013 0)
(10.0708 -0.0398811 0)
(10.0705 -0.0395109 0)
(10.0698 -0.0391637 0)
(9.99144 -0.0172917 0)
(9.99189 0.000370863 0)
(10.01 0.0176745 0)
(10.0296 0.0116016 0)
(10.0442 -0.00508983 0)
(10.0541 -0.0188007 0)
(10.0601 -0.0271423 0)
(10.0623 -0.0320146 0)
(10.0618 -0.0348912 0)
(10.0592 -0.0364917 0)
(10.0551 -0.0372637 0)
(10.0497 -0.0375323 0)
(10.0434 -0.0375105 0)
(10.0364 -0.0373279 0)
(10.0289 -0.0370682 0)
(10.021 -0.0367926 0)
(10.013 -0.0365567 0)
(10.0048 -0.0363291 0)
(10.0235 -0.206006 0)
(10.0684 -0.312335 0)
(10.0789 -0.255586 0)
(10.0704 -0.184167 0)
(10.0606 -0.134888 0)
(10.0499 -0.10271 0)
(10.0343 -0.0811467 0)
(10.013 -0.0665973 0)
(9.9879 -0.0566026 0)
(9.9607 -0.0494439 0)
(9.93251 -0.0440838 0)
(9.90405 -0.0399326 0)
(9.87579 -0.0366321 0)
(9.84808 -0.0339497 0)
(9.82114 -0.0317374 0)
(9.79512 -0.0299315 0)
(9.77023 -0.028502 0)
(9.7465 -0.0277653 0)
(9.94226 0.671596 0)
(9.87996 0.567457 0)
(9.77447 0.338471 0)
(9.63242 0.183325 0)
(9.48771 0.0949127 0)
(9.35662 0.0470911 0)
(9.24109 0.021308 0)
(9.13963 0.00708829 0)
(9.05073 -0.000969295 0)
(8.97278 -0.00560874 0)
(8.90407 -0.0082962 0)
(8.84304 -0.00985677 0)
(8.78846 -0.0107607 0)
(8.73933 -0.0112768 0)
(8.69484 -0.0115659 0)
(8.65427 -0.0117527 0)
(8.61677 -0.0119309 0)
(8.58197 -0.0124618 0)
(0.00530938 -0.0109923 -3.51076e-20)
(0.017121 -0.0167447 3.43352e-20)
(0.0269212 -0.0145546 0)
(0.0330602 -0.00857319 0)
(0.0342904 -0.00120183 0)
(0.0303992 0.00586162 -3.14466e-20)
(0.0222582 0.0115853 0)
(0.0106971 0.0156658 0)
(-0.00345525 0.018295 0)
(-0.0194812 0.0199081 0)
(-0.0369206 0.020932 2.81555e-20)
(-0.0554879 0.0216713 0)
(-0.0750094 0.0223079 0)
(-0.095391 0.0229273 0)
(-0.116579 0.0235529 0)
(-0.138535 0.024175 2.48577e-20)
(-0.161218 0.0247714 0)
(-0.184586 0.0253204 0)
(-0.208591 0.025811 0)
(-0.233183 0.026248 0)
(-0.258319 0.0266504 0)
(-0.283967 0.0270274 0)
(-0.31007 0.0273359 0)
(-0.336504 0.0275067 2.17471e-20)
(-0.363274 0.0277936 -2.14999e-20)
(-0.390801 0.030202 2.12871e-20)
(-0.418913 0.0369714 2.11088e-20)
(-0.448 0.0344781 0)
(-0.4781 0.0242751 0)
(-0.506391 0.0337924 -2.05575e-20)
(-0.53615 0.0394374 -2.0396e-20)
(-0.568479 0.0350436 0)
(-0.599417 0.035608 0)
(-0.631962 0.0438561 -2.04061e-20)
(-0.666074 0.052244 0)
(-0.703111 0.0497602 0)
(-0.74022 0.0449561 2.11201e-20)
(-0.776682 0.0537812 0)
(-0.812489 0.0446745 2.06699e-20)
(-0.848653 0.0270291 4.20508e-20)
(-0.881663 0.0306908 0)
(-0.91761 0.0315816 0)
(-0.954151 0.0321534 0)
(-0.991273 0.0324001 0)
(-1.02871 0.0324703 0)
(-1.06635 0.0324373 3.93886e-20)
(-1.10414 0.0323431 3.89814e-20)
(-1.14202 0.0322119 3.85851e-20)
(-1.17996 0.032057 0)
(-1.21795 0.0318859 -3.78229e-20)
(-1.25596 0.0317025 0)
(-1.29399 0.0315082 3.70976e-20)
(-1.33201 0.0313031 3.67472e-20)
(-1.37001 0.0310868 0)
(-1.40798 0.030858 0)
(-1.44589 0.0306155 0)
(-1.48372 0.0303577 3.54152e-20)
(-1.52146 0.0300833 0)
(-1.55907 0.0297907 0)
(-1.59653 0.0294789 0)
(-1.63381 0.0291465 0)
(-1.67089 0.0287927 0)
(-1.70772 0.0284165 0)
(-1.74428 0.0280173 0)
(-1.78054 0.0275946 0)
(-1.81644 0.027148 -3.26801e-20)
(-1.85197 0.0266773 0)
(-1.88708 0.0261825 0)
(-1.92173 0.0256636 3.18e-20)
(-1.95589 0.025121 3.15057e-20)
(-1.98952 0.0245549 0)
(-2.02257 0.0239657 -3.09129e-20)
(-2.055 0.023354 3.06132e-20)
(-2.08679 0.0227205 0)
(-2.11788 0.0220657 -3.00051e-20)
(-2.14824 0.0213905 0)
(-2.17784 0.0206956 0)
(-2.20662 0.0199819 2.90634e-20)
(-2.23456 0.01925 0)
(-2.26162 0.0185008 -2.84103e-20)
(-2.28775 0.0177351 0)
(-2.31293 0.0169534 2.77328e-20)
(-2.33711 0.0161562 2.73837e-20)
(-2.36027 0.0153438 2.70273e-20)
(-2.38236 0.0145163 5.33259e-20)
(-2.40335 0.0136734 -5.25809e-20)
(-2.42321 0.0128143 0)
(-2.44189 0.0119376 0)
(-2.45937 0.0110412 0)
(-2.4756 0.0101219 -4.94215e-20)
(-2.49054 0.00917573 -4.85835e-20)
(-2.50415 0.00819792 4.77252e-20)
(-2.51638 0.00718301 0)
(-2.52716 0.00612453 -4.59453e-20)
(-2.53644 0.00501748 -4.50232e-20)
(-2.54413 0.00386539 -4.40795e-20)
(-2.55015 0.00269301 0)
(-2.55437 0.00155094 0)
(-2.5567 0.000497505 0)
(-2.55746 -0.000420548 -4.0068e-20)
(-2.55678 -0.00125881 0)
(-2.55466 -0.00207375 0)
(-2.55109 -0.00287915 3.67819e-20)
(-2.54607 -0.00367971 0)
(-2.53958 -0.00447633 0)
(-2.53161 -0.00526876 3.32559e-20)
(-2.52215 -0.00605633 0)
(-2.51119 -0.00683821 0)
(-2.49872 -0.00761351 -2.94877e-20)
(-2.48474 -0.00838134 -2.81782e-20)
(-2.46924 -0.00914083 0)
(-2.45222 -0.00989109 2.54799e-20)
(-2.43369 -0.0106313 0)
(-2.41363 -0.0113605 -2.26782e-20)
(-2.39207 -0.0120781 0)
(-2.369 -0.012783 -1.97762e-20)
(-2.34443 -0.0134747 -1.8289e-20)
(-2.31837 -0.0141521 0)
(-2.29084 -0.0148148 0)
(-2.26184 -0.0154618 0)
(-2.2314 -0.0160925 0)
(-2.19953 -0.0167063 0)
(-2.16625 -0.0173026 0)
(-2.13158 -0.0178808 0)
(-2.09556 -0.0184403 -5.61176e-21)
(-2.05819 -0.0189805 3.94264e-21)
(-2.01951 -0.019501 0)
(-1.97955 -0.0200012 0)
(-1.93834 -0.0204807 0)
(-1.89591 -0.0209391 0)
(-1.85229 -0.0213761 -9.22229e-21)
(-1.80753 -0.0217913 0)
(-1.76165 -0.0221846 1.6214e-20)
(-1.71469 -0.0225557 -1.97313e-20)
(-1.66669 -0.0229043 0)
(-1.61769 -0.0232303 0)
(-1.56774 -0.0235337 0)
(-1.51687 -0.0238145 3.38792e-20)
(-1.46513 -0.0240727 3.74216e-20)
(-1.41256 -0.0243083 0)
(-1.3592 -0.0245215 4.44929e-20)
(-1.3051 -0.0247125 4.80159e-20)
(-1.25031 -0.0248815 -5.15268e-20)
(-1.19486 -0.0250288 0)
(-1.1388 -0.0251549 0)
(-1.08218 -0.02526 -6.19574e-20)
(-1.02503 -0.0253448 0)
(-0.967408 -0.0254097 0)
(-0.909351 -0.0254554 0)
(-0.850899 -0.0254825 0)
(-0.792095 -0.0254916 7.88371e-20)
(-0.732977 -0.0254835 8.21137e-20)
(-0.673583 -0.0254589 0)
(-0.613951 -0.0254187 8.85483e-20)
(-0.554117 -0.0253635 0)
(-0.494114 -0.025294 0)
(-0.433976 -0.0252107 9.787e-20)
(-0.373734 -0.0251138 0)
(-0.313424 -0.0250031 1.03841e-19)
(-0.253076 -0.0248768 0)
(-0.192728 -0.0247293 0)
(-0.132416 -0.0245548 1.12395e-19)
(-0.0721722 -0.0243489 0)
(-0.0120244 -0.0240789 1.17566e-19)
(0.0478735 -0.0236953 0)
(0.107599 -0.0232754 0)
(0.167156 -0.022878 0)
(0.22655 -0.0225022 -1.21676e-19)
(0.285795 -0.0221394 0)
(0.344894 -0.0217829 1.22996e-19)
(0.403837 -0.0214256 0)
(0.462589 -0.0210589 0)
(0.521087 -0.0206689 0)
(0.579207 -0.0202319 0)
(0.636749 -0.0197006 0)
(0.693167 -0.0189813 0)
(0.748023 -0.017815 0)
(0.796982 -0.0155576 -2.52093e-19)
(0.844391 -0.0103322 0)
(0.841924 0.00748594 0)
(0.00560206 -0.0355082 1.04042e-19)
(0.0115814 -0.0332046 -9.84203e-20)
(0.0114454 -0.0201165 0)
(0.00818 -0.005905 5.81669e-20)
(0.00215055 0.00785112 0)
(-0.00635667 0.0202404 2.70385e-20)
(-0.017283 0.0307035 -5.24549e-20)
(-0.0305151 0.0390621 -5.10136e-20)
(-0.0459191 0.045465 0)
(-0.0633078 0.0502846 -4.83418e-20)
(-0.0824592 0.0539559 -2.35579e-20)
(-0.103153 0.0568538 0)
(-0.125199 0.0592521 0)
(-0.148446 0.061326 0)
(-0.172785 0.0631739 0)
(-0.198136 0.0648433 -2.09022e-20)
(-0.224447 0.0663542 0)
(-0.251684 0.0677165 4.01417e-20)
(-0.279829 0.0689419 0)
(-0.308875 0.0700482 0)
(-0.338828 0.071055 -3.82414e-20)
(-0.369694 0.0719646 0)
(-0.401496 0.0727436 3.72931e-20)
(-0.434323 0.0733401 -1.8487e-20)
(-0.468295 0.0737877 1.83313e-20)
(-0.503032 0.0744446 -1.82275e-20)
(-0.537796 0.0758997 -1.82e-20)
(-0.573989 0.0772554 0)
(-0.612044 0.0771557 0)
(-0.650045 0.0775468 1.79031e-20)
(-0.688319 0.0788252 -1.77264e-20)
(-0.726959 0.0793106 0)
(-0.766802 0.0796362 0)
(-0.806006 0.0799267 1.74161e-20)
(-0.844438 0.0811986 0)
(-0.881868 0.0821624 0)
(-0.919744 0.0824718 -1.70932e-20)
(-0.956263 0.0821314 0)
(-0.994439 0.0826738 1.66174e-20)
(-1.03284 0.0833441 -3.31064e-20)
(-1.07162 0.08436 0)
(-1.10887 0.0847649 0)
(-1.14531 0.0847435 -6.38207e-20)
(-1.18132 0.0844699 -6.31324e-20)
(-1.21703 0.0840307 -6.24637e-20)
(-1.25253 0.0834869 3.08295e-20)
(-1.28785 0.0828753 -3.06689e-20)
(-1.32301 0.0822182 -9.09301e-20)
(-1.35802 0.0815287 5.99698e-20)
(-1.39288 0.0808133 2.97717e-20)
(-1.42758 0.080075 0)
(-1.46211 0.0793141 -2.92097e-20)
(-1.49647 0.0785292 2.87798e-20)
(-1.53063 0.0777181 0)
(-1.56459 0.0768782 0)
(-1.59833 0.0760066 0)
(-1.63183 0.0751004 -2.79018e-20)
(-1.66507 0.0741569 0)
(-1.69802 0.0731734 5.466e-20)
(-1.73067 0.0721479 0)
(-1.76298 0.0710782 5.36982e-20)
(-1.79494 0.0699628 0)
(-1.82652 0.0688005 -5.2754e-20)
(-1.85768 0.0675902 0)
(-1.8884 0.0663314 5.18209e-20)
(-1.91866 0.0650237 -2.56057e-20)
(-1.94842 0.0636672 0)
(-1.97765 0.0622621 -5.0428e-20)
(-2.00633 0.0608091 -2.50498e-20)
(-2.03442 0.0593088 -2.48144e-20)
(-2.06189 0.0577623 0)
(-2.08871 0.0561709 -2.42112e-20)
(-2.11486 0.0545358 -2.40976e-20)
(-2.1403 0.0528587 0)
(-2.165 0.0511413 2.3607e-20)
(-2.18893 0.0493852 -4.6602e-20)
(-2.21206 0.0475924 0)
(-2.23437 0.0457648 -2.28447e-20)
(-2.25582 0.0439042 0)
(-2.27639 0.0420126 6.68514e-20)
(-2.29604 0.0400919 0)
(-2.31474 0.0381438 -6.52099e-20)
(-2.33248 0.0361701 -2.148e-20)
(-2.34922 0.0341723 2.11198e-20)
(-2.36494 0.0321516 4.16587e-20)
(-2.3796 0.0301093 -4.10649e-20)
(-2.39319 0.028046 0)
(-2.40567 0.0259623 0)
(-2.41703 0.0238579 0)
(-2.42723 0.0217322 1.15771e-19)
(-2.43625 0.019584 3.79303e-20)
(-2.44408 0.0174112 -3.72331e-20)
(-2.45069 0.0152119 0)
(-2.45608 0.0129828 -3.57854e-20)
(-2.46025 0.0107199 3.50406e-20)
(-2.46323 0.0084227 3.42754e-20)
(-2.46507 0.0061088 0)
(-2.46585 0.00382724 0)
(-2.4657 0.0016273 0)
(-2.46436 -0.000466458 3.10132e-20)
(-2.46167 -0.00249257 0)
(-2.4576 -0.00448797 -5.86397e-20)
(-2.45212 -0.00646432 -8.52135e-20)
(-2.44521 -0.00842557 5.50259e-20)
(-2.43684 -0.0103716 0)
(-2.42702 -0.0123007 2.57198e-20)
(-2.41572 -0.0142108 0)
(-2.40293 -0.0160996 4.73542e-20)
(-2.38866 -0.0179645 -2.27847e-20)
(-2.37289 -0.0198033 -2.17702e-20)
(-2.35562 -0.0216137 0)
(-2.33685 -0.0233935 -5.85196e-20)
(-2.31657 -0.0251405 3.69544e-20)
(-2.2948 -0.0268526 1.72343e-20)
(-2.27153 -0.0285278 0)
(-2.24678 -0.0301642 1.49883e-20)
(-2.22054 -0.0317599 4.18745e-20)
(-2.19284 -0.033313 0)
(-2.16367 -0.0348219 2.33899e-20)
(-2.13306 -0.0362848 2.10274e-20)
(-2.10102 -0.0377004 1.8639e-20)
(-2.06757 -0.0390671 0)
(-2.03273 -0.0403838 0)
(-1.99652 -0.0416492 0)
(-1.95896 -0.0428622 -4.65269e-21)
(-1.92008 -0.0440218 -2.94813e-21)
(-1.8799 -0.045127 0)
(-1.83846 -0.0461769 -1.31652e-21)
(-1.79579 -0.0471708 1.22534e-21)
(-1.75191 -0.0481082 0)
(-1.70686 -0.0489885 6.85143e-21)
(-1.66067 -0.0498114 1.78274e-20)
(-1.61338 -0.0505769 -1.20155e-20)
(-1.56503 -0.0512848 -1.35421e-20)
(-1.51566 -0.051935 0)
(-1.4653 -0.0525277 0)
(-1.414 -0.0530631 0)
(-1.36179 -0.0535416 -2.49568e-20)
(-1.30872 -0.053964 2.6423e-20)
(-1.25484 -0.0543309 5.9092e-20)
(-1.20018 -0.0546431 -3.26657e-20)
(-1.14479 -0.0549013 3.40866e-20)
(-1.08872 -0.0551069 3.77499e-20)
(-1.032 -0.055261 0)
(-0.974683 -0.055365 0)
(-0.916811 -0.0554203 -4.41227e-20)
(-0.858427 -0.0554284 0)
(-0.799573 -0.0553912 0)
(-0.740293 -0.0553105 1.04028e-19)
(-0.680626 -0.0551881 0)
(-0.620614 -0.0550261 5.62147e-20)
(-0.560295 -0.0548265 -5.96693e-20)
(-0.499708 -0.0545915 0)
(-0.438887 -0.0543231 6.31498e-20)
(-0.37787 -0.0540235 0)
(-0.316688 -0.0536945 0)
(-0.255375 -0.0533375 -7.08705e-20)
(-0.193962 -0.0529535 1.44949e-19)
(-0.132479 -0.0525418 -7.51045e-20)
(-0.0709557 -0.0521004 0)
(-0.00942298 -0.051627 0)
(0.0520884 -0.0511178 7.94458e-20)
(0.113552 -0.0505769 0)
(0.174946 -0.0500124 8.16463e-20)
(0.236246 -0.0494093 0)
(0.297472 -0.0487839 0)
(0.358614 -0.0481691 0)
(0.419664 -0.0475718 8.65301e-20)
(0.480619 -0.0469858 0)
(0.54147 -0.0464013 -8.81814e-20)
(0.602199 -0.0458056 0)
(0.662768 -0.0451798 0)
(0.723109 -0.0444933 1.7977e-19)
(0.783096 -0.0436927 -1.81004e-19)
(0.842522 -0.0426736 0)
(0.900922 -0.0412348 0)
(0.957822 -0.0388487 0)
(1.01057 -0.0345185 5.57415e-19)
(1.06171 -0.0246994 0)
(1.09057 -0.00125434 -3.79085e-19)
(0.0016749 -0.0452117 -5.33412e-23)
(-0.000666117 -0.0288762 1.27004e-19)
(-0.00744132 -0.00836226 0)
(-0.0159961 0.010739 -1.06419e-19)
(-0.0263184 0.0282803 0)
(-0.038183 0.0441023 0)
(-0.0515256 0.0580053 9.45732e-24)
(-0.0663933 0.0698723 4.49529e-20)
(-0.082855 0.0797565 4.37405e-20)
(-0.100937 0.0878777 4.26461e-20)
(-0.120601 0.0945532 0)
(-0.141762 0.100116 0)
(-0.164312 0.104859 -3.96908e-20)
(-0.188139 0.109009 -7.76342e-20)
(-0.213147 0.112722 7.5999e-20)
(-0.239255 0.116105 0)
(-0.266401 0.119224 7.30701e-20)
(-0.294541 0.122128 -3.59004e-20)
(-0.32364 0.124857 0)
(-0.353668 0.127447 6.94988e-20)
(-0.384594 0.12993 3.4268e-20)
(-0.416383 0.132321 -6.76034e-20)
(-0.448994 0.134613 -3.3401e-20)
(-0.482403 0.136802 0)
(-0.516579 0.138951 6.53023e-20)
(-0.5513 0.141191 6.46539e-20)
(-0.586154 0.143444 0)
(-0.621259 0.145157 6.35149e-20)
(-0.65692 0.146176 0)
(-0.692761 0.147343 6.21731e-20)
(-0.728336 0.148439 3.07807e-20)
(-0.763646 0.148858 0)
(-0.798929 0.14912 0)
(-0.833788 0.149388 0)
(-0.867896 0.149289 0)
(-0.901395 0.148357 0)
(-0.93458 0.146864 0)
(-0.967446 0.145168 5.66874e-20)
(-1.00024 0.14292 -8.40205e-20)
(-1.03332 0.140525 0)
(-1.06641 0.138831 0)
(-1.09905 0.137425 0)
(-1.13134 0.136121 7.97706e-23)
(-1.16337 0.134847 5.27921e-20)
(-1.1952 0.133571 1.04294e-19)
(-1.22686 0.132285 -1.0312e-19)
(-1.2584 0.130986 -5.0944e-20)
(-1.28981 0.129672 5.04778e-20)
(-1.32111 0.128341 -9.30416e-23)
(-1.3523 0.126991 4.93129e-20)
(-1.38337 0.125618 0)
(-1.41433 0.124218 4.82885e-20)
(-1.44515 0.122786 -9.8762e-23)
(-1.47582 0.121317 0)
(-1.50635 0.119806 0)
(-1.53669 0.118248 -4.63612e-20)
(-1.56685 0.116639 0)
(-1.59681 0.114975 0)
(-1.62653 0.113252 4.48967e-20)
(-1.656 0.111467 8.91127e-20)
(-1.6852 0.109616 -4.42204e-20)
(-1.7141 0.107699 0)
(-1.74268 0.105713 4.33564e-20)
(-1.77092 0.103657 0)
(-1.79878 0.101531 4.23066e-20)
(-1.82624 0.0993336 4.20792e-20)
(-1.85327 0.0970659 -8.31205e-20)
(-1.87985 0.0947282 -4.10447e-20)
(-1.90594 0.0923215 0)
(-1.93151 0.089847 8.05887e-20)
(-1.95654 0.0873064 0)
(-1.98099 0.0847015 1.18418e-19)
(-2.00484 0.0820344 7.80305e-20)
(-2.02806 0.0793076 7.71663e-20)
(-2.05061 0.0765235 -7.62945e-20)
(-2.07246 0.0736847 1.13196e-19)
(-2.09359 0.0707941 0)
(-2.11397 0.0678545 0)
(-2.13356 0.0648687 -7.27084e-20)
(-2.15234 0.0618397 -1.07734e-19)
(-2.17028 0.0587703 0)
(-2.18736 0.0556632 3.49962e-20)
(-2.20353 0.0525213 0)
(-2.21878 0.0493469 -1.01932e-19)
(-2.23307 0.0461425 -8.17388e-23)
(-2.24639 0.0429102 7.27276e-23)
(-2.25871 0.039652 6.48473e-20)
(-2.26999 0.0363697 0)
(-2.28023 0.033065 -6.26956e-20)
(-2.28939 0.0297395 -3.42323e-23)
(-2.29747 0.0263953 0)
(-2.30443 0.0230349 0)
(-2.31027 0.0196622 0)
(-2.31497 0.0162836 5.69192e-20)
(-2.31854 0.0129089 0)
(-2.32098 0.00955313 0)
(-2.32226 0.00623463 0)
(-2.32239 0.00296503 0)
(-2.32131 -0.000253553 0)
(-2.31896 -0.00345295 4.914e-20)
(-2.31527 -0.00664359 0)
(-2.31024 -0.00981998 4.62231e-20)
(-2.30384 -0.0129788 4.47636e-20)
(-2.29605 -0.0161164 -4.3278e-20)
(-2.28685 -0.0192293 0)
(-2.27622 -0.0223134 -4.02289e-20)
(-2.26417 -0.0253647 0)
(-2.25068 -0.0283793 -3.70777e-20)
(-2.23574 -0.031353 3.54646e-20)
(-2.21934 -0.0342822 1.01871e-19)
(-2.20149 -0.0371631 0)
(-2.18218 -0.0399921 9.18778e-20)
(-2.16141 -0.0427658 2.92317e-20)
(-2.13918 -0.0454808 0)
(-2.1155 -0.0481341 5.10869e-20)
(-2.09037 -0.0507225 4.7565e-20)
(-2.0638 -0.0532429 -6.57319e-20)
(-2.0358 -0.0556926 0)
(-2.00638 -0.0580688 -1.80901e-20)
(-1.97555 -0.0603689 -1.6245e-20)
(-1.94334 -0.0625905 -4.37776e-20)
(-1.90975 -0.0647315 0)
(-1.87481 -0.0667899 0)
(-1.83853 -0.0687638 0)
(-1.80095 -0.0706515 -7.49945e-21)
(-1.76207 -0.0724516 0)
(-1.72194 -0.0741626 0)
(-1.68058 -0.0757831 1.00838e-21)
(-1.63801 -0.0773122 -9.37565e-22)
(-1.59426 -0.0787488 0)
(-1.54938 -0.0800925 0)
(-1.50339 -0.0813429 -1.3599e-20)
(-1.45633 -0.0824998 0)
(-1.40824 -0.0835633 2.14279e-20)
(-1.35914 -0.0845335 2.45175e-20)
(-1.30909 -0.0854105 0)
(-1.25812 -0.086195 0)
(-1.20626 -0.0868879 -3.61763e-20)
(-1.15357 -0.0874903 -8.4755e-22)
(-1.10009 -0.0880035 -8.52211e-22)
(-1.04584 -0.0884289 0)
(-0.990888 -0.088768 -1.0389e-19)
(-0.935264 -0.0890228 0)
(-0.879014 -0.0891955 0)
(-0.822179 -0.0892883 0)
(-0.764803 -0.0893037 6.73303e-20)
(-0.706928 -0.0892443 0)
(-0.648595 -0.0891132 -1.47498e-19)
(-0.589845 -0.0889133 -7.81918e-20)
(-0.530719 -0.0886477 0)
(-0.471255 -0.0883199 -8.52308e-20)
(-0.411491 -0.0879333 0)
(-0.351464 -0.0874913 0)
(-0.291209 -0.0869974 -2.84665e-19)
(-0.230761 -0.0864551 1.95844e-19)
(-0.17015 -0.0858674 0)
(-0.109409 -0.0852366 2.08781e-19)
(-0.0485668 -0.084565 -1.08355e-19)
(0.0123487 -0.0838545 0)
(0.0733097 -0.0831051 0)
(0.134291 -0.0823157 0)
(0.19527 -0.0814868 -3.5098e-19)
(0.256228 -0.0806233 0)
(0.317157 -0.079739 -1.21269e-19)
(0.378073 -0.0788475 0)
(0.438974 -0.0779566 0)
(0.499841 -0.0770759 0)
(0.560657 -0.0762085 0)
(0.621408 -0.0753481 0)
(0.682081 -0.0744828 0)
(0.742651 -0.0735942 -2.64064e-19)
(0.803081 -0.0726531 0)
(0.863302 -0.0716115 -1.35287e-19)
(0.923194 -0.0703865 4.08283e-19)
(0.982569 -0.0688236 0)
(1.04104 -0.0666295 0)
(1.09824 -0.0631587 -2.78681e-19)
(1.15242 -0.0571793 -2.82152e-19)
(1.20624 -0.045533 2.84171e-19)
(1.24776 -0.0215654 2.89099e-19)
(-0.00339034 -0.0373647 -2.04309e-19)
(-0.0120084 -0.0118 -1.85106e-19)
(-0.0231609 0.0127104 -1.09291e-19)
(-0.0354594 0.0345651 -4.96605e-20)
(-0.0489129 0.0544479 0)
(-0.0633101 0.0725015 8.81986e-20)
(-0.0786575 0.0886961 -4.2381e-20)
(-0.0950564 0.10299 0)
(-0.11262 0.115416 -3.98948e-20)
(-0.131433 0.126111 0)
(-0.151534 0.135291 7.59199e-20)
(-0.172914 0.14321 0)
(-0.195529 0.150116 3.6291e-20)
(-0.219312 0.156226 7.10571e-20)
(-0.244188 0.161709 -6.96229e-20)
(-0.270083 0.166691 0)
(-0.296924 0.171264 -6.70201e-20)
(-0.324645 0.175492 0)
(-0.353179 0.179422 0)
(-0.382455 0.183085 -6.37296e-20)
(-0.412397 0.186499 0)
(-0.442919 0.189662 -4.07156e-24)
(-0.473927 0.192554 0)
(-0.505327 0.195149 0)
(-0.537009 0.19744 4.23467e-24)
(-0.568824 0.199438 -5.86504e-20)
(-0.600594 0.201074 -5.79064e-20)
(-0.632237 0.202159 -5.71611e-20)
(-0.66379 0.202693 0)
(-0.695197 0.20291 -1.11357e-19)
(-0.726307 0.20278 0)
(-0.757097 0.202202 -5.42062e-20)
(-0.787591 0.201306 0)
(-0.81774 0.200203 0)
(-0.847514 0.198843 5.20414e-20)
(-0.876972 0.197132 0)
(-0.906223 0.195126 -5.06555e-20)
(-0.935339 0.192926 -1.26105e-23)
(-0.964422 0.190524 9.86329e-20)
(-0.993534 0.188064 -9.73214e-20)
(-1.02262 0.185816 0)
(-1.05161 0.183726 0)
(-1.0805 0.181749 -4.67919e-20)
(-1.10928 0.179846 0)
(-1.13797 0.177989 -4.57151e-20)
(-1.16658 0.17616 4.51727e-20)
(-1.19513 0.174343 4.46448e-20)
(-1.22361 0.172529 0)
(-1.25204 0.170707 -4.3629e-20)
(-1.2804 0.168869 -4.31395e-20)
(-1.3087 0.167005 8.52336e-20)
(-1.33692 0.165108 -4.21933e-20)
(-1.36505 0.163169 -4.17352e-20)
(-1.39308 0.161182 0)
(-1.421 0.159139 0)
(-1.4488 0.157033 4.04123e-20)
(-1.47644 0.154858 0)