/*--------------------------------*- C++ -*----------------------------------*\
  =========                 |
  \\      /  F ield         | OpenFOAM: The Open Source CFD Toolbox
   \\    /   O peration     | Website:  https://openfoam.org
    \\  /    A nd           | Version:  12
     \\/     M anipulation  |
\*---------------------------------------------------------------------------*/
FoamFile
{
    format      ascii;
    class       volVectorField;
    location    "5.8";
    object      U;
}
// * * * * * * * * * * * * * * * * * * * * * * * * * * * * * * * * * * * * * //

dimensions      [0 1 -1 0 0 0 0];

internalField   nonuniform List<vector> 
3829
(
(6.15642e-06 -8.84703e-05 0)
(1.85211e-05 -8.88725e-05 0)
(3.11028e-05 -8.90534e-05 0)
(4.39218e-05 -8.93189e-05 0)
(5.70202e-05 -8.96624e-05 0)
(7.04456e-05 -9.00753e-05 0)
(8.42227e-05 -9.05498e-05 0)
(9.83869e-05 -9.10635e-05 0)
(0.000112998 -9.16004e-05 0)
(0.000128022 -9.21427e-05 0)
(0.000143478 -9.26543e-05 0)
(0.00015941 -9.31065e-05 0)
(0.000175813 -9.34655e-05 0)
(0.000192623 -9.37038e-05 0)
(0.000209829 -9.37666e-05 0)
(0.000227413 -9.36364e-05 0)
(0.000245289 -9.32493e-05 0)
(0.00026342 -9.25849e-05 0)
(0.000281738 -9.16035e-05 0)
(0.000300156 -9.02742e-05 0)
(0.00031858 -8.8571e-05 0)
(0.000336905 -8.64721e-05 0)
(0.000355012 -8.3962e-05 0)
(0.00037278 -8.1031e-05 0)
(0.000390078 -7.76768e-05 0)
(0.00040677 -7.39074e-05 0)
(0.000422699 -6.97303e-05 0)
(0.000437767 -6.51669e-05 0)
(0.000451825 -6.02412e-05 0)
(0.000464756 -5.49816e-05 0)
(0.000476381 -4.94441e-05 0)
(0.000486613 -4.36525e-05 0)
(0.000495403 -3.76597e-05 0)
(0.000502522 -3.15108e-05 0)
(0.000507981 -2.52478e-05 0)
(0.00051169 -1.89312e-05 0)
(0.000513536 -1.25822e-05 0)
(0.000513573 -6.24636e-06 0)
(0.000511795 -9.45405e-09 0)
(0.000508163 6.06048e-06 0)
(0.000502698 1.19338e-05 0)
(0.000495392 1.75547e-05 0)
(0.00048625 2.29035e-05 0)
(0.000475421 2.79453e-05 0)
(0.00046296 3.26425e-05 0)
(0.000448919 3.69689e-05 0)
(0.000433419 4.08976e-05 0)
(0.000416563 4.4406e-05 0)
(0.000398478 4.74751e-05 0)
(0.000379298 5.00885e-05 0)
(0.00035914 5.22288e-05 0)
(0.000338205 5.39057e-05 0)
(0.00031664 5.5089e-05 0)
(0.000294617 5.58053e-05 0)
(0.000272223 5.60212e-05 0)
(0.000249699 5.57926e-05 0)
(0.000227286 5.50875e-05 0)
(0.000205112 5.39408e-05 0)
(0.000183282 5.2368e-05 0)
(0.000162039 5.04009e-05 0)
(0.000141609 4.8032e-05 0)
(0.000122028 4.5321e-05 0)
(0.000103567 4.22963e-05 0)
(8.62302e-05 3.89812e-05 0)
(7.03503e-05 3.54392e-05 0)
(5.59731e-05 3.16869e-05 0)
(4.31014e-05 2.77872e-05 0)
(3.19769e-05 2.37891e-05 0)
(2.25659e-05 1.97643e-05 0)
(1.49261e-05 1.57232e-05 0)
(9.12756e-06 1.17495e-05 0)
(5.04435e-06 7.84015e-06 0)
(2.89353e-06 4.11155e-06 0)
(2.59943e-06 5.18551e-07 0)
(3.8492e-06 -2.82878e-06 0)
(6.72569e-06 -5.88959e-06 0)
(1.10222e-05 -8.64149e-06 0)
(1.65797e-05 -1.10266e-05 0)
(2.32957e-05 -1.29725e-05 0)
(3.08899e-05 -1.4522e-05 0)
(3.91724e-05 -1.55857e-05 0)
(4.80231e-05 -1.62341e-05 0)
(5.70788e-05 -1.642e-05 0)
(6.6141e-05 -1.61336e-05 0)
(7.50141e-05 -1.54245e-05 0)
(8.34339e-05 -1.43006e-05 0)
(9.11183e-05 -1.27795e-05 0)
(9.78702e-05 -1.09177e-05 0)
(0.000103564 -8.74206e-06 0)
(0.000107924 -6.33825e-06 0)
(0.000110803 -3.73651e-06 0)
(0.000112178 -1.01598e-06 0)
(0.000111794 1.736e-06 0)
(0.000109549 4.47138e-06 0)
(0.000105563 7.11041e-06 0)
(9.99376e-05 9.59942e-06 0)
(9.27887e-05 1.1857e-05 0)
(8.42447e-05 1.38222e-05 0)
(7.44975e-05 1.54338e-05 0)
(6.37224e-05 1.66418e-05 0)
(5.22545e-05 1.74234e-05 0)
(4.03744e-05 1.77274e-05 0)
(2.83227e-05 1.75523e-05 0)
(1.64636e-05 1.69139e-05 0)
(5.16256e-06 1.5823e-05 0)
(-5.2888e-06 1.43045e-05 0)
(-1.46331e-05 1.24138e-05 0)
(-2.25655e-05 1.021e-05 0)
(-2.88799e-05 7.76705e-06 0)
(-3.3386e-05 5.17041e-06 0)
(-3.59925e-05 2.50035e-06 0)
(-3.65948e-05 -1.35969e-07 0)
(-3.51306e-05 -2.64276e-06 0)
(-3.18044e-05 -4.96092e-06 0)
(-2.67891e-05 -6.97229e-06 0)
(-2.02862e-05 -8.62257e-06 0)
(-1.26509e-05 -9.85168e-06 0)
(-4.11319e-06 -1.05967e-05 0)
(4.87409e-06 -1.08692e-05 0)
(1.3855e-05 -1.06188e-05 0)
(2.2474e-05 -9.89352e-06 0)
(3.03213e-05 -8.7135e-06 0)
(3.70497e-05 -7.14718e-06 0)
(4.23273e-05 -5.27042e-06 0)
(4.59e-05 -3.16677e-06 0)
(4.76138e-05 -9.43184e-07 0)
(4.72652e-05 1.29263e-06 0)
(4.48138e-05 3.44548e-06 0)
(4.04814e-05 5.43065e-06 0)
(3.44187e-05 7.14751e-06 0)
(2.68955e-05 8.52846e-06 0)
(1.82456e-05 9.49042e-06 0)
(8.85222e-06 1.00196e-05 0)
(-9.61931e-07 1.00873e-05 0)
(-1.06944e-05 9.716e-06 0)
(-1.98457e-05 8.93514e-06 0)
(-2.81051e-05 7.78158e-06 0)
(-3.50938e-05 6.33445e-06 0)
(-4.0554e-05 4.66052e-06 0)
(-4.42633e-05 2.85783e-06 0)
(-4.60977e-05 1.00864e-06 0)
(-4.60121e-05 -7.9427e-07 0)
(-4.4044e-05 -2.46805e-06 0)
(-4.03693e-05 -3.95569e-06 0)
(-3.52139e-05 -5.18679e-06 0)
(-2.8854e-05 -6.11724e-06 0)
(-2.1597e-05 -6.72546e-06 0)
(-1.37996e-05 -6.99087e-06 0)
(-5.84698e-06 -6.9321e-06 0)
(1.91221e-06 -6.55841e-06 0)
(9.134e-06 -5.91591e-06 0)
(1.55179e-05 -5.03825e-06 0)
(2.08079e-05 -3.99281e-06 0)
(2.48057e-05 -2.82035e-06 0)
(2.73885e-05 -1.59142e-06 0)
(2.84855e-05 -3.5888e-07 0)
(2.80853e-05 8.14772e-07 0)
(2.62624e-05 1.89763e-06 0)
(2.3149e-05 2.84233e-06 0)
(1.89156e-05 3.62042e-06 0)
(1.37645e-05 4.20348e-06 0)
(7.9308e-06 4.58388e-06 0)
(1.66505e-06 4.75869e-06 0)
(-4.75259e-06 4.73135e-06 0)
(-1.10342e-05 4.51995e-06 0)
(-1.69626e-05 4.13808e-06 0)
(-2.23151e-05 3.61499e-06 0)
(-2.6905e-05 2.97761e-06 0)
(-3.05766e-05 2.25607e-06 0)
(-3.32097e-05 1.48873e-06 0)
(-3.47414e-05 6.955e-07 0)
(-3.51334e-05 -8.20012e-08 0)
(-3.43988e-05 -8.22458e-07 0)
(-3.25906e-05 -1.50602e-06 0)
(-2.97902e-05 -2.10626e-06 0)
(-2.61159e-05 -2.61446e-06 0)
(-2.17033e-05 -3.01437e-06 0)
(-1.67071e-05 -3.30079e-06 0)
(-1.13001e-05 -3.47431e-06 0)
(-5.65394e-06 -3.5352e-06 0)
(6.73449e-08 -3.48784e-06 0)
(5.69498e-06 -3.3425e-06 0)
(1.10577e-05 -3.11295e-06 0)
(1.60176e-05 -2.80485e-06 0)
(2.04667e-05 -2.43797e-06 0)
(2.42833e-05 -2.02412e-06 0)
(2.73957e-05 -1.579e-06 0)
(2.97453e-05 -1.11883e-06 0)
(3.12889e-05 -6.50774e-07 0)
(3.20212e-05 -1.89908e-07 0)
(3.19394e-05 2.51501e-07 0)
(3.10687e-05 6.6872e-07 0)
(2.94439e-05 1.05089e-06 0)
(2.71195e-05 1.39563e-06 0)
(2.41557e-05 1.6961e-06 0)
(2.06259e-05 1.95159e-06 0)
(1.6608e-05 2.1567e-06 0)
(1.2188e-05 2.31431e-06 0)
(7.4582e-06 2.41985e-06 0)
(2.51298e-06 2.4739e-06 0)
(5.31341e-06 -0.000146229 0)
(1.60715e-05 -0.000146533 0)
(2.70815e-05 -0.00014774 0)
(3.84776e-05 -0.000149554 0)
(5.03348e-05 -0.000151941 0)
(6.26918e-05 -0.000154861 0)
(7.56858e-05 -0.00015826 0)
(8.94137e-05 -0.000162056 0)
(0.000103885 -0.000166159 0)
(0.000119222 -0.000170463 0)
(0.000135518 -0.000174847 0)
(0.000152783 -0.000179184 0)
(0.000170983 -0.000183363 0)
(0.000190201 -0.000187219 0)
(0.000210332 -0.000190634 0)
(0.000231407 -0.000193454 0)
(0.000253342 -0.000195536 0)
(0.000275893 -0.000196749 0)
(0.00029906 -0.000196948 0)
(0.000322638 -0.000196053 0)
(0.000346452 -0.000193939 0)
(0.000370309 -0.00019054 0)
(0.000393999 -0.000185793 0)
(0.000417302 -0.000179655 0)
(0.000439963 -0.000172156 0)
(0.000461783 -0.000163268 0)
(0.000482519 -0.000153036 0)
(0.000501966 -0.000141565 0)
(0.000519944 -0.000128915 0)
(0.00053614 -0.000115183 0)
(0.000550424 -0.000100468 0)
(0.000562748 -8.49512e-05 0)
(0.000572948 -6.87587e-05 0)
(0.000580883 -5.20669e-05 0)
(0.000586488 -3.50172e-05 0)
(0.000589825 -1.78152e-05 0)
(0.000590891 -6.01176e-07 0)
(0.000589365 1.64599e-05 0)
(0.000585132 3.32416e-05 0)
(0.000578514 4.96448e-05 0)
(0.000569627 6.55202e-05 0)
(0.000558532 8.0731e-05 0)
(0.000545369 9.51564e-05 0)
(0.000530197 0.000108688 0)
(0.000513129 0.000121218 0)
(0.000494289 0.000132663 0)
(0.000473826 0.000142938 0)
(0.00045189 0.000151986 0)
(0.000428647 0.00015973 0)
(0.000404248 0.000166155 0)
(0.000378946 0.000171203 0)
(0.000352878 0.000174876 0)
(0.000326275 0.000177142 0)
(0.000299295 0.000177998 0)
(0.000272167 0.000177475 0)
(0.000245136 0.000175592 0)
(0.000218332 0.000172296 0)
(0.000192111 0.000167819 0)
(0.000166549 0.000162017 0)
(0.00014178 0.000155103 0)
(0.000118146 0.00014707 0)
(9.584e-05 0.000138029 0)
(7.49516e-05 0.000128073 0)
(5.56322e-05 0.000117366 0)
(3.81747e-05 0.000106012 0)
(2.26079e-05 9.4113e-05 0)
(9.06245e-06 8.18161e-05 0)
(-2.203e-06 6.92479e-05 0)
(-1.1405e-05 5.65598e-05 0)
(-1.84445e-05 4.39031e-05 0)
(-2.33133e-05 3.1443e-05 0)
(-2.60298e-05 1.9322e-05 0)
(-2.65542e-05 7.72633e-06 0)
(-2.49929e-05 -3.24649e-06 0)
(-2.13329e-05 -1.344e-05 0)
(-1.58562e-05 -2.2719e-05 0)
(-8.70586e-06 -3.09464e-05 0)
(1.37046e-07 -3.80174e-05 0)
(1.01769e-05 -4.38529e-05 0)
(2.11908e-05 -4.83528e-05 0)
(3.28899e-05 -5.14203e-05 0)
(4.49926e-05 -5.30867e-05 0)
(5.74307e-05 -5.33299e-05 0)
(6.96588e-05 -5.21616e-05 0)
(8.1422e-05 -4.96279e-05 0)
(9.25769e-05 -4.58125e-05 0)
(0.000102681 -4.07995e-05 0)
(0.000111513 -3.47208e-05 0)
(0.000118863 -2.77251e-05 0)
(0.000124454 -2.00058e-05 0)
(0.000128177 -1.17235e-05 0)
(0.000129839 -3.10302e-06 0)
(0.0001293 5.61394e-06 0)
(0.000126498 1.42327e-05 0)
(0.000121551 2.25334e-05 0)
(0.000114567 3.03078e-05 0)
(0.000105655 3.7329e-05 0)
(9.50197e-05 4.34017e-05 0)
(8.28952e-05 4.83434e-05 0)
(6.95816e-05 5.20065e-05 0)
(5.54186e-05 5.43008e-05 0)
(4.0752e-05 5.51296e-05 0)
(2.60174e-05 5.44542e-05 0)
(1.16125e-05 5.23231e-05 0)
(-2.07653e-06 4.87833e-05 0)
(-1.46413e-05 4.39282e-05 0)
(-2.57382e-05 3.7925e-05 0)
(-3.50245e-05 3.0964e-05 0)
(-4.22382e-05 2.32713e-05 0)
(-4.71863e-05 1.51158e-05 0)
(-4.9738e-05 6.76448e-06 0)
(-4.97654e-05 -1.44828e-06 0)
(-4.73448e-05 -9.26152e-06 0)
(-4.26407e-05 -1.64014e-05 0)
(-3.58498e-05 -2.26064e-05 0)
(-2.73303e-05 -2.76463e-05 0)
(-1.74267e-05 -3.13412e-05 0)
(-6.54877e-06 -3.35394e-05 0)
(4.81625e-06 -3.42079e-05 0)
(1.61273e-05 -3.32915e-05 0)
(2.68653e-05 -3.08837e-05 0)
(3.65815e-05 -2.70918e-05 0)
(4.48096e-05 -2.2119e-05 0)
(5.11959e-05 -1.61941e-05 0)
(5.54321e-05 -9.61346e-06 0)
(5.73254e-05 -2.67668e-06 0)
(5.67136e-05 4.28267e-06 0)
(5.36212e-05 1.09485e-05 0)
(4.82712e-05 1.70369e-05 0)
(4.08631e-05 2.22674e-05 0)
(3.17154e-05 2.64113e-05 0)
(2.12798e-05 2.92804e-05 0)
(1.00559e-05 3.07891e-05 0)
(-1.55995e-06 3.08953e-05 0)
(-1.29509e-05 2.96472e-05 0)
(-2.35939e-05 2.71204e-05 0)
(-3.30886e-05 2.3501e-05 0)
(-4.10068e-05 1.89855e-05 0)
(-4.70658e-05 1.38242e-05 0)
(-5.10255e-05 8.28831e-06 0)
(-5.27835e-05 2.65691e-06 0)
(-5.23039e-05 -2.8046e-06 0)
(-4.96996e-05 -7.86062e-06 0)
(-4.51778e-05 -1.23124e-05 0)
(-3.89937e-05 -1.5961e-05 0)
(-3.15141e-05 -1.86958e-05 0)
(-2.30907e-05 -2.04246e-05 0)
(-1.415e-05 -2.11416e-05 0)
(-5.12662e-06 -2.0864e-05 0)
(3.58766e-06 -1.96655e-05 0)
(1.16122e-05 -1.76545e-05 0)
(1.86176e-05 -1.49699e-05 0)
(2.43419e-05 -1.1776e-05 0)
(2.85884e-05 -8.24287e-06 0)
(3.12216e-05 -4.5499e-06 0)
(3.21898e-05 -8.73424e-07 0)
(3.15192e-05 2.63398e-06 0)
(2.93126e-05 5.83881e-06 0)
(2.57112e-05 8.62402e-06 0)
(2.0917e-05 1.08915e-05 0)
(1.51652e-05 1.25797e-05 0)
(8.72907e-06 1.36725e-05 0)
(1.87532e-06 1.41401e-05 0)
(-5.08678e-06 1.40229e-05 0)
(-1.18564e-05 1.33531e-05 0)
(-1.82028e-05 1.21937e-05 0)
(-2.38874e-05 1.062e-05 0)
(-2.87253e-05 8.71649e-06 0)
(-3.25484e-05 6.57821e-06 0)
(-3.52526e-05 4.30055e-06 0)
(-3.67741e-05 1.96924e-06 0)
(-3.70753e-05 -3.20919e-07 0)
(-3.61996e-05 -2.49991e-06 0)
(-3.41956e-05 -4.48946e-06 0)
(-3.11601e-05 -6.2433e-06 0)
(-2.72254e-05 -7.71378e-06 0)
(-2.25324e-05 -8.86937e-06 0)
(-1.72565e-05 -9.69172e-06 0)
(-1.15771e-05 -1.01812e-05 0)
(-5.67023e-06 -1.03404e-05 0)
(2.8898e-07 -1.01898e-05 0)
(6.12168e-06 -9.74992e-06 0)
(1.16627e-05 -9.06532e-06 0)
(1.67687e-05 -8.15691e-06 0)
(2.13255e-05 -7.07791e-06 0)
(2.52173e-05 -5.87092e-06 0)
(2.83688e-05 -4.56584e-06 0)
(3.07315e-05 -3.2201e-06 0)
(3.22644e-05 -1.85831e-06 0)
(3.29579e-05 -5.21993e-07 0)
(3.28205e-05 7.63621e-07 0)
(3.18796e-05 1.96856e-06 0)
(3.01727e-05 3.07661e-06 0)
(2.7759e-05 4.07202e-06 0)
(2.47004e-05 4.93953e-06 0)
(2.10719e-05 5.67462e-06 0)
(1.69552e-05 6.26905e-06 0)
(1.2437e-05 6.72185e-06 0)
(7.6075e-06 7.02616e-06 0)
(2.56312e-06 7.18055e-06 0)
(1.13732e-06 -0.000269668 0)
(3.58964e-06 -0.000271972 0)
(6.4761e-06 -0.000275465 0)
(1.00935e-05 -0.000280678 0)
(1.47796e-05 -0.000287559 0)
(2.07326e-05 -0.000295977 0)
(2.82828e-05 -0.000305769 0)
(3.77049e-05 -0.000316721 0)
(4.91979e-05 -0.000328565 0)
(6.29059e-05 -0.000341014 0)
(7.8947e-05 -0.000353725 0)
(9.7236e-05 -0.000366361 0)
(0.000117977 -0.000378558 0)
(0.000141101 -0.000389966 0)
(0.000166441 -0.000400189 0)
(0.000194097 -0.000408884 0)
(0.000223758 -0.000415736 0)
(0.00025532 -0.000420376 0)
(0.000288318 -0.000422532 0)
(0.000322477 -0.000421923 0)
(0.000357564 -0.000418399 0)
(0.000393017 -0.000411766 0)
(0.000428557 -0.000401934 0)
(0.000463446 -0.000388855 0)
(0.000497432 -0.000372591 0)
(0.000530304 -0.000353161 0)
(0.000561099 -0.000330799 0)
(0.000589651 -0.000305647 0)
(0.000615892 -0.000278086 0)
(0.000639496 -0.000248368 0)
(0.000659849 -0.000216824 0)
(0.000676764 -0.000183946 0)
(0.000690286 -0.000149971 0)
(0.000700159 -0.000115371 0)
(0.00070629 -8.04869e-05 0)
(0.000708686 -4.55448e-05 0)
(0.000707533 -1.10021e-05 0)
(0.000702963 2.28257e-05 0)
(0.000695359 5.5666e-05 0)
(0.000684647 8.72714e-05 0)
(0.000670709 0.000117408 0)
(0.000653738 0.000145882 0)
(0.000633939 0.000172503 0)
(0.000611551 0.000197118 0)
(0.000586794 0.000219589 0)
(0.000559871 0.000239803 0)
(0.000531051 0.000257664 0)
(0.000500509 0.000273119 0)
(0.000468579 0.00028607 0)
(0.000435503 0.000296533 0)
(0.000401504 0.000304423 0)
(0.000366888 0.000309763 0)
(0.000331787 0.000312572 0)
(0.000296653 0.000312857 0)
(0.000261688 0.0003107 0)
(0.000226747 0.000306106 0)
(0.000192965 0.000299159 0)
(0.000160095 0.000290013 0)
(0.000128123 0.000278767 0)
(9.78626e-05 0.00026549 0)
(6.90752e-05 0.000250336 0)
(4.22025e-05 0.000233593 0)
(1.76787e-05 0.00021532 0)
(-4.46494e-06 0.000195789 0)
(-2.41837e-05 0.000175145 0)
(-4.12935e-05 0.000153643 0)
(-5.57161e-05 0.000131523 0)
(-6.724e-05 0.000109015 0)
(-7.58722e-05 8.63765e-05 0)
(-8.15229e-05 6.39051e-05 0)
(-8.41935e-05 4.18585e-05 0)
(-8.39801e-05 2.0534e-05 0)
(-8.08805e-05 2.04106e-07 0)
(-7.50961e-05 -1.88832e-05 0)
(-6.68159e-05 -3.64715e-05 0)
(-5.61056e-05 -5.23533e-05 0)
(-4.32814e-05 -6.62879e-05 0)
(-2.87071e-05 -7.80982e-05 0)
(-1.25725e-05 -8.76714e-05 0)
(4.89637e-06 -9.48196e-05 0)
(2.30573e-05 -9.94998e-05 0)
(4.15213e-05 -0.000101586 0)
(6.0028e-05 -0.000101144 0)
(7.81285e-05 -9.81958e-05 0)
(9.54051e-05 -9.28452e-05 0)
(0.000111508 -8.51968e-05 0)
(0.000126019 -7.54981e-05 0)
(0.000138563 -6.39231e-05 0)
(0.000148854 -5.07927e-05 0)
(0.000156619 -3.63901e-05 0)
(0.000161664 -2.10908e-05 0)
(0.000163757 -5.2615e-06 0)
(0.000162784 1.07161e-05 0)
(0.000158751 2.64107e-05 0)
(0.000151784 4.14441e-05 0)
(0.000142004 5.54181e-05 0)
(0.000129601 6.79539e-05 0)
(0.000114869 7.87104e-05 0)
(9.81595e-05 8.73663e-05 0)
(7.99346e-05 9.36825e-05 0)
(6.06811e-05 9.74577e-05 0)
(4.0828e-05 9.85837e-05 0)
(2.10137e-05 9.70235e-05 0)
(1.81748e-06 9.28091e-05 0)
(-1.62953e-05 8.60683e-05 0)
(-3.27435e-05 7.70049e-05 0)
(-4.70485e-05 6.59178e-05 0)
(-5.87935e-05 5.3165e-05 0)
(-6.76187e-05 3.91644e-05 0)
(-7.3278e-05 2.44063e-05 0)
(-7.55726e-05 9.4157e-06 0)
(-7.44552e-05 -5.31612e-06 0)
(-7.00607e-05 -1.92711e-05 0)
(-6.26318e-05 -3.19148e-05 0)
(-5.24763e-05 -4.28097e-05 0)
(-4.00238e-05 -5.15589e-05 0)
(-2.58289e-05 -5.78238e-05 0)
(-1.04755e-05 -6.14051e-05 0)
(5.36744e-06 -6.21803e-05 0)
(2.09707e-05 -6.01591e-05 0)
(3.5631e-05 -5.54777e-05 0)
(4.87318e-05 -4.83641e-05 0)
(5.96905e-05 -3.91869e-05 0)
(6.80207e-05 -2.8379e-05 0)
(7.3364e-05 -1.64675e-05 0)
(7.55296e-05 -4.00362e-06 0)
(7.43285e-05 8.36782e-06 0)
(6.98668e-05 2.01614e-05 0)
(6.24695e-05 3.08156e-05 0)
(5.24306e-05 3.98501e-05 0)
(4.0227e-05 4.68875e-05 0)
(2.64847e-05 5.1655e-05 0)
(1.18764e-05 5.3973e-05 0)
(-3.02509e-06 5.38463e-05 0)
(-1.75011e-05 5.13267e-05 0)
(-3.08237e-05 4.66153e-05 0)
(-4.24831e-05 4.00433e-05 0)
(-5.201e-05 3.1982e-05 0)
(-5.90471e-05 2.28825e-05 0)
(-6.33548e-05 1.32207e-05 0)
(-6.48519e-05 3.47512e-06 0)
(-6.35935e-05 -5.89878e-06 0)
(-5.97596e-05 -1.45014e-05 0)
(-5.36126e-05 -2.1958e-05 0)
(-4.55365e-05 -2.80042e-05 0)
(-3.5997e-05 -3.24308e-05 0)
(-2.54753e-05 -3.51227e-05 0)
(-1.45041e-05 -3.60824e-05 0)
(-3.58916e-06 -3.53612e-05 0)
(6.78816e-06 -3.30978e-05 0)
(1.61955e-05 -2.95013e-05 0)
(2.42625e-05 -2.48136e-05 0)
(3.07045e-05 -1.93068e-05 0)
(3.5319e-05 -1.32921e-05 0)
(3.79906e-05 -7.06037e-06 0)
(3.87043e-05 -8.97225e-07 0)
(3.75255e-05 4.94244e-06 0)
(3.45932e-05 1.0224e-05 0)
(3.00988e-05 1.47728e-05 0)
(2.42971e-05 1.84299e-05 0)
(1.75067e-05 2.11262e-05 0)
(1.00107e-05 2.28001e-05 0)
(2.13317e-06 2.34603e-05 0)
(-5.76556e-06 2.3152e-05 0)
(-1.33724e-05 2.19459e-05 0)
(-2.04209e-05 1.99468e-05 0)
(-2.66668e-05 1.72853e-05 0)
(-3.19077e-05 1.4109e-05 0)
(-3.5981e-05 1.0567e-05 0)
(-3.87868e-05 6.80928e-06 0)
(-4.02708e-05 2.99623e-06 0)
(-4.04192e-05 -7.37439e-07 0)
(-3.9274e-05 -4.27319e-06 0)
(-3.69194e-05 -7.48445e-06 0)
(-3.34766e-05 -1.03007e-05 0)
(-2.9085e-05 -1.26445e-05 0)
(-2.39149e-05 -1.44731e-05 0)
(-1.81583e-05 -1.57641e-05 0)
(-1.20112e-05 -1.6507e-05 0)
(-5.66634e-06 -1.67209e-05 0)
(6.93841e-07 -1.6434e-05 0)
(6.8771e-06 -1.5691e-05 0)
(1.27146e-05 -1.45467e-05 0)
(1.80622e-05 -1.3059e-05 0)
(2.27922e-05 -1.13032e-05 0)
(2.68096e-05 -9.34221e-06 0)
(3.0031e-05 -7.23927e-06 0)
(3.24065e-05 -5.07047e-06 0)
(3.39109e-05 -2.88822e-06 0)
(3.454e-05 -7.50211e-07 0)
(3.43048e-05 1.29849e-06 0)
(3.32404e-05 3.21752e-06 0)
(3.13962e-05 4.97788e-06 0)
(2.8829e-05 6.55284e-06 0)
(2.56095e-05 7.92598e-06 0)
(2.18181e-05 9.08673e-06 0)
(1.75364e-05 1.00238e-05 0)
(1.28517e-05 1.07342e-05 0)
(7.85569e-06 1.1212e-05 0)
(2.64562e-06 1.14555e-05 0)
(-7.67705e-06 -0.000198735 0)
(-2.27557e-05 -0.000202592 0)
(-3.69337e-05 -0.000211331 0)
(-4.94985e-05 -0.00022444 0)
(-5.97105e-05 -0.000241795 0)
(-6.68286e-05 -0.000263181 0)
(-7.01911e-05 -0.000288247 0)
(-6.91043e-05 -0.000316575 0)
(-6.31534e-05 -0.000347461 0)
(-5.18493e-05 -0.000380275 0)
(-3.4928e-05 -0.000414219 0)
(-1.24064e-05 -0.00044855 0)
(1.56456e-05 -0.000482324 0)
(4.93405e-05 -0.000514694 0)
(8.83578e-05 -0.000544686 0)
(0.000132085 -0.000571428 0)
(0.000180448 -0.000594107 0)
(0.000232824 -0.000612121 0)
(0.000288517 -0.000624648 0)
(0.000346509 -0.000631204 0)
(0.000406031 -0.000631365 0)
(0.00046646 -0.000624913 0)
(0.000526709 -0.000611779 0)
(0.000585639 -0.000591907 0)
(0.000642645 -0.000565594 0)
(0.000696634 -0.000533072 0)
(0.000746656 -0.000495011 0)
(0.000791827 -0.000452086 0)
(0.000831515 -0.00040487 0)
(0.000865776 -0.000354319 0)
(0.00089333 -0.000301254 0)
(0.000914716 -0.0002464 0)
(0.000930039 -0.000190594 0)
(0.000938767 -0.000134482 0)
(0.000942145 -7.8822e-05 0)
(0.000939796 -2.41e-05 0)
(0.000931415 2.91187e-05 0)
(0.000917726 8.05772e-05 0)
(0.000899091 0.000129833 0)
(0.000876046 0.000176519 0)
(0.000848994 0.000220399 0)
(0.000818273 0.000261233 0)
(0.00078427 0.000298845 0)
(0.000747324 0.000333076 0)
(0.000707787 0.000363811 0)
(0.000666008 0.000390941 0)
(0.00062242 0.000414388 0)
(0.000577177 0.000434139 0)
(0.000530766 0.000450113 0)
(0.00048342 0.000462329 0)
(0.000435404 0.000470752 0)
(0.000387297 0.000475483 0)
(0.000339244 0.000476368 0)
(0.000291668 0.000473854 0)
(0.000244769 0.000467581 0)
(0.00019873 0.000457907 0)
(0.000154355 0.000444967 0)
(0.000111937 0.000428801 0)
(7.11928e-05 0.000409583 0)
(3.25171e-05 0.000387672 0)
(-3.07176e-06 0.000363153 0)
(-3.57465e-05 0.000336276 0)
(-6.54944e-05 0.000307407 0)
(-9.19106e-05 0.000276599 0)
(-0.000114835 0.000244396 0)
(-0.000133953 0.000211029 0)
(-0.000149276 0.000176898 0)
(-0.000160562 0.000142369 0)
(-0.00016786 0.000107881 0)
(-0.000171105 7.37938e-05 0)
(-0.000170339 4.05486e-05 0)
(-0.000165641 8.52142e-06 0)
(-0.000157178 -2.18381e-05 0)
(-0.000145143 -5.02069e-05 0)
(-0.000129753 -7.61409e-05 0)
(-0.000111366 -9.93552e-05 0)
(-9.02569e-05 -0.000119489 0)
(-6.68763e-05 -0.0001363 0)
(-4.16904e-05 -0.000149526 0)
(-1.51377e-05 -0.000159022 0)
(1.22554e-05 -0.000164707 0)
(3.98744e-05 -0.00016645 0)
(6.72096e-05 -0.000164298 0)
(9.3639e-05 -0.000158327 0)
(0.000118675 -0.000148683 0)
(0.000141789 -0.000135607 0)
(0.000162399 -0.000119407 0)
(0.00018011 -0.000100453 0)
(0.000194459 -7.91984e-05 0)
(0.000205093 -5.61239e-05 0)
(0.000211738 -3.17934e-05 0)
(0.000214257 -6.81941e-06 0)
(0.000212413 1.81741e-05 0)
(0.000206224 4.26331e-05 0)
(0.00019597 6.59566e-05 0)
(0.000181818 8.7476e-05 0)
(0.000164086 0.000106655 0)
(0.00014318 0.000122922 0)
(0.000119633 0.000135877 0)
(9.40905e-05 0.000145115 0)
(6.72362e-05 0.000150375 0)
(3.98129e-05 0.00015148 0)
(1.26001e-05 0.000148438 0)
(-1.36243e-05 0.000141275 0)
(-3.81085e-05 0.000130253 0)
(-6.00877e-05 0.000115689 0)
(-7.89123e-05 9.80565e-05 0)
(-9.40314e-05 7.79597e-05 0)
(-0.000104959 5.60387e-05 0)
(-0.00011134 3.3097e-05 0)
(-0.00011311 9.83371e-06 0)
(-0.000110237 -1.28026e-05 0)
(-0.000102786 -3.41205e-05 0)
(-9.11621e-05 -5.33068e-05 0)
(-7.59026e-05 -6.96827e-05 0)
(-5.76131e-05 -8.26502e-05 0)
(-3.70882e-05 -9.17014e-05 0)
(-1.51956e-05 -9.65547e-05 0)
(7.15669e-06 -9.70663e-05 0)
(2.89277e-05 -9.32789e-05 0)
(4.91952e-05 -8.54243e-05 0)
(6.71047e-05 -7.39312e-05 0)
(8.185e-05 -5.93403e-05 0)
(9.28369e-05 -4.23972e-05 0)
(9.96122e-05 -2.38704e-05 0)
(0.000101845 -4.72125e-06 0)
(9.95494e-05 1.41764e-05 0)
(9.29698e-05 3.2012e-05 0)
(8.24045e-05 4.79572e-05 0)
(6.84234e-05 6.12913e-05 0)
(5.17471e-05 7.14783e-05 0)
(3.31927e-05 7.81346e-05 0)
(1.37388e-05 8.10668e-05 0)
(-5.8286e-06 8.02465e-05 0)
(-2.45857e-05 7.59057e-05 0)
(-4.15781e-05 6.83544e-05 0)
(-5.61674e-05 5.81067e-05 0)
(-6.77788e-05 4.57699e-05 0)
(-7.60119e-05 3.20253e-05 0)
(-8.06376e-05 1.75992e-05 0)
(-8.16324e-05 3.17669e-06 0)
(-7.91274e-05 -1.05194e-05 0)
(-7.33996e-05 -2.29457e-05 0)
(-6.48887e-05 -3.35605e-05 0)
(-5.4119e-05 -4.20183e-05 0)
(-4.16911e-05 -4.80323e-05 0)
(-2.82706e-05 -5.15157e-05 0)
(-1.45195e-05 -5.24527e-05 0)
(-1.05435e-06 -5.09783e-05 0)
(1.15288e-05 -4.73358e-05 0)
(2.2728e-05 -4.18158e-05 0)
(3.21508e-05 -3.48128e-05 0)
(3.94704e-05 -2.67337e-05 0)
(4.44913e-05 -1.801e-05 0)
(4.7138e-05 -9.06952e-06 0)
(4.74318e-05 -3.05431e-07 0)
(4.54853e-05 7.91345e-06 0)
(4.15206e-05 1.52851e-05 0)
(3.57901e-05 2.15513e-05 0)
(2.86351e-05 2.65414e-05 0)
(2.04204e-05 3.01324e-05 0)
(1.15118e-05 3.22802e-05 0)
(2.30284e-06 3.30098e-05 0)
(-6.82589e-06 3.23861e-05 0)
(-1.55127e-05 3.05308e-05 0)
(-2.34655e-05 2.75965e-05 0)
(-3.04091e-05 2.37743e-05 0)
(-3.61484e-05 1.92619e-05 0)
(-4.05239e-05 1.4288e-05 0)
(-4.34316e-05 9.05009e-06 0)
(-4.48358e-05 3.76527e-06 0)
(-4.47538e-05 -1.37498e-06 0)
(-4.32458e-05 -6.21074e-06 0)
(-4.04196e-05 -1.05855e-05 0)
(-3.64291e-05 -1.43938e-05 0)
(-3.14386e-05 -1.75392e-05 0)
(-2.56481e-05 -1.99667e-05 0)
(-1.92667e-05 -2.16577e-05 0)
(-1.25151e-05 -2.25967e-05 0)
(-5.60574e-06 -2.28151e-05 0)
(1.26408e-06 -2.23515e-05 0)
(7.89292e-06 -2.12802e-05 0)
(1.41069e-05 -1.96687e-05 0)
(1.97482e-05 -1.76044e-05 0)
(2.47011e-05 -1.51854e-05 0)
(2.8867e-05 -1.24983e-05 0)
(3.21622e-05 -9.64221e-06 0)
(3.45513e-05 -6.69724e-06 0)
(3.6014e-05 -3.75047e-06 0)
(3.65507e-05 -8.70908e-07 0)
(3.61867e-05 1.87593e-06 0)
(3.49653e-05 4.44706e-06 0)
(3.29384e-05 6.79355e-06 0)
(3.01758e-05 8.88972e-06 0)
(2.67539e-05 1.07134e-05 0)
(2.27529e-05 1.22486e-05 0)
(1.82605e-05 1.34886e-05 0)
(1.33679e-05 1.44258e-05 0)
(8.16607e-06 1.50542e-05 0)
(2.74992e-06 1.53756e-05 0)
(-2.75709e-05 -6.50059e-05 0)
(-8.23856e-05 -7.62336e-05 0)
(-0.000135651 -9.73337e-05 0)
(-0.000185822 -0.000128958 0)
(-0.000231455 -0.000170699 0)
(-0.000271014 -0.000221994 0)
(-0.000303074 -0.000281612 0)
(-0.000325417 -0.000348661 0)
(-0.00033678 -0.000420538 0)
(-0.000336746 -0.000496214 0)
(-0.000324834 -0.00057332 0)
(-0.0003006 -0.000650162 0)
(-0.000263612 -0.000724757 0)
(-0.000214123 -0.00079543 0)
(-0.00015253 -0.000860476 0)
(-7.99934e-05 -0.000918379 0)
(1.45725e-06 -0.000967597 0)
(9.14864e-05 -0.00100688 0)
(0.000188723 -0.00103519 0)
(0.000290526 -0.00105157 0)
(0.00039514 -0.00105519 0)
(0.000500098 -0.00104577 0)
(0.000604195 -0.0010231 0)
(0.000704868 -0.000987419 0)
(0.000800475 -0.000939161 0)
(0.000889027 -0.000879499 0)
(0.000967644 -0.00080914 0)
(0.00103673 -0.000730574 0)
(0.00109511 -0.000644302 0)
(0.0011416 -0.00055371 0)
(0.00117684 -0.000459635 0)
(0.00120096 -0.000364691 0)
(0.00121458 -0.000270185 0)
(0.001218 -0.000177452 0)
(0.00121218 -8.74376e-05 0)
(0.00119809 -1.03929e-06 0)
(0.00117698 8.11482e-05 0)
(0.00114967 0.000158602 0)
(0.00111619 0.000231001 0)
(0.00107748 0.000298097 0)
(0.00103409 0.000359712 0)
(0.000986516 0.000415707 0)
(0.000935364 0.000466159 0)
(0.000881152 0.000510954 0)
(0.000824335 0.000550141 0)
(0.000765295 0.00058385 0)
(0.000704694 0.000612069 0)
(0.000642696 0.000634812 0)
(0.000579771 0.000652263 0)
(0.000516324 0.000664398 0)
(0.000452865 0.00067145 0)
(0.000389296 0.000673385 0)
(0.000326946 0.000670393 0)
(0.000265534 0.000662484 0)
(0.000204905 0.000649955 0)
(0.000146637 0.000632795 0)
(9.06841e-05 0.000611331 0)
(3.69661e-05 0.000585681 0)
(-1.35383e-05 0.000556089 0)
(-6.04187e-05 0.000522864 0)
(-0.000104195 0.000486274 0)
(-0.000143649 0.000446624 0)
(-0.000179076 0.000404217 0)
(-0.00020992 0.00035969 0)
(-0.000235611 0.000313256 0)
(-0.000256477 0.000265591 0)
(-0.000272119 0.000217022 0)
(-0.000282306 0.000168213 0)
(-0.000287164 0.000119603 0)
(-0.00028665 7.18453e-05 0)
(-0.000280783 2.54443e-05 0)
(-0.000269764 -1.89987e-05 0)
(-0.000253817 -6.09479e-05 0)
(-0.000233191 -9.9834e-05 0)
(-0.000208288 -0.000135182 0)
(-0.000179512 -0.000166489 0)
(-0.000147308 -0.000193322 0)
(-0.000112367 -0.000215344 0)
(-7.52165e-05 -0.000232212 0)
(-3.65922e-05 -0.000243732 0)
(2.82781e-06 -0.000249707 0)
(4.22931e-05 -0.000250132 0)
(8.10057e-05 -0.00024499 0)
(0.000118271 -0.00023448 0)
(0.000153277 -0.000218808 0)
(0.000185312 -0.000198375 0)
(0.000213693 -0.000173584 0)
(0.000237755 -0.000145048 0)
(0.000256999 -0.000113365 0)
(0.000270974 -7.93165e-05 0)
(0.000279264 -4.36152e-05 0)
(0.000281617 -7.13677e-06 0)
(0.000278123 2.9101e-05 0)
(0.000268924 6.43596e-05 0)
(0.000254017 9.77574e-05 0)
(0.000233751 0.000128401 0)
(0.000208624 0.000155482 0)
(0.000179303 0.000178267 0)
(0.000146566 0.000196136 0)
(0.000111243 0.000208574 0)
(7.4341e-05 0.000215241 0)
(3.68839e-05 0.0002159 0)
(-6.56067e-08 0.000210571 0)
(-3.54168e-05 0.000199376 0)
(-6.81356e-05 0.0001827 0)
(-9.72688e-05 0.000161046 0)
(-0.000121827 0.000135119 0)
(-0.000141139 0.000105771 0)
(-0.000154555 7.39961e-05 0)
(-0.000161795 4.08275e-05 0)
(-0.00016252 7.46929e-06 0)
(-0.000156797 -2.48069e-05 0)
(-0.00014509 -5.49687e-05 0)
(-0.000127776 -8.19518e-05 0)
(-0.000105642 -0.000104697 0)
(-7.94947e-05 -0.000122417 0)
(-5.05155e-05 -0.000134456 0)
(-1.99675e-05 -0.000140423 0)
(1.09059e-05 -0.000140148 0)
(4.07291e-05 -0.000133752 0)
(6.81764e-05 -0.000121623 0)
(9.21576e-05 -0.000104388 0)
(0.000111622 -8.2933e-05 0)
(0.000125789 -5.82746e-05 0)
(0.000134053 -3.16517e-05 0)
(0.000136133 -4.33212e-06 0)
(0.000132184 2.24008e-05 0)
(0.000122489 4.73415e-05 0)
(0.000107578 6.93688e-05 0)
(8.82769e-05 8.75289e-05 0)
(6.56353e-05 0.000101091 0)
(4.08226e-05 0.000109559 0)
(1.50669e-05 0.000112794 0)
(-1.044e-05 0.000110734 0)
(-3.4507e-05 0.000103839 0)
(-5.60313e-05 9.26181e-05 0)
(-7.4134e-05 7.78161e-05 0)
(-8.8165e-05 6.03144e-05 0)
(-9.76688e-05 4.10896e-05 0)
(-0.000102469 2.11412e-05 0)
(-0.000102559 1.47643e-06 0)
(-9.82385e-05 -1.70307e-05 0)
(-8.9981e-05 -3.35623e-05 0)
(-7.83597e-05 -4.74986e-05 0)
(-6.41189e-05 -5.8347e-05 0)
(-4.80722e-05 -6.58425e-05 0)
(-3.10603e-05 -6.98522e-05 0)
(-1.3892e-05 -7.04605e-05 0)
(2.62145e-06 -6.78833e-05 0)
(1.78241e-05 -6.24556e-05 0)
(3.11275e-05 -5.46572e-05 0)
(4.20557e-05 -4.49809e-05 0)
(5.03124e-05 -3.40145e-05 0)
(5.5705e-05 -2.23281e-05 0)
(5.81975e-05 -1.04759e-05 0)
(5.78738e-05 1.00789e-06 0)
(5.49271e-05 1.16761e-05 0)
(4.96471e-05 2.11379e-05 0)
(4.23878e-05 2.90857e-05 0)
(3.35658e-05 3.53157e-05 0)
(2.36422e-05 3.96984e-05 0)
(1.3062e-05 4.21925e-05 0)
(2.2646e-06 4.28566e-05 0)
(-8.29748e-06 4.17838e-05 0)
(-1.82285e-05 3.91602e-05 0)
(-2.72022e-05 3.51845e-05 0)
(-3.49412e-05 3.01141e-05 0)
(-4.12228e-05 2.42062e-05 0)
(-4.5898e-05 1.77551e-05 0)
(-4.88912e-05 1.10208e-05 0)
(-5.0169e-05 4.27596e-06 0)
(-4.97849e-05 -2.24967e-06 0)
(-4.78242e-05 -8.34096e-06 0)
(-4.44305e-05 -1.38275e-05 0)
(-3.97883e-05 -1.85632e-05 0)
(-3.40879e-05 -2.2444e-05 0)
(-2.75722e-05 -2.54074e-05 0)
(-2.04698e-05 -2.74277e-05 0)
(-1.30212e-05 -2.85066e-05 0)
(-5.464e-06 -2.86764e-05 0)
(1.98569e-06 -2.80048e-05 0)
(9.11507e-06 -2.65738e-05 0)
(1.5749e-05 -2.44836e-05 0)
(2.17223e-05 -2.18401e-05 0)
(2.69145e-05 -1.87648e-05 0)
(3.12349e-05 -1.53779e-05 0)
(3.46096e-05 -1.17946e-05 0)
(3.7004e-05 -8.12125e-06 0)
(3.84061e-05 -4.45728e-06 0)
(3.88317e-05 -8.93334e-07 0)
(3.83152e-05 2.50494e-06 0)
(3.69069e-05 5.66404e-06 0)
(3.46709e-05 8.54473e-06 0)
(3.16855e-05 1.11087e-05 0)
(2.80296e-05 1.33319e-05 0)
(2.37949e-05 1.51979e-05 0)
(1.90696e-05 1.67037e-05 0)
(1.39419e-05 1.78391e-05 0)
(8.50963e-06 1.86049e-05 0)
(2.865e-06 1.89908e-05 0)
(-6.91384e-05 0.000451409 0)
(-0.000206557 0.000430244 0)
(-0.000340624 0.000385964 0)
(-0.000467541 0.000319599 0)
(-0.000583985 0.000231969 0)
(-0.000685114 0.000124242 0)
(-0.000768777 -7.7107e-07 0)
(-0.000827309 -0.000141689 0)
(-0.000860166 -0.000293631 0)
(-0.000868648 -0.000456561 0)
(-0.000849613 -0.000624848 0)
(-0.000805613 -0.000793789 0)
(-0.000737386 -0.000958136 0)
(-0.000646894 -0.00111324 0)
(-0.000535807 -0.0012548 0)
(-0.000406093 -0.00137924 0)
(-0.000259814 -0.0014836 0)
(-0.000100328 -0.00156537 0)
(6.99038e-05 -0.00162308 0)
(0.000248275 -0.00165529 0)
(0.000430653 -0.00166127 0)
(0.000613354 -0.00164079 0)
(0.000792983 -0.00159392 0)
(0.000965475 -0.00152194 0)
(0.00112615 -0.00142588 0)