# Selection :     patch(inlet)
# Faces  :        1
# Area   :        1.0000000000e-01
# Time            	areaIntegrate(epsilon)
1                 	2.4260505440e-03
