#           v             n
     0.523599             0
     0.648652             0
     0.790112             0
     0.953116             0
      1.13449             0
      1.34047             0
      1.56672             0
      1.82069             0
      2.09677   4.43668e-11
      2.40376   1.81712e-09
      2.73462   4.05158e-08
      3.09966   4.48765e-07
      3.49026   3.64122e-06
      3.91837   1.93409e-05
      4.37366   8.21869e-05
      4.86986    0.00025693
       5.3948   0.000672437
      5.96412    0.00137773
      6.56366    0.00242465
      7.21112    0.00346432
      7.89023    0.00431978
      8.62085    0.00447931
      9.38447    0.00410181
      10.2033    0.00318029
      11.0564    0.00219992
      11.9684    0.00130751
      12.9159    0.00069977
      13.9262   0.000325787
      14.9731   0.000471319
