/*--------------------------------*- C++ -*----------------------------------*\
  =========                 |
  \\      /  F ield         | OpenFOAM: The Open Source CFD Toolbox
   \\    /   O peration     | Website:  https://openfoam.org
    \\  /    A nd           | Version:  12
     \\/     M anipulation  |
\*---------------------------------------------------------------------------*/
FoamFile
{
    format      ascii;
    class       volVectorField;
    location    "13.46";
    object      U;
}
// * * * * * * * * * * * * * * * * * * * * * * * * * * * * * * * * * * * * * //

dimensions      [0 1 -1 0 0 0 0];

internalField   nonuniform List<vector> 
3829
(
(-3.71345e-06 -0.000305211 0)
(-1.21721e-05 -0.000319416 0)
(-1.9903e-05 -0.000318662 0)
(-2.83806e-05 -0.000317096 0)
(-3.69438e-05 -0.000314988 0)
(-4.59566e-05 -0.000312314 0)
(-5.533e-05 -0.000309086 0)
(-6.52083e-05 -0.000305306 0)
(-7.56173e-05 -0.000300978 0)
(-8.66461e-05 -0.000296123 0)
(-9.82884e-05 -0.000290757 0)
(-0.00011059 -0.00028491 0)
(-0.00012366 -0.000278615 0)
(-0.000137465 -0.000271903 0)
(-0.000152017 -0.000264816 0)
(-0.00016732 -0.000257396 0)
(-0.00018337 -0.000249692 0)
(-0.000200145 -0.000241753 0)
(-0.000217606 -0.000233629 0)
(-0.000235693 -0.000225365 0)
(-0.000254348 -0.000217021 0)
(-0.000273497 -0.000208638 0)
(-0.000293092 -0.000200273 0)
(-0.000312961 -0.000191969 0)
(-0.000333014 -0.000183776 0)
(-0.000353088 -0.000175739 0)
(-0.000373156 -0.000167907 0)
(-0.00039311 -0.000160308 0)
(-0.000412651 -0.000152981 0)
(-0.000431866 -0.000145982 0)
(-0.00045053 -0.000139312 0)
(-0.000468409 -0.000133025 0)
(-0.000485678 -0.000127118 0)
(-0.000501859 -0.000121628 0)
(-0.000517007 -0.000116572 0)
(-0.000531067 -0.000111914 0)
(-0.000543814 -0.00010772 0)
(-0.000555152 -0.00010392 0)
(-0.000564863 -0.000100575 0)
(-0.000573072 -9.76426e-05 0)
(-0.000579531 -9.51483e-05 0)
(-0.000584174 -9.30894e-05 0)
(-0.000586962 -9.1433e-05 0)
(-0.000587662 -9.01431e-05 0)
(-0.000585934 -8.92285e-05 0)
(-0.000581691 -8.87022e-05 0)
(-0.000574956 -8.85554e-05 0)
(-0.000565707 -8.87601e-05 0)
(-0.000554053 -8.92746e-05 0)
(-0.000539967 -9.00486e-05 0)
(-0.000523433 -9.10567e-05 0)
(-0.000504481 -9.21983e-05 0)
(-0.000483417 -9.34533e-05 0)
(-0.000460098 -9.46782e-05 0)
(-0.000434693 -9.59073e-05 0)
(-0.000407295 -9.69131e-05 0)
(-0.00037801 -9.78473e-05 0)
(-0.000347435 -9.84336e-05 0)
(-0.000315189 -9.87122e-05 0)
(-0.000281395 -9.8537e-05 0)
(-0.000247027 -9.80062e-05 0)
(-0.000211877 -9.68423e-05 0)
(-0.000176049 -9.51921e-05 0)
(-0.000140205 -9.28921e-05 0)
(-0.000104619 -9.0005e-05 0)
(-6.93958e-05 -8.64685e-05 0)
(-3.5469e-05 -8.23574e-05 0)
(-2.70336e-06 -7.75153e-05 0)
(2.85824e-05 -7.20988e-05 0)
(5.76288e-05 -6.60211e-05 0)
(8.44751e-05 -5.93946e-05 0)
(0.000108325 -5.22371e-05 0)
(0.000129395 -4.45972e-05 0)
(0.000146817 -3.66402e-05 0)
(0.000160969 -2.82844e-05 0)
(0.000171042 -1.98876e-05 0)
(0.000177022 -1.12123e-05 0)
(0.00017917 -2.664e-06 0)
(0.000176649 5.71702e-06 0)
(0.000169656 1.38003e-05 0)
(0.000158588 2.15026e-05 0)
(0.000143665 2.86026e-05 0)
(0.000124869 3.50697e-05 0)
(0.000102821 4.07327e-05 0)
(7.77364e-05 4.55017e-05 0)
(5.01746e-05 4.92497e-05 0)
(2.06648e-05 5.1915e-05 0)
(-1.02718e-05 5.33587e-05 0)
(-4.18539e-05 5.35982e-05 0)
(-7.3401e-05 5.25505e-05 0)
(-0.000104253 5.02702e-05 0)
(-0.000133516 4.67462e-05 0)
(-0.000160564 4.20493e-05 0)
(-0.000184562 3.62659e-05 0)
(-0.000204879 2.94988e-05 0)
(-0.000220894 2.19268e-05 0)
(-0.00023198 1.37054e-05 0)
(-0.000237847 5.03152e-06 0)
(-0.000237734 -3.83818e-06 0)
(-0.000231341 -1.27119e-05 0)
(-0.000218857 -2.13219e-05 0)
(-0.000200635 -2.9478e-05 0)
(-0.000177031 -3.6839e-05 0)
(-0.000148584 -4.32399e-05 0)
(-0.000115878 -4.83898e-05 0)
(-7.98508e-05 -5.217e-05 0)
(-4.15022e-05 -5.43012e-05 0)
(-1.63485e-06 -5.47801e-05 0)
(3.80655e-05 -5.34655e-05 0)
(7.64332e-05 -5.04029e-05 0)
(0.000112206 -4.56388e-05 0)
(0.000144 -3.92365e-05 0)
(0.000170698 -3.1494e-05 0)
(0.000191141 -2.25376e-05 0)
(0.000204557 -1.27585e-05 0)
(0.000210153 -2.47191e-06 0)
(0.000207067 7.94663e-06 0)
(0.00019524 1.81133e-05 0)
(0.000175159 2.75976e-05 0)
(0.000147771 3.60261e-05 0)
(0.000113647 4.30038e-05 0)
(7.41064e-05 4.81699e-05 0)
(3.08773e-05 5.13871e-05 0)
(-1.47934e-05 5.23138e-05 0)
(-6.04262e-05 5.09084e-05 0)
(-0.000103977 4.71664e-05 0)
(-0.00014344 4.13347e-05 0)
(-0.000176994 3.35418e-05 0)
(-0.000203076 2.41841e-05 0)
(-0.000220058 1.37737e-05 0)
(-0.000227145 2.6684e-06 0)
(-0.000223544 -8.35165e-06 0)
(-0.000208856 -1.88468e-05 0)
(-0.000184434 -2.82996e-05 0)
(-0.000151676 -3.60695e-05 0)
(-0.000111969 -4.18148e-05 0)
(-6.74578e-05 -4.49986e-05 0)
(-2.07056e-05 -4.57186e-05 0)
(2.54589e-05 -4.35275e-05 0)
(6.82619e-05 -3.89337e-05 0)
(0.000105154 -3.19921e-05 0)
(0.000133913 -2.32908e-05 0)
(0.000152832 -1.33801e-05 0)
(0.000160905 -2.98864e-06 0)
(0.000157353 7.1387e-06 0)
(0.000142603 1.62624e-05 0)
(0.000118411 2.38689e-05 0)
(8.68946e-05 2.92247e-05 0)
(5.04789e-05 3.2005e-05 0)
(1.215e-05 3.20596e-05 0)
(-2.45691e-05 2.92646e-05 0)
(-5.63029e-05 2.40506e-05 0)
(-8.0642e-05 1.68441e-05 0)
(-9.55185e-05 8.39623e-06 0)
(-9.94224e-05 -4.91097e-07 0)
(-9.20785e-05 -8.96817e-06 0)
(-7.46974e-05 -1.6205e-05 0)
(-4.92939e-05 -2.15071e-05 0)
(-1.8535e-05 -2.43213e-05 0)
(1.47928e-05 -2.42823e-05 0)
(4.61375e-05 -2.13972e-05 0)
(7.13586e-05 -1.60848e-05 0)
(8.81022e-05 -8.91062e-06 0)
(9.4306e-05 -6.74171e-07 0)
(8.86268e-05 7.62174e-06 0)
(7.14037e-05 1.50846e-05 0)
(4.48706e-05 2.08478e-05 0)
(1.09022e-05 2.42379e-05 0)
(-2.61284e-05 2.47476e-05 0)
(-6.10541e-05 2.237e-05 0)
(-9.04477e-05 1.74204e-05 0)
(-0.000111039 1.05825e-05 0)
(-0.000120457 2.75404e-06 0)
(-0.000117537 -5.07409e-06 0)
(-0.000102972 -1.19022e-05 0)
(-7.91383e-05 -1.68971e-05 0)
(-4.93709e-05 -1.94397e-05 0)
(-1.7631e-05 -1.93856e-05 0)
(1.18774e-05 -1.67715e-05 0)
(3.54762e-05 -1.22858e-05 0)
(5.0502e-05 -6.67298e-06 0)
(5.59029e-05 -8.34879e-07 0)
(5.19411e-05 4.2463e-06 0)
(4.0369e-05 7.97617e-06 0)
(2.40683e-05 9.91188e-06 0)
(6.10021e-06 9.99748e-06 0)
(-1.03587e-05 8.46471e-06 0)
(-2.28948e-05 5.83773e-06 0)
(-3.0055e-05 2.76092e-06 0)
(-3.17899e-05 -1.54187e-07 0)
(-2.86986e-05 -2.39578e-06 0)
(-2.24217e-05 -3.75438e-06 0)
(-1.48976e-05 -4.09916e-06 0)
(-7.33394e-06 -3.70204e-06 0)
(-1.291e-06 -2.71275e-06 0)
(2.65941e-06 -1.59223e-06 0)
(4.45571e-06 -5.42518e-07 0)
(4.37602e-06 2.93458e-07 0)
(3.114e-06 8.40769e-07 0)
(1.1044e-06 1.09842e-06 0)
(2.53637e-07 0.000433196 0)
(1.6817e-06 0.000444879 0)
(3.0326e-06 0.00044606 0)
(4.11325e-06 0.000447595 0)
(4.82325e-06 0.00044961 0)
(5.01265e-06 0.000452066 0)
(4.51043e-06 0.000454908 0)
(3.24175e-06 0.000458072 0)
(1.03224e-06 0.000461468 0)
(-2.29741e-06 0.000464996 0)
(-6.78175e-06 0.000468503 0)
(-1.26129e-05 0.000471907 0)
(-1.98948e-05 0.000475019 0)
(-2.86166e-05 0.000477781 0)
(-3.88657e-05 0.000479995 0)
(-5.06861e-05 0.000481582 0)
(-6.40811e-05 0.000482353 0)
(-7.90158e-05 0.000482245 0)
(-9.54059e-05 0.000481107 0)
(-0.00011322 0.000478876 0)
(-0.000132362 0.000475445 0)
(-0.000152703 0.000470759 0)
(-0.000174193 0.000464762 0)
(-0.000196572 0.000457423 0)
(-0.000219753 0.000448737 0)
(-0.000243555 0.000438714 0)
(-0.000267801 0.000427349 0)
(-0.000292297 0.00041468 0)
(-0.000316932 0.000400793 0)
(-0.000341526 0.000385677 0)
(-0.000365812 0.000369433 0)
(-0.000389552 0.000352097 0)
(-0.000412789 0.000333699 0)
(-0.000435175 0.000314327 0)
(-0.000456324 0.000294023 0)
(-0.000476471 0.000272776 0)
(-0.000495179 0.000250703 0)
(-0.000512303 0.000227849 0)
(-0.000527767 0.000204267 0)
(-0.000541473 0.000180073 0)
(-0.000553422 0.000155361 0)
(-0.000563214 0.000130272 0)
(-0.000570632 0.000104853 0)
(-0.00057569 7.92458e-05 0)
(-0.000578337 5.34688e-05 0)
(-0.00057839 2.78335e-05 0)
(-0.00057565 2.49874e-06 0)
(-0.000569928 -2.23593e-05 0)
(-0.000561233 -4.66613e-05 0)
(-0.000549634 -7.01959e-05 0)
(-0.000534883 -9.28532e-05 0)
(-0.000517044 -0.000114469 0)
(-0.000496243 -0.000135037 0)
(-0.000472625 -0.000154155 0)
(-0.000445983 -0.000171987 0)
(-0.000416986 -0.000188064 0)
(-0.000385553 -0.000202509 0)
(-0.000351739 -0.00021494 0)
(-0.000315833 -0.000225435 0)
(-0.000278229 -0.00023364 0)
(-0.000239327 -0.00023974 0)
(-0.000199137 -0.000243251 0)
(-0.00015832 -0.000244482 0)
(-0.000117148 -0.000243052 0)
(-7.63656e-05 -0.000239209 0)
(-3.61257e-05 -0.000232721 0)
(3.04197e-06 -0.000223824 0)
(4.09379e-05 -0.000212303 0)
(7.69353e-05 -0.0001985 0)
(0.000110469 -0.000182357 0)
(0.000141158 -0.000164167 0)
(0.000168483 -0.000144025 0)
(0.000192086 -0.000122199 0)
(0.000211626 -9.90191e-05 0)
(0.000226767 -7.46117e-05 0)
(0.000237324 -4.96297e-05 0)
(0.000243128 -2.40178e-05 0)
(0.000243397 1.43513e-06 0)
(0.000238399 2.65768e-05 0)
(0.000228183 5.07944e-05 0)
(0.000212838 7.40744e-05 0)
(0.000192817 9.54549e-05 0)
(0.000168313 0.000115055 0)
(0.000139757 0.000132048 0)
(0.000107547 0.000146392 0)
(7.23635e-05 0.000157495 0)
(3.47225e-05 0.000165276 0)
(-4.57641e-06 0.000169328 0)
(-4.45468e-05 0.000169633 0)
(-8.43868e-05 0.000165973 0)
(-0.000123198 0.000158459 0)
(-0.000160044 0.000147133 0)
(-0.000193996 0.000132148 0)
(-0.000224139 0.00011381 0)
(-0.00024958 9.24713e-05 0)
(-0.000269566 6.86078e-05 0)
(-0.000283453 4.27585e-05 0)
(-0.000290684 1.55371e-05 0)
(-0.000290556 -1.23204e-05 0)
(-0.000282795 -4.01104e-05 0)
(-0.000267637 -6.70478e-05 0)
(-0.000245269 -9.24321e-05 0)
(-0.000216167 -0.000115352 0)
(-0.000181062 -0.000135221 0)
(-0.000140706 -0.000151179 0)
(-9.61135e-05 -0.000162744 0)
(-4.86206e-05 -0.000169295 0)
(5.6816e-07 -0.0001706 0)
(4.96332e-05 -0.000166429 0)
(9.69078e-05 -0.000156716 0)
(0.000141097 -0.000141716 0)
(0.00018019 -0.000121749 0)
(0.000212937 -9.74649e-05 0)
(0.000237998 -6.96033e-05 0)
(0.000254171 -3.90244e-05 0)
(0.00026076 -6.96685e-06 0)
(0.000256804 2.55084e-05 0)
(0.000242182 5.7082e-05 0)
(0.000217464 8.65238e-05 0)
(0.00018374 0.000112633 0)
(0.000141679 0.000134159 0)
(9.3243e-05 0.000150129 0)
(4.02404e-05 0.000159839 0)
(-1.58395e-05 0.000162402 0)
(-7.17455e-05 0.000157878 0)
(-0.000124808 0.000146047 0)
(-0.000172752 0.00012779 0)
(-0.000213477 0.000103312 0)
(-0.000244649 7.42547e-05 0)
(-0.000264789 4.16064e-05 0)
(-0.000272625 7.29902e-06 0)
(-0.000267267 -2.71151e-05 0)
(-0.000248932 -5.97035e-05 0)
(-0.000218646 -8.88209e-05 0)
(-0.00017822 -0.000112807 0)
(-0.000129319 -0.0001301 0)
(-7.49717e-05 -0.000139933 0)
(-1.7951e-05 -0.000141385 0)
(3.81425e-05 -0.000134567 0)
(8.95987e-05 -0.000119658 0)
(0.000133772 -9.79664e-05 0)
(0.000167579 -7.06698e-05 0)
(0.000189139 -3.98177e-05 0)
(0.000197187 -7.40454e-06 0)
(0.000191009 2.40402e-05 0)
(0.000171519 5.2441e-05 0)
(0.000140566 7.56931e-05 0)
(0.00010065 9.2081e-05 0)
(5.5231e-05 0.000100339 0)
(7.65106e-06 9.99913e-05 0)
(-3.76113e-05 9.09617e-05 0)
(-7.6309e-05 7.42603e-05 0)
(-0.000105577 5.16676e-05 0)
(-0.000122821 2.51127e-05 0)
(-0.000126463 -2.68596e-06 0)
(-0.000116275 -2.91051e-05 0)
(-9.37908e-05 -5.16323e-05 0)
(-6.15207e-05 -6.79974e-05 0)
(-2.26848e-05 -7.6542e-05 0)
(1.90654e-05 -7.60458e-05 0)
(5.80239e-05 -6.69334e-05 0)
(8.92704e-05 -5.02012e-05 0)
(0.000109964 -2.76776e-05 0)
(0.000117498 -1.93574e-06 0)
(0.000110487 2.38969e-05 0)
(8.95457e-05 4.70915e-05 0)
(5.72894e-05 6.48871e-05 0)
(1.61454e-05 7.51182e-05 0)
(-2.85821e-05 7.65279e-05 0)
(-7.06271e-05 6.8842e-05 0)
(-0.000105686 5.33339e-05 0)
(-0.00012979 3.20173e-05 0)
(-0.00014025 7.70312e-06 0)
(-0.000135859 -1.64446e-05 0)
(-0.000117589 -3.73784e-05 0)
(-8.83584e-05 -5.24986e-05 0)
(-5.23917e-05 -6.00434e-05 0)
(-1.44642e-05 -5.94535e-05 0)
(2.02388e-05 -5.10932e-05 0)
(4.72425e-05 -3.69484e-05 0)
(6.3697e-05 -1.94931e-05 0)
(6.83467e-05 -1.5372e-06 0)
(6.18717e-05 1.406e-05 0)
(4.66869e-05 2.52935e-05 0)
(2.63041e-05 3.08857e-05 0)
(4.53653e-06 3.0751e-05 0)
(-1.48237e-05 2.56729e-05 0)
(-2.89528e-05 1.73395e-05 0)
(-3.63492e-05 7.76069e-06 0)
(-3.71474e-05 -1.15553e-06 0)
(-3.23978e-05 -7.91412e-06 0)
(-2.41546e-05 -1.18069e-05 0)
(-1.48483e-05 -1.26243e-05 0)
(-5.96185e-06 -1.11235e-05 0)
(7.76349e-07 -8.07717e-06 0)
(4.76235e-06 -4.5446e-06 0)
(6.26244e-06 -1.35351e-06 0)
(5.68669e-06 1.13519e-06 0)
(3.86842e-06 2.6931e-06 0)
(1.34395e-06 3.42874e-06 0)
(8.25057e-07 -0.000268507 0)
(2.53834e-06 -0.000286528 0)
(3.78086e-06 -0.000282763 0)
(4.38707e-06 -0.000276491 0)
(4.0268e-06 -0.000267951 0)
(2.29002e-06 -0.000257188 0)
(-9.14704e-07 -0.00024405 0)
(-5.96584e-06 -0.000228673 0)
(-1.31199e-05 -0.000210953 0)
(-2.29139e-05 -0.000191253 0)
(-3.51503e-05 -0.000169702 0)
(-5.0098e-05 -0.000146647 0)
(-6.76481e-05 -0.000122401 0)
(-8.77597e-05 -9.72907e-05 0)
(-0.00011053 -7.1706e-05 0)
(-0.000135819 -4.59801e-05 0)
(-0.000163467 -2.04795e-05 0)
(-0.000193129 4.45498e-06 0)
(-0.000224711 2.85725e-05 0)
(-0.000257803 5.14464e-05 0)
(-0.000292277 7.28545e-05 0)
(-0.00032768 9.25556e-05 0)
(-0.000363779 0.000110406 0)
(-0.000400062 0.000126141 0)
(-0.000436178 0.000139754 0)
(-0.000471965 0.000150901 0)
(-0.00050721 0.000159883 0)
(-0.000541261 0.000166336 0)
(-0.000574161 0.000170479 0)
(-0.000605895 0.000172102 0)
(-0.000635964 0.000171372 0)
(-0.000664581 0.000168144 0)
(-0.000691618 0.000162548 0)
(-0.000716546 0.000154694 0)
(-0.000739934 0.000144575 0)
(-0.000761373 0.00013223 0)
(-0.000780382 0.000117904 0)
(-0.000797288 0.000101462 0)
(-0.00081162 8.30149e-05 0)
(-0.000823301 6.26036e-05 0)
(-0.000832009 4.02993e-05 0)
(-0.000837885 1.62783e-05 0)
(-0.000840885 -9.31801e-06 0)
(-0.00084097 -3.6245e-05 0)
(-0.000837025 -6.41607e-05 0)
(-0.000828305 -9.30874e-05 0)
(-0.000815538 -0.000122771 0)
(-0.000799101 -0.000152972 0)
(-0.000778976 -0.000183407 0)
(-0.000755042 -0.000213642 0)
(-0.000727526 -0.00024355 0)
(-0.000696961 -0.000272673 0)
(-0.000662608 -0.000300737 0)
(-0.000625129 -0.000327235 0)
(-0.000584443 -0.000352004 0)
(-0.000540512 -0.000374625 0)
(-0.000493914 -0.000394739 0)
(-0.000444955 -0.000411998 0)
(-0.000393531 -0.000426127 0)
(-0.000340226 -0.000436892 0)
(-0.000285498 -0.000444005 0)
(-0.000229638 -0.000447266 0)
(-0.000173293 -0.000446466 0)
(-0.000116805 -0.000441541 0)
(-6.11202e-05 -0.000432311 0)
(-6.26615e-06 -0.000418799 0)
(4.67774e-05 -0.000400943 0)
(9.77411e-05 -0.000378879 0)
(0.000145719 -0.000352759 0)
(0.000190172 -0.000322716 0)
(0.00023057 -0.000289145 0)
(0.000266329 -0.000252238 0)
(0.00029679 -0.000212572 0)
(0.00032169 -0.000170438 0)
(0.000340304 -0.000126485 0)
(0.000352611 -8.12225e-05 0)
(0.000358182 -3.53493e-05 0)
(0.000356529 1.04798e-05 0)
(0.000347689 5.55399e-05 0)
(0.000332331 9.90044e-05 0)
(0.00030978 0.000140423 0)
(0.000280789 0.000178751 0)
(0.000245932 0.000213408 0)
(0.000205326 0.000243631 0)
(0.000160037 0.000268814 0)
(0.000110581 0.000288256 0)
(5.81258e-05 0.000301557 0)
(3.43842e-06 0.000308295 0)
(-5.2079e-05 0.000308213 0)
(-0.000107338 0.000301086 0)
(-0.000160894 0.000287027 0)
(-0.000211761 0.000266113 0)
(-0.000258555 0.00023865 0)
(-0.000299921 0.000205264 0)
(-0.000334815 0.000166506 0)
(-0.000362173 0.000123254 0)
(-0.000381091 7.64686e-05 0)
(-0.000390837 2.72793e-05 0)
(-0.000390529 -2.29633e-05 0)
(-0.000379902 -7.30896e-05 0)
(-0.000359291 -0.0001216 0)
(-0.000328827 -0.000167141 0)
(-0.000289304 -0.000208357 0)
(-0.000241541 -0.000243808 0)
(-0.000186515 -0.000272317 0)
(-0.000125869 -0.00029276 0)
(-6.13114e-05 -0.000304372 0)
(5.31082e-06 -0.000306319 0)
(7.18772e-05 -0.000298417 0)
(0.000136027 -0.000280622 0)
(0.000195638 -0.000253358 0)
(0.000248412 -0.000217184 0)
(0.000292357 -0.000173344 0)
(0.000325953 -0.000123093 0)
(0.000347409 -6.82449e-05 0)
(0.000355648 -1.05719e-05 0)
(0.000349828 4.75023e-05 0)
(0.000329711 0.000103993 0)
(0.000296206 0.000156518 0)
(0.000250398 0.000202952 0)
(0.00019352 0.000241032 0)
(0.000128219 0.000269199 0)
(5.6511e-05 0.00028582 0)
(-1.87336e-05 0.000289867 0)
(-9.35814e-05 0.000281039 0)
(-0.000164353 0.000259558 0)
(-0.000228234 0.000226059 0)
(-0.000282046 0.000182191 0)
(-0.000322778 0.000129816 0)
(-0.000348484 7.12982e-05 0)
(-0.000357475 9.96763e-06 0)
(-0.000349162 -5.1441e-05 0)
(-0.00032326 -0.000109181 0)
(-0.000281792 -0.000160792 0)
(-0.00022654 -0.000202689 0)
(-0.000160647 -0.000232988 0)
(-8.75801e-05 -0.000249382 0)
(-1.14746e-05 -0.000251282 0)
(6.2876e-05 -0.000237877 0)
(0.000130667 -0.000210529 0)
(0.000187804 -0.000170947 0)
(0.000230927 -0.000121712 0)
(0.000257197 -6.61401e-05 0)
(0.00026507 -8.17817e-06 0)
(0.000253877 4.78394e-05 0)
(0.000224993 9.8165e-05 0)
(0.00018096 0.000138995 0)
(0.000125383 0.00016746 0)
(6.27774e-05 0.000181145 0)
(-2.00542e-06 0.000179315 0)
(-6.31736e-05 0.000162066 0)
(-0.000114655 0.000131366 0)
(-0.000152835 9.00133e-05 0)
(-0.000174468 4.2045e-05 0)
(-0.000177303 -8.04227e-06 0)
(-0.000161609 -5.53684e-05 0)
(-0.000129343 -9.54817e-05 0)
(-8.39364e-05 -0.000124283 0)
(-2.96794e-05 -0.00013898 0)
(2.77194e-05 -0.000137298 0)
(8.06881e-05 -0.000120396 0)
(0.000123285 -8.99178e-05 0)
(0.000151251 -4.93085e-05 0)
(0.000161046 -3.0638e-06 0)
(0.000151369 4.31574e-05 0)
(0.000123285 8.43436e-05 0)
(7.99779e-05 0.000115632 0)
(2.53693e-05 0.000133364 0)
(-3.37125e-05 0.000135274 0)
(-8.89899e-05 0.000120999 0)
(-0.000134356 9.29626e-05 0)
(-0.000164858 5.47964e-05 0)
(-0.00017699 1.16134e-05 0)
(-0.000169554 -3.10009e-05 0)
(-0.00014413 -6.75245e-05 0)
(-0.000104755 -9.34842e-05 0)
(-5.72027e-05 -0.000105878 0)
(-7.85734e-06 -0.000103759 0)
(3.6309e-05 -8.813e-05 0)
(6.94344e-05 -6.24316e-05 0)
(8.81548e-05 -3.12539e-05 0)
(9.11958e-05 2.7702e-07 0)
(7.98643e-05 2.74159e-05 0)
(5.77133e-05 4.64077e-05 0)
(2.96751e-05 5.52571e-05 0)
(9.26572e-07 5.39385e-05 0)
(-2.36232e-05 4.40263e-05 0)
(-4.04419e-05 2.87193e-05 0)
(-4.79874e-05 1.16285e-05 0)
(-4.68312e-05 -3.93724e-06 0)
(-3.88204e-05 -1.53452e-05 0)
(-2.68682e-05 -2.14777e-05 0)
(-1.42959e-05 -2.22116e-05 0)
(-3.19063e-06 -1.89729e-05 0)
(4.65432e-06 -1.32964e-05 0)
(8.6715e-06 -7.00201e-06 0)
(9.48355e-06 -1.50326e-06 0)
(7.9233e-06 2.54929e-06 0)
(5.10479e-06 5.00115e-06 0)
(1.73771e-06 6.07316e-06 0)
(1.44473e-05 0.000373457 0)
(4.53214e-05 0.000384661 0)
(7.61033e-05 0.000395535 0)
(0.000106715 0.000411579 0)
(0.000136437 0.000432999 0)
(0.000165362 0.000458966 0)
(0.00019275 0.000489568 0)
(0.000218363 0.000523026 0)
(0.000240673 0.000559643 0)
(0.000257968 0.000597338 0)
(0.000270623 0.000636067 0)
(0.000277359 0.000674424 0)
(0.000278288 0.000711793 0)
(0.000273123 0.000747062 0)
(0.000261865 0.000779641 0)
(0.000244733 0.00080877 0)
(0.000221799 0.000833944 0)
(0.000193957 0.000854799 0)
(0.000160787 0.000870734 0)
(0.000122726 0.000881557 0)
(8.11758e-05 0.000887175 0)
(3.67572e-05 0.000887419 0)
(-1.05313e-05 0.000882594 0)
(-5.95995e-05 0.000872449 0)
(-0.000110735 0.000857794 0)
(-0.000162069 0.000838395 0)
(-0.00021347 0.000815333 0)
(-0.000265197 0.000788484 0)
(-0.000316344 0.000759027 0)
(-0.000366997 0.000726551 0)
(-0.00041659 0.000691939 0)
(-0.00046521 0.000655003 0)
(-0.000511582 0.000615815 0)
(-0.000556081 0.000574394 0)
(-0.000598873 0.000530754 0)
(-0.000638835 0.000484949 0)
(-0.000676271 0.000436937 0)
(-0.000711615 0.000387066 0)
(-0.000743904 0.000335437 0)
(-0.00077325 0.000282307 0)
(-0.000799087 0.000227841 0)
(-0.000820849 0.00017226 0)
(-0.000838099 0.000115825 0)
(-0.000850047 5.86338e-05 0)
(-0.00085777 9.63974e-07 0)
(-0.000861486 -5.6669e-05 0)
(-0.000860024 -0.000113859 0)
(-0.000853201 -0.000170358 0)
(-0.000840305 -0.0002258 0)
(-0.000822115 -0.000279759 0)
(-0.000798437 -0.000332174 0)
(-0.000768874 -0.000382374 0)
(-0.000733356 -0.000429985 0)
(-0.000692628 -0.000474625 0)
(-0.000646913 -0.000515821 0)
(-0.000596139 -0.000553095 0)
(-0.00054067 -0.000586077 0)
(-0.000480976 -0.000614336 0)
(-0.000417787 -0.000637384 0)
(-0.000351546 -0.000654973 0)
(-0.000282824 -0.000666533 0)
(-0.000212016 -0.000672112 0)
(-0.000140279 -0.000671187 0)
(-6.80349e-05 -0.000663819 0)
(3.64194e-06 -0.000649656 0)
(7.41888e-05 -0.000628834 0)
(0.000142651 -0.000601331 0)
(0.000208139 -0.000567252 0)
(0.000270062 -0.000526983 0)
(0.000327092 -0.000480698 0)
(0.00037867 -0.000428914 0)
(0.000423835 -0.000372105 0)
(0.000461949 -0.00031094 0)
(0.000492497 -0.000246159 0)
(0.000514596 -0.000178567 0)
(0.000528086 -0.000109062 0)
(0.000532381 -3.87692e-05 0)
(0.000526836 3.14031e-05 0)
(0.000511361 0.000100304 0)
(0.000486987 0.000166944 0)
(0.000453211 0.000229856 0)
(0.000410311 0.000288385 0)
(0.000359483 0.000340937 0)
(0.000301147 0.000386716 0)
(0.000236071 0.000424468 0)
(0.000165595 0.000453646 0)
(9.11584e-05 0.000473159 0)
(1.39864e-05 0.00048254 0)
(-6.43131e-05 0.000481445 0)
(-0.000141926 0.000469434 0)
(-0.000217114 0.000446856 0)
(-0.000288481 0.000413521 0)
(-0.000353726 0.000370418 0)
(-0.000411353 0.000318064 0)
(-0.000459967 0.000257554 0)
(-0.000497916 0.000190149 0)
(-0.000524085 0.000117434 0)
(-0.00053716 4.11335e-05 0)
(-0.000536491 -3.67597e-05 0)
(-0.00052172 -0.00011426 0)
(-0.000492884 -0.000189258 0)
(-0.000450682 -0.000259517 0)
(-0.000395659 -0.000322999 0)
(-0.000329141 -0.000377351 0)
(-0.000252792 -0.000421012 0)
(-0.000168758 -0.000452112 0)
(-7.91511e-05 -0.000469473 0)
(1.34318e-05 -0.000472029 0)
(0.000105425 -0.000459329 0)
(0.000193836 -0.000431504 0)
(0.000276087 -0.000388835 0)
(0.000348585 -0.000332903 0)
(0.000408739 -0.000264903 0)
(0.000454276 -0.000186934 0)
(0.000483113 -0.000102302 0)
(0.000493576 -1.33693e-05 0)
(0.000484624 7.58445e-05 0)
(0.000456515 0.000162474 0)
(0.000409843 0.000242943 0)
(0.000346186 0.00031366 0)
(0.000267591 0.000371749 0)
(0.000177466 0.000414051 0)
(7.87419e-05 0.000438682 0)
(-2.44531e-05 0.000444127 0)
(-0.000126561 0.000429537 0)
(-0.000223208 0.000395619 0)
(-0.000309721 0.000343529 0)
(-0.000381977 0.000275257 0)
(-0.00043659 0.000194342 0)
(-0.000469898 0.00010444 0)
(-0.000480315 1.00986e-05 0)
(-0.000466655 -8.34967e-05 0)
(-0.000429846 -0.000171677 0)
(-0.00037165 -0.000249799 0)
(-0.000295048 -0.000313036 0)
(-0.000204126 -0.000358192 0)
(-0.000104099 -0.000381604 0)
(-2.66033e-07 -0.000382861 0)
(0.00010073 -0.000360954 0)
(0.000191424 -0.00031745 0)
(0.000267429 -0.000255529 0)
(0.000323566 -0.000179002 0)
(0.000356228 -9.33163e-05 0)
(0.000363085 -4.40865e-06 0)
(0.000344078 8.1276e-05 0)
(0.000301269 0.000157848 0)
(0.000238125 0.000219291 0)
(0.000159411 0.00026154 0)
(7.17173e-05 0.000280759 0)
(-1.80514e-05 0.000276005 0)
(-0.000101804 0.000247861 0)
(-0.000171762 0.000198942 0)
(-0.000222621 0.000134283 0)
(-0.00024991 5.95715e-05 0)
(-0.000251315 -1.76486e-05 0)
(-0.000227118 -9.05109e-05 0)
(-0.000180212 -0.000151694 0)
(-0.000115517 -0.000195138 0)
(-3.8787e-05 -0.00021667 0)
(4.13697e-05 -0.000213077 0)
(0.000114517 -0.000186007 0)
(0.000173171 -0.000138145 0)
(0.000211364 -7.51191e-05 0)
(0.000224263 -4.03763e-06 0)
(0.000210305 6.69248e-05 0)
(0.000171418 0.000129777 0)
(0.000112082 0.000176984 0)
(3.79349e-05 0.000203153 0)
(-4.19233e-05 0.000205074 0)
(-0.000116103 0.000182278 0)
(-0.000176117 0.000138729 0)
(-0.000215409 8.00482e-05 0)
(-0.000229566 1.41916e-05 0)
(-0.000217348 -5.02158e-05 0)
(-0.000181249 -0.000104842 0)
(-0.000127059 -0.000142926 0)
(-6.27555e-05 -0.000160089 0)
(2.83174e-06 -0.000155183 0)
(6.02656e-05 -0.000129856 0)
(0.000101779 -8.97712e-05 0)
(0.000123195 -4.19568e-05 0)
(0.000123423 5.66831e-06 0)
(0.000104731 4.59003e-05 0)
(7.23158e-05 7.32265e-05 0)
(3.32416e-05 8.48403e-05 0)
(-5.41956e-06 8.09216e-05 0)
(-3.70796e-05 6.44089e-05 0)
(-5.7275e-05 4.02123e-05 0)
(-6.46065e-05 1.4001e-05 0)
(-6.02538e-05 -9.18582e-06 0)
(-4.72856e-05 -2.55221e-05 0)
(-2.99569e-05 -3.35568e-05 0)
(-1.28322e-05 -3.34539e-05 0)
(1.2802e-06 -2.75275e-05 0)
(1.04226e-05 -1.8394e-05 0)
(1.41778e-05 -8.79037e-06 0)
(1.38141e-05 -7.89854e-07 0)
(1.07807e-05 4.76342e-06 0)
(6.60259e-06 7.90441e-06 0)
(2.1711e-06 9.18944e-06 0)
(3.54751e-05 -0.000615242 0)
(0.000108309 -0.000639936 0)
(0.000179691 -0.000629983 0)
(0.000248471 -0.000613865 0)
(0.000311158 -0.000590211 0)
(0.000367616 -0.000560764 0)
(0.000413129 -0.000520445 0)
(0.000446597 -0.000474378 0)
(0.000464791 -0.000413758 0)
(0.000467448 -0.000344543 0)
(0.000458146 -0.000265797 0)
(0.00043378 -0.000184441 0)
(0.000396236 -9.98527e-05 0)
(0.000346162 -1.54056e-05 0)
(0.000285925 6.87185e-05 0)
(0.000216394 0.000150043 0)
(0.000140438 0.000227999 0)
(5.78895e-05 0.000300778 0)
(-3.02715e-05 0.00036748 0)
(-0.000119934 0.000426415 0)
(-0.000211251 0.000478478 0)
(-0.000301862 0.000522799 0)
(-0.000391853 0.000560664 0)
(-0.000478197 0.000589428 0)
(-0.000560648 0.000612597 0)
(-0.000637611 0.000626132 0)
(-0.000708636 0.000636361 0)
(-0.000772754 0.000635962 0)
(-0.000831674 0.000635945 0)
(-0.000886371 0.000626436 0)
(-0.000935826 0.000615661 0)
(-0.000983557 0.000598141 0)
(-0.0010285 0.00057723 0)
(-0.00107035 0.000551251 0)
(-0.00110963 0.00052083 0)
(-0.00114637 0.000485642 0)
(-0.00117923 0.000445541 0)
(-0.00120812 0.000400664 0)
(-0.00123295 0.000351053 0)
(-0.00125335 0.000296899 0)
(-0.0012691 0.000238605 0)
(-0.00127986 0.000176492 0)
(-0.00128604 0.00011126 0)
(-0.00128752 4.3274e-05 0)
(-0.00128181 -2.66229e-05 0)
(-0.00126792 -9.83735e-05 0)
(-0.00124747 -0.000171352 0)
(-0.00122099 -0.000244995 0)
(-0.00118782 -0.000318312 0)
(-0.00114913 -0.000391148 0)
(-0.00110431 -0.000462251 0)
(-0.0010527 -0.000531063 0)
(-0.000994842 -0.000596776 0)
(-0.000931093 -0.000658843 0)
(-0.00086121 -0.000716214 0)
(-0.000785594 -0.000768272 0)
(-0.000705047 -0.000814488 0)
(-0.000619579 -0.000854165 0)
(-0.000529875 -0.000886474 0)
(-0.000436313 -0.00091121 0)
(-0.000340375 -0.000927508 0)
(-0.000242622 -0.000935171 0)
(-0.000143744 -0.000933726 0)
(-4.47359e-05 -0.000922952 0)
(5.32425e-05 -0.000902749 0)
(0.000149064 -0.000872928 0)
(0.000241876 -0.000833645 0)
(0.000330176 -0.000785079 0)
(0.000412972 -0.000727581 0)
(0.000489281 -0.00066164 0)
(0.000557783 -0.000587814 0)
(0.000617606 -0.000507042 0)
(0.00066743 -0.000420025 0)
(0.000706663 -0.000327845 0)
(0.000734373 -0.000231819 0)
(0.000749845 -0.000133071 0)
(0.000752713 -3.32162e-05 0)
(0.000742628 6.60961e-05 0)
(0.000719642 0.000163568 0)
(0.000683789 0.000257812 0)
(0.000635443 0.000346823 0)
(0.000575233 0.000429205 0)
(0.000503621 0.000503194 0)
(0.000421772 0.000567235 0)
(0.000331465 0.00061999 0)
(0.000233883 0.000660202 0)
(0.000130522 0.000686728 0)
(2.40583e-05 0.000698845 0)
(-8.39694e-05 0.000695905 0)
(-0.000190761 0.0006774 0)
(-0.000294266 0.000643614 0)
(-0.000392078 0.000594918 0)
(-0.000481198 0.000532086 0)
(-0.000560147 0.000456033 0)
(-0.000626399 0.000368552 0)
(-0.00067795 0.00027122 0)
(-0.000713105 0.000166486 0)
(-0.000730472 5.67854e-05 0)
(-0.000728888 -5.49537e-05 0)
(-0.000708181 -0.00016603 0)
(-0.000668443 -0.000273406 0)
(-0.000610271 -0.000373861 0)
(-0.000534509 -0.000464377 0)
(-0.000443225 -0.000541883 0)
(-0.000338695 -0.000603662 0)
(-0.000223558 -0.00064736 0)
(-0.000101244 -0.000671512 0)
(2.48265e-05 -0.000674478 0)
(0.000150076 -0.000655662 0)
(0.000270734 -0.000614645 0)
(0.000382091 -0.000553442 0)
(0.000480187 -0.000472484 0)
(0.00056224 -0.000375088 0)
(0.00062323 -0.00026373 0)
(0.000661167 -0.0001424 0)
(0.000674032 -1.5687e-05 0)
(0.000660516 0.000111799 0)
(0.000621626 0.000235104 0)
(0.000557357 0.000349337 0)
(0.000470353 0.000449586 0)
(0.00036304 0.00053127 0)
(0.000240032 0.000590146 0)
(0.000106268 0.000624246 0)
(-3.34689e-05 0.000630511 0)
(-0.000171553 0.000608623 0)
(-0.000301206 0.000558771 0)
(-0.000417595 0.000483461 0)
(-0.00051411 0.000385755 0)
(-0.000585538 0.00026995 0)
(-0.000628675 0.000141825 0)
(-0.000640101 7.75631e-06 0)
(-0.000619428 -0.000125208 0)
(-0.000567757 -0.000250025 0)
(-0.000487317 -0.000359843 0)
(-0.000382431 -0.000448219 0)
(-0.000258302 -0.000510103 0)
(-0.000122583 -0.000541551 0)
(1.67768e-05 -0.000540892 0)
(0.000152168 -0.000507366 0)
(0.00027314 -0.000443381 0)
(0.000372935 -0.000353464 0)
(0.000445449 -0.000243635 0)
(0.000485535 -0.000121017 0)
(0.000490853 5.08443e-06 0)
(0.000461361 0.000126867 0)
(0.000399537 0.000234338 0)
(0.000310692 0.000320475 0)
(0.000201533 0.000378111 0)
(8.0709e-05 0.000403202 0)
(-4.14404e-05 0.000393694 0)
(-0.000154834 0.000350899 0)
(-0.000248367 0.000279282 0)
(-0.000315136 0.000185325 0)
(-0.000349439 7.80978e-05 0)
(-0.000348239 -3.28295e-05 0)
(-0.000312596 -0.000136404 0)
(-0.000245931 -0.000222933 0)
(-0.00015562 -0.000283591 0)
(-4.94262e-05 -0.000312726 0)
(6.04426e-05 -0.000305884 0)
(0.000160072 -0.000265788 0)
(0.000239552 -0.000196534 0)
(0.000290364 -0.000105851 0)
(0.000306785 -4.26197e-06 0)
(0.00028714 9.66332e-05 0)
(0.000233738 0.000185285 0)
(0.000152866 0.000251383 0)
(5.30816e-05 0.000287035 0)
(-5.37407e-05 0.000288111 0)
(-0.000152347 0.000254408 0)
(-0.000230997 0.000191671 0)
(-0.000281318 0.000108024 0)
(-0.000297484 1.49002e-05 0)
(-0.00027847 -7.52838e-05 0)
(-0.000228066 -0.000150972 0)
(-0.000154305 -0.000202663 0)
(-6.82328e-05 -0.000224495 0)
(1.83362e-05 -0.000214915 0)
(9.25987e-05 -0.00017711 0)
(0.000144326 -0.000119132 0)
(0.000168612 -5.12246e-05 0)
(0.000164481 1.54464e-05 0)
(0.000135646 7.06321e-05 0)
(8.95818e-05 0.000106818 0)
(3.60357e-05 0.000120604 0)
(-1.51922e-05 0.000112297 0)
(-5.55531e-05 8.68836e-05 0)
(-7.95965e-05 5.15837e-05 0)
(-8.59725e-05 1.44112e-05 0)
(-7.69243e-05 -1.7459e-05 0)
(-5.72129e-05 -3.90071e-05 0)
(-3.28492e-05 -4.84444e-05 0)
(-9.9489e-06 -4.65055e-05 0)
(7.68711e-06 -3.67936e-05 0)
(1.80763e-05 -2.31499e-05 0)
(2.11622e-05 -9.68914e-06 0)
(1.90104e-05 9.53004e-07 0)
(1.398e-05 7.84431e-06 0)
(8.16127e-06 1.13535e-05 0)
(2.61758e-06 1.26406e-05 0)
(4.91084e-05 -0.00041757 0)
(0.00015168 -0.000410902 0)
(0.000253981 -0.000371544 0)
(0.000364289 -0.000311923 0)
(0.000472798 -0.000226899 0)
(0.000595121 -0.000122294 0)
(0.00070957 1.92981e-05 0)
(0.000833289 0.000172354 0)
(0.000942797 0.000373409 0)
(0.00101204 0.000562137 0)
(0.00106178 0.000747998 0)
(0.00108026 0.000917896 0)
(0.00108055 0.00107799 0)
(0.0010589 0.00122183 0)
(0.00101937 0.00134913 0)
(0.000960816 0.00145729 0)