# Probe 0 (0 0 0)
# Time            0                
0                 0                
0.0025            15.1512171       
0.005             72.63887659      
0.0075            122.4381791      
0.01              165.71928        
0.0125            203.4495599      
0.015             236.4338375      
0.0175            265.3453189      
0.02              290.7498789      
0.0225            313.1252951      
0.025             332.8766099      
0.0275            350.3484954      
0.03              365.8352727      
0.0325            379.5890813      
0.035             391.8265766      
0.0375            402.7344515      
0.04              412.4740086      
0.0425            421.184962       
0.045             428.9886147      
0.0475            435.9905213      
0.05              442.2827287      
0.0525            447.9456683      
0.055             453.0497577      
0.0575            457.6567621      
0.06              461.8209541      
0.0625            465.5901035      
0.065             469.0063255      
0.0675            472.106809       
0.07              474.9244424      
0.0725            477.4883545      
0.075             479.8243803      
0.0775            481.9554654      
0.08              483.9020165      
0.0825            485.6822061      
0.085             487.3122373      
0.0875            488.8065753      
0.09              490.1781493      
0.0925            491.4385296      
0.095             492.5980818      
0.0975            493.6661032      
0.1               494.6509417      
0.1025            495.5601013      
0.105             496.4003346      
0.1075            497.1777241      
0.11              497.8977549      
0.1125            498.5653777      
0.115             499.1850662      
0.1175            499.7608666      
0.12              500.2964421      
0.1225            500.7951124      
0.125             501.2598889      
0.1275            501.693506       
0.13              502.0984485      
0.1325            502.4769772      
0.135             502.8311503      
0.1375            503.1628439      
0.14              503.4737692      
0.1425            503.7654886      
0.145             504.0394302      
0.1475            504.2969001      
0.15              504.5390939      
0.1525            504.7671076      
0.155             504.981946       
0.1575            505.1845317      
0.16              505.3757124      
0.1625            505.5562674      
0.165             505.7269141      
0.1675            505.8883273      
0.17              506.0411011      
0.1725            506.185798       
0.175             506.322937       
0.1775            506.4529984      
0.18              506.5764262      
0.1825            506.6936314      
0.185             506.8049953      
0.1875            506.910871       
0.19              507.0115866      
0.1925            507.1074469      
0.195             507.1987351      
0.1975            507.2857149      
0.2               507.3686315      
0.2025            507.447714       
0.205             507.5231755      
0.2075            507.5952152      
0.21              507.6640193      
0.2125            507.7297617      
0.215             507.7926051      
0.2175            507.8527018      
0.22              507.9101946      
0.2225            507.9652175      
0.225             508.017896       
0.2275            508.0683481      
0.23              508.1166847      
0.2325            508.1630099      
0.235             508.2074218      
0.2375            508.250013       
0.24              508.2908702      
0.2425            508.3300757      
0.245             508.3677069      
0.2475            508.4038368      
0.25              508.4385346      
0.2525            508.4718655      
0.255             508.5038914      
0.2575            508.5346706      
0.26              508.5642584      
0.2625            508.5927073      
0.265             508.6200672      
0.2675            508.6463849      
0.27              508.6717055      
0.2725            508.6960715      
0.275             508.719523       
0.2775            508.7420986      
0.28              508.7638347      
0.2825            508.7847662      
0.285             508.8049261      
0.2875            508.8243459      
0.29              508.8430556      
0.2925            508.8610838      
0.295             508.8784578      
0.2975            508.8952034      
0.3               508.911346       
0.3025            508.9269092      
0.305             508.9419154      
0.3075            508.9563863      
0.31              508.9703426      
0.3125            508.9838042      
0.315             508.9967898      
0.3175            509.0093178      
0.32              509.0214053      
0.3225            509.0330691      
0.325             509.044325       
0.3275            509.0551883      
0.33              509.0656735      
0.3325            509.0757948      
0.335             509.0855655      
0.3375            509.0949985      
0.34              509.1041061      
0.3425            509.1129003      
0.345             509.1213924      
0.3475            509.1295935      
0.35              509.1375138      
0.3525            509.1451637      
0.355             509.1525527      
0.3575            509.1596904      
0.36              509.1665854      
0.3625            509.1732465      
0.365             509.179682       
0.3675            509.1858999      
0.37              509.1919077      
0.3725            509.1977129      
0.375             509.2033226      
0.3775            509.2087436      
0.38              509.2139825      
0.3825            509.2190456      
0.385             509.223939       
0.3875            509.2286687      
0.39              509.2332401      
0.3925            509.237659       
0.395             509.2419304      
0.3975            509.2460594      
0.4               509.250051       
0.4025            509.2539098      
0.405             509.2576403      
0.4075            509.261247       
0.41              509.2647341      
0.4125            509.2681056      
0.415             509.2713653      
0.4175            509.2745172      
0.42              509.2775649      
0.4225            509.2805119      
0.425             509.2833615      
0.4275            509.2861171      
0.43              509.288782       
0.4325            509.291359       
0.435             509.2938511      
0.4375            509.2962611      
0.44              509.298592       
0.4425            509.3008461      
0.445             509.3030263      
0.4475            509.3051348      
0.45              509.3071741      
0.4525            509.3091466      
0.455             509.3110543      
0.4575            509.3128995      
0.46              509.3146843      
0.4625            509.3164107      
0.465             509.3180805      
0.4675            509.3196957      
0.47              509.321258       
0.4725            509.3227694      
0.475             509.3242314      
0.4775            509.3256455      
0.48              509.3270135      
0.4825            509.3283369      
0.485             509.3296171      
0.4875            509.3308554      
0.49              509.3320535      
0.4925            509.3332124      
0.495             509.3343336      
0.4975            509.3354183      
0.5               509.3364676      
