# Probe 0 (0 0 0)
# Time            0                
0                 0                
0.0025            -9.959094222e-07 
0.005             -4.661476413e-06 
0.0075            -7.833519058e-06 
0.01              -1.058772146e-05 
0.0125            -1.298653817e-05 
0.015             -1.508184369e-05 
0.0175            -1.691696527e-05 
0.02              -1.852827306e-05 
0.0225            -1.994643661e-05 
0.025             -2.119742631e-05 
0.0275            -2.230331781e-05 
0.03              -2.328294278e-05 
0.0325            -2.415241858e-05 
0.035             -2.492558198e-05 
0.0375            -2.561434609e-05 
0.04              -2.622899563e-05 
0.0425            -2.677843214e-05 
0.045             -2.727037859e-05 
0.0475            -2.771155078e-05 
0.05              -2.810780132e-05 
0.0525            -2.846424115e-05 
0.055             -2.878534232e-05 
0.0575            -2.907502519e-05 
0.06              -2.933673273e-05 
0.0625            -2.957349386e-05 
0.065             -2.978797768e-05 
0.0675            -2.998253998e-05 
0.07              -3.01592632e-05  
0.0725            -3.031999096e-05 
0.075             -3.04663577e-05  
0.0775            -3.059981452e-05 
0.08              -3.072165144e-05 
0.0825            -3.083301683e-05 
0.085             -3.093493424e-05 
0.0875            -3.102831711e-05 
0.09              -3.11139816e-05  
0.0925            -3.119265786e-05 
0.095             -3.126499979e-05 
0.0975            -3.133159371e-05 
0.1               -3.139296591e-05 
0.1025            -3.144958932e-05 
0.105             -3.150188939e-05 
0.1075            -3.155024923e-05 
0.11              -3.159501423e-05 
0.1125            -3.163649601e-05 
0.115             -3.16749761e-05  
0.1175            -3.171070906e-05 
0.12              -3.174392526e-05 
0.1225            -3.177483341e-05 
0.125             -3.180362282e-05 
0.1275            -3.183046527e-05 
0.13              -3.185551687e-05 
0.1325            -3.187891957e-05 
0.135             -3.190080259e-05 
0.1375            -3.192128367e-05 
0.14              -3.194047015e-05 
0.1425            -3.195846003e-05 
0.145             -3.197534285e-05 
0.1475            -3.199120045e-05 
0.15              -3.200610777e-05 
0.1525            -3.202013343e-05 
0.155             -3.203334035e-05 
0.1575            -3.204578627e-05 
0.16              -3.205752423e-05 
0.1625            -3.206860297e-05 
0.165             -3.207906733e-05 
0.1675            -3.208895941e-05 
0.17              -3.209831641e-05 
0.1725            -3.210717344e-05 
0.175             -3.211556292e-05 
0.1775            -3.21235148e-05  
0.18              -3.213105676e-05 
0.1825            -3.213821445e-05 
0.185             -3.21450116e-05  
0.1875            -3.215147021e-05 
0.19              -3.215761072e-05 
0.1925            -3.216345209e-05 
0.195             -3.216901192e-05 
0.1975            -3.217430661e-05 
0.2               -3.217935141e-05 
0.2025            -3.218416053e-05 
0.205             -3.218874721e-05 
0.2075            -3.21931238e-05  
0.21              -3.219730186e-05 
0.2125            -3.220129215e-05 
0.215             -3.220510476e-05 
0.2175            -3.220874912e-05 
0.22              -3.221223407e-05 
0.2225            -3.221556789e-05 
0.225             -3.221875834e-05 
0.2275            -3.222181271e-05 
0.23              -3.222473784e-05 
0.2325            -3.222754018e-05 
0.235             -3.223022576e-05 
0.2375            -3.223280029e-05 
0.24              -3.223526912e-05 
0.2425            -3.223763731e-05 
0.245             -3.223990963e-05 
0.2475            -3.224209056e-05 
0.25              -3.224418437e-05 
0.2525            -3.224619506e-05 
0.255             -3.224812642e-05 
0.2575            -3.224998205e-05 
0.26              -3.225176532e-05 
0.2625            -3.225347946e-05 
0.265             -3.225512753e-05 
0.2675            -3.225671239e-05 
0.27              -3.225823681e-05 
0.2725            -3.225970337e-05 
0.275             -3.226111454e-05 
0.2775            -3.226247268e-05 
0.28              -3.226378001e-05 
0.2825            -3.226503866e-05 
0.285             -3.226625063e-05 
0.2875            -3.226741786e-05 
0.29              -3.226854218e-05 
0.2925            -3.226962532e-05 
0.295             -3.227066894e-05 
0.2975            -3.227167463e-05 
0.3               -3.227264392e-05 
0.3025            -3.227357825e-05 
0.305             -3.227447898e-05 
0.3075            -3.227534744e-05 
0.31              -3.227618487e-05 
0.3125            -3.227699248e-05 
0.315             -3.227777142e-05 
0.3175            -3.227852279e-05 
0.32              -3.227924764e-05 
0.3225            -3.227994697e-05 
0.325             -3.228062176e-05 
0.3275            -3.228127291e-05 
0.33              -3.228190133e-05 
0.3325            -3.228250786e-05 
0.335             -3.22830933e-05  
0.3375            -3.228365844e-05 
0.34              -3.228420403e-05 
0.3425            -3.228473078e-05 
0.345             -3.228523938e-05 
0.3475            -3.228573049e-05 
0.35              -3.228620475e-05 
0.3525            -3.228666276e-05 
0.355             -3.228710512e-05 
0.3575            -3.228753238e-05 
0.36              -3.228794509e-05 
0.3625            -3.228834376e-05 
0.365             -3.228872889e-05 
0.3675            -3.228910096e-05 
0.37              -3.228946044e-05 
0.3725            -3.228980777e-05 
0.375             -3.229014337e-05 
0.3775            -3.229046766e-05 
0.38              -3.229078104e-05 
0.3825            -3.229108388e-05 
0.385             -3.229137654e-05 
0.3875            -3.22916594e-05  
0.39              -3.229193278e-05 
0.3925            -3.229219702e-05 
0.395             -3.229245242e-05 
0.3975            -3.229269929e-05 
0.4               -3.229293794e-05 
0.4025            -3.229316863e-05 
0.405             -3.229339165e-05 
0.4075            -3.229360724e-05 
0.41              -3.229381568e-05 
0.4125            -3.22940172e-05  
0.415             -3.229421203e-05 
0.4175            -3.229440041e-05 
0.42              -3.229458255e-05 
0.4225            -3.229475866e-05 
0.425             -3.229492895e-05 
0.4275            -3.229509362e-05 
0.43              -3.229525285e-05 
0.4325            -3.229540683e-05 
0.435             -3.229555573e-05 
0.4375            -3.229569973e-05 
0.44              -3.229583898e-05 
0.4425            -3.229597365e-05 
0.445             -3.22961039e-05  
0.4475            -3.229622986e-05 
0.45              -3.229635169e-05 
0.4525            -3.229646951e-05 
0.455             -3.229658346e-05 
0.4575            -3.229669368e-05 
0.46              -3.229680029e-05 
0.4625            -3.229690341e-05 
0.465             -3.229700314e-05 
0.4675            -3.229709961e-05 
0.47              -3.229719292e-05 
0.4725            -3.229728319e-05 
0.475             -3.22973705e-05  
0.4775            -3.229745495e-05 
0.48              -3.229753665e-05 
0.4825            -3.229761568e-05 
0.485             -3.229769213e-05 
0.4875            -3.229776608e-05 
0.49              -3.229783762e-05 
0.4925            -3.229790682e-05 
0.495             -3.229797377e-05 
0.4975            -3.229803854e-05 
0.5               -3.229810119e-05 
