# Wall heat transfer coefficient
# Time            	patch             	min               	max               	average           
1.0000000000e+00	walls	6.7732942574e+00	6.7739960306e+00	6.7736451440e+00
