/*--------------------------------*- C++ -*----------------------------------*\
  =========                 |
  \\      /  F ield         | OpenFOAM: The Open Source CFD Toolbox
   \\    /   O peration     | Website:  https://openfoam.org
    \\  /    A nd           | Version:  12
     \\/     M anipulation  |
\*---------------------------------------------------------------------------*/
FoamFile
{
    format      ascii;
    class       volVectorField;
    location    "7.02";
    object      zeta;
}
// * * * * * * * * * * * * * * * * * * * * * * * * * * * * * * * * * * * * * //

dimensions      [0 1 0 0 0 0 0];

internalField   uniform (0 0 0);

boundaryField
{
    freeSurface
    {
        type            calculated;
        value           nonuniform List<vector> 
181
(
(0 0.00410379 0)
(0 0.00410354 0)
(0 0.00410293 0)
(0 0.0041026 0)
(0 0.00410175 0)
(0 0.00410118 0)
(0 0.00410077 0)
(0 0.0041 0)
(0 0.000490945 0)
(0 0.00049627 0)
(0 0.00050815 0)
(0 0.000522455 0)
(0 0.000542675 0)
(0 0.00056621 0)
(0 0.000593108 0)
(0 0.000622437 0)
(0 0.000653582 0)
(0 0.00068583 0)
(0 0.000718426 0)
(0 0.000750627 0)
(0 0.000781703 0)
(0 0.000810835 0)
(0 0.000837266 0)
(0 0.000860691 0)
(0 0.000880441 0)
(0 0.000896018 0)
(0 0.000906993 0)
(0 0.000912846 0)
(0 0.00091321 0)
(0 0.000907833 0)
(0 0.000896437 0)
(0 0.000878875 0)
(0 0.000855065 0)
(0 0.000824959 0)
(0 0.000788612 0)
(0 0.000746114 0)
(0 0.000697678 0)
(0 0.000643568 0)
(0 0.000584162 0)
(0 0.000519854 0)
(0 0.000451153 0)
(0 0.000378644 0)
(0 0.000302953 0)
(0 0.000224799 0)
(0 0.000145003 0)
(0 6.44376e-05 0)
(0 -1.60248e-05 0)
(0 -9.54777e-05 0)
(0 -0.000172924 0)
(0 -0.000247436 0)
(0 -0.000317875 0)
(0 -0.000383403 0)
(0 -0.000443053 0)
(0 -0.000495915 0)
(0 -0.000541245 0)
(0 -0.000578271 0)
(0 -0.000606305 0)
(0 -0.000624816 0)
(0 -0.000633426 0)
(0 -0.000631955 0)
(0 -0.000620239 0)
(0 -0.000598375 0)
(0 -0.000566661 0)
(0 -0.000525493 0)
(0 -0.000475571 0)
(0 -0.000417731 0)
(0 -0.000352976 0)
(0 -0.000282486 0)
(0 -0.000207622 0)
(0 -0.000129856 0)
(0 -5.07671e-05 0)
(0 2.80115e-05 0)
(0 0.000104747 0)
(0 0.000177703 0)
(0 0.000245253 0)
(0 0.000305784 0)
(0 0.000357807 0)
(0 0.000400026 0)
(0 0.00043139 0)
(0 0.000451061 0)
(0 0.000458479 0)
(0 0.000453398 0)
(0 0.000435972 0)
(0 0.000406699 0)
(0 0.000366467 0)
(0 0.000316397 0)
(0 0.000258086 0)
(0 0.00019333 0)
(0 0.000124166 0)
(0 5.28785e-05 0)
(0 -1.80985e-05 0)
(0 -8.64169e-05 0)
(0 -0.000149688 0)
(0 -0.000205672 0)
(0 -0.000252406 0)
(0 -0.000288142 0)
(0 -0.000311689 0)
(0 -0.000322192 0)
(0 -0.00031938 0)
(0 -0.00030355 0)
(0 -0.000275575 0)
(0 -0.000236881 0)
(0 -0.000189335 0)
(0 -0.000135321 0)
(0 -7.73811e-05 0)
(0 -1.84409e-05 0)
(0 3.86054e-05 0)
(0 9.09208e-05 0)
(0 0.000135833 0)
(0 0.000171016 0)
(0 0.000194686 0)
(0 0.000205673 0)
(0 0.000203621 0)
(0 0.000188941 0)
(0 0.000162921 0)
(0 0.000127529 0)
(0 8.54163e-05 0)
(0 3.95888e-05 0)
(0 -6.72754e-06 0)
(0 -5.04317e-05 0)
(0 -8.8709e-05 0)
(0 -0.000119244 0)
(0 -0.000140431 0)
(0 -0.000151405 0)
(0 -0.000152144 0)
(0 -0.000143338 0)
(0 -0.000126345 0)
(0 -0.000102998 0)
(0 -7.54568e-05 0)
(0 -4.59674e-05 0)
(0 -1.67274e-05 0)
(0 1.02767e-05 0)
(0 3.34406e-05 0)
(0 5.15508e-05 0)
(0 6.38799e-05 0)
(0 7.01657e-05 0)
(0 7.05799e-05 0)
(0 6.56632e-05 0)
(0 5.62543e-05 0)
(0 4.33968e-05 0)
(0 2.82304e-05 0)
(0 1.1924e-05 0)
(0 -4.41763e-06 0)
(0 -1.98143e-05 0)
(0 -3.34463e-05 0)
(0 -4.46881e-05 0)
(0 -5.31305e-05 0)
(0 -5.85567e-05 0)
(0 -6.09526e-05 0)
(0 -6.04688e-05 0)
(0 -5.73999e-05 0)
(0 -5.21461e-05 0)
(0 -4.51776e-05 0)
(0 -3.70045e-05 0)
(0 -2.81449e-05 0)
(0 -1.90987e-05 0)
(0 -1.03149e-05 0)
(0 -2.18513e-06 0)
(0 4.97693e-06 0)
(0 1.09354e-05 0)
(0 1.55384e-05 0)
(0 1.87151e-05 0)
(0 2.04666e-05 0)
(0 2.08602e-05 0)
(0 2.0017e-05 0)
(0 1.80952e-05 0)
(0 1.52769e-05 0)
(0 1.17645e-05 0)
(0 7.77242e-06 0)
(0 3.49564e-06 0)
(0 -8.81065e-07 0)
(0 -5.1913e-06 0)
(0 -9.29714e-06 0)
(0 -1.30893e-05 0)
(0 -1.64877e-05 0)
(0 -1.94397e-05 0)
(0 -2.19146e-05 0)
(0 -2.38985e-05 0)
(0 -2.53872e-05 0)
(0 -2.63806e-05 0)
(0 -2.68801e-05 0)
)
;
    }
    walls
    {
        type            calculated;
        value           uniform (0 0 0);
    }
    floatingObject
    {
        type            calculated;
        value           uniform (0 0 0);
    }
    frontAndBack
    {
        type            empty;
    }
}


// ************************************************************************* //
