/*--------------------------------*- C++ -*----------------------------------*\
  =========                 |
  \\      /  F ield         | OpenFOAM: The Open Source CFD Toolbox
   \\    /   O peration     | Website:  https://openfoam.org
    \\  /    A nd           | Version:  12
     \\/     M anipulation  |
\*---------------------------------------------------------------------------*/
FoamFile
{
    format      ascii;
    class       volScalarField;
    location    "250";
    object      epsilon;
}
// * * * * * * * * * * * * * * * * * * * * * * * * * * * * * * * * * * * * * //

dimensions      [0 2 -3 0 0 0 0];

internalField   nonuniform List<scalar> 
5000
(
0.124512
0.106956
0.0933447
0.0824148
0.0737018
0.0663487
0.0604409
0.0553041
0.0509504
0.0474466
0.0447368
0.041268
0.0377705
0.036256
0.0335494
0.0323768
0.0301304
0.0291854
0.0273012
0.026495
0.0256086
0.0240612
0.0233083
0.022005
0.0212845
0.124483
0.107004
0.0933005
0.0824781
0.0736545
0.0663955
0.0604402
0.0552068
0.0510835
0.0478807
0.044964
0.042209
0.0389405
0.0357697
0.0343313
0.0318336
0.030722
0.028658
0.0277484
0.0267776
0.0251072
0.0243149
0.0229291
0.0222401
0.0211708
0.124512
0.106955
0.0933447
0.0824152
0.0736916
0.0663779
0.0604018
0.0552857
0.0510647
0.0476241
0.0451709
0.0417705
0.0397582
0.0366965
0.0337979
0.0324864
0.0302089
0.0291737
0.0272837
0.0264547
0.0248688
0.0241958
0.0234575
0.0221441
0.021399
0.124488
0.106992
0.0933019
0.0824767
0.0736168
0.0664689
0.060295
0.0554175
0.0510485
0.0471738
0.0443695
0.0405516
0.0389257
0.0358882
0.0346098
0.0321302
0.0309518
0.0296332
0.0276193
0.0266393
0.0250002
0.0242413
0.0228801
0.0222627
0.0211068
0.124503
0.106969
0.0933296
0.0824406
0.0736862
0.0663543
0.0605124
0.0552395
0.0506773
0.0470193
0.0428427
0.0411048
0.0378245
0.0364414
0.0337263
0.0326353
0.030347
0.0293105
0.0281902
0.0263429
0.0254499
0.0239385
0.0232174
0.0219582
0.0213699
0.124511
0.106956
0.0933418
0.0824178
0.0736917
0.0663614
0.0604168
0.0552775
0.0510629
0.0477935
0.0446365
0.0421519
0.0389048
0.0357389
0.034286
0.0318023
0.0307212
0.028664
0.027783
0.0260528
0.0253173
0.0245087
0.0230868
0.0223939
0.0212146
0.124515
0.10695
0.0933478
0.0824192
0.0736838
0.0663873
0.0603859
0.0552798
0.0510073
0.047842
0.0450319
0.0424996
0.0401608
0.0375248
0.034706
0.0320421
0.0308093
0.0286982
0.0277612
0.0260316
0.0252697
0.0238206
0.0231914
0.0224898
0.0213434
0.124511
0.106957
0.0933343
0.0824309
0.0736916
0.066339
0.0604834
0.0552584
0.0509223
0.0475091
0.0439621
0.0402126
0.0386342
0.0356616
0.0343916
0.031938
0.0308883
0.028792
0.0278799
0.0268805
0.0251888
0.0243632
0.0229617
0.0222681
0.021173
0.124514
0.106952
0.0933439
0.0824307
0.0736646
0.0664226
0.0604308
0.0558685
0.0505257
0.0471764
0.0431173
0.0415322
0.0382099
0.0368341
0.0340761
0.0330393
0.0310915
0.0288932
0.0278681
0.0261068
0.0252884
0.0238114
0.023143
0.0218971
0.0213302
0.124478
0.10701
0.0932876
0.0824901
0.073618
0.0664622
0.0604075
0.0558034
0.0514275
0.0463731
0.0444514
0.0407376
0.0394006
0.0366204
0.0337681
0.0325225
0.0302374
0.0292004
0.0273031
0.026475
0.0255707
0.0240283
0.0232866
0.0219924
0.0212893
0.12451
0.10696
0.0933321
0.0824388
0.0736646
0.066403
0.0605093
0.0550564
0.0505306
0.0461181
0.0439195
0.0402867
0.0388749
0.0358578
0.0346921
0.0321943
0.0310149
0.0296537
0.0276275
0.026636
0.0249903
0.0242076
0.0228361
0.0222066
0.0210493
0.124509
0.10696
0.0933328
0.0824326
0.0736901
0.0663409
0.0604796
0.0552634
0.0509186
0.0474909
0.0439313
0.0401527
0.0385844
0.0356015
0.0343854
0.031946
0.0309209
0.0288309
0.0279073
0.0268941
0.0251931
0.0243568
0.0229494
0.022252
0.0211595
0.124502
0.106971
0.0933274
0.0824475
0.073659
0.0664731
0.0602721
0.0556509
0.0509477
0.0473067
0.0431635
0.0415043
0.0381624
0.0367787
0.0340562
0.0330019
0.0311281
0.0289305
0.0278979
0.026134
0.0253121
0.023839
0.023172
0.02193
0.0213636
0.12451
0.106959
0.0933341
0.082437
0.0736684
0.0664002
0.0605122
0.0550539
0.0505221
0.0461187
0.0439551
0.0403475
0.0389325
0.0359285
0.034761
0.0322704
0.0310892
0.0296842
0.0276462
0.0266509
0.0250079
0.0242244
0.0228647
0.0222594
0.0215071
0.124511
0.106957
0.0933391
0.0824217
0.0736917
0.0663564
0.0604329
0.0552998
0.0509464
0.0474404
0.0447109
0.0412519
0.0377844
0.0362861
0.033578
0.0324578
0.0302117
0.0292684
0.0273671
0.0265464
0.0256422
0.0240854
0.0233287
0.0220235
0.021303
0.124511
0.106957
0.0933394
0.0824215
0.0736927
0.0663532
0.0604409
0.0552888
0.0509559
0.0474907
0.0447212
0.0412582
0.0377981
0.0362834
0.0335833
0.0324497
0.0302118
0.0292756
0.0273755
0.0265554
0.0256526
0.0240978
0.0233362
0.0220318
0.0213093
0.124493
0.106985
0.0933146
0.0824709
0.073627
0.0664867
0.0602672
0.0554875
0.0511695
0.0467218
0.044242
0.0404927
0.0388695
0.0358259
0.0346217
0.0321053
0.0309434
0.0296859
0.0276641
0.0266831
0.0250405
0.0242627
0.0228942
0.0222846
0.0215255
0.124511
0.106958
0.0933447
0.0824138
0.0736977
0.0663626
0.0604141
0.0552865
0.0510424
0.0477456
0.044711
0.0421185
0.0388519
0.0356906
0.0343124
0.0318302
0.0307439
0.0286977
0.0278069
0.0260772
0.0253314
0.0245135
0.0230858
0.0223861
0.0212247
0.124507
0.106963
0.0933323
0.0824361
0.073685
0.0663587
0.0605016
0.0552063
0.0507571
0.047001
0.0428478
0.0410999
0.0377878
0.0364267
0.0337286
0.0326515
0.0303437
0.029332
0.0282264
0.0263772
0.0254837
0.0239602
0.0232311
0.0219537
0.0212337
0.124511
0.106957
0.0933412
0.0824195
0.0736936
0.066356
0.0604328
0.0552983
0.0509581
0.0474685
0.0447036
0.0412387
0.0377487
0.0362354
0.0335196
0.03238
0.0301315
0.0292025
0.0273168
0.0264989
0.0256063
0.0240515
0.0232966
0.0219899
0.0212684
0.119812
0.0961239
0.0788542
0.0658928
0.055921
0.0480916
0.0419725
0.0369129
0.0330851
0.0290787
0.0260053
0.0238958
0.0211492
0.0193969
0.0179159
0.0165678
0.0153475
0.0142737
0.0133119
0.0124527
0.0116766
0.0109686
0.0103236
0.00973251
0.00919191
0.119805
0.096136
0.0788428
0.0659103
0.0559004
0.0481098
0.0419802
0.0369689
0.0329504
0.0292843
0.0261261
0.0237942
0.0213456
0.0196558
0.018134
0.0167311
0.0154882
0.014381
0.0133961
0.0125148
0.0117155
0.0109954
0.0103377
0.0097421
0.00919668
0.119809
0.0961281
0.0788479
0.0659084
0.0559034
0.048132
0.0419716
0.0370029
0.0327712
0.0298312
0.0260011
0.0231739
0.0215496
0.0196122
0.0180466
0.0166947
0.0154635
0.0143554
0.0133628
0.012479
0.0116815
0.0109669
0.0103199
0.00972902
0.00919106
0.119793
0.0961557
0.0788248
0.0659304
0.0558916
0.0481128
0.0419806
0.0369837
0.0328335
0.0297069
0.0259679
0.0232629
0.0214587
0.0195794
0.0180163
0.0166535
0.0154498
0.0143618
0.0133783
0.0124963
0.011697
0.0109781
0.0103229
0.00973117
0.00918937
0.119792
0.0961571
0.0788242
0.0659316
0.0558951
0.0481063
0.0419772
0.0370161
0.0327837
0.0297082
0.026208
0.0232053
0.0215363
0.0194919
0.0179528
0.0166114
0.015411
0.0143374
0.0133716
0.012496
0.0117053
0.0109864
0.0103342
0.00973925
0.00919824
0.119797
0.096151
0.078822
0.0659458
0.0558571
0.048172
0.0420012
0.0369915
0.032791
0.0298554
0.0259224
0.0234035
0.0215685
0.0195543
0.017978
0.0166125
0.015391
0.0142924
0.0133179
0.0124434
0.01166
0.0109544
0.0103089
0.00972337
0.00918497
0.1198
0.0961438
0.0788366
0.0659178
0.0558947
0.0481293
0.0419903
0.0369769
0.0328279
0.0297773
0.0257626
0.0233794
0.021491
0.0196254
0.0180769
0.0167213
0.0154917
0.0143735
0.0133795
0.0124876
0.0116892
0.0109678
0.0103172
0.00972857
0.00918887
0.119793
0.0961602
0.0788076
0.0659551
0.0558577
0.0481565
0.0419784
0.0369972
0.0328499
0.0297034
0.0258895
0.0237334
0.0215889
0.0194907
0.0179539
0.0166034
0.0153917
0.0143039
0.0133353
0.0124678
0.0116804
0.01097
0.01032
0.00972998
0.00918925
0.119807
0.0961315
0.0788462
0.0659025
0.0559144
0.0480858
0.0419764
0.0369512
0.0328826
0.0295915
0.0261204
0.0238068
0.0214417
0.0195209
0.0179986
0.0166782
0.0154739
0.0143735
0.0133901
0.0125037
0.0117068
0.0109842
0.0103302
0.00973381
0.00919285
0.119804
0.0961358
0.0788401
0.065916
0.0558949
0.0481293
0.0420141
0.0369216
0.032899
0.0297087
0.0256498
0.0237719
0.0216141
0.019529
0.018012
0.0166756
0.0154379
0.0143416
0.0133593
0.0124834
0.0116948
0.0109782
0.0103278
0.00973322
0.00919192
0.119798
0.0961477
0.0788244
0.0659307
0.0558857
0.048122
0.0420039
0.0369376
0.0329374
0.0295814
0.0257317
0.0237531
0.0214373
0.0194964
0.0179856
0.0166501
0.0154409
0.0143549
0.0133743
0.0124951
0.0116977
0.0109793
0.0103234
0.00972989
0.00918585
0.119799
0.096146
0.0788262
0.0659289
0.0558883
0.0481189
0.0419761
0.0369775
0.0328829
0.0296372
0.0257413
0.0237609
0.0215536
0.0195075
0.0179759
0.0166247
0.0154066
0.0143147
0.0133427
0.0124724
0.0116825
0.0109699
0.0103179
0.00972654
0.00918384
0.119789
0.0961622
0.0788164
0.0659411
0.0558825
0.0481247
0.041989
0.0369413
0.032965
0.0294763
0.0259966
0.0237821
0.0214731
0.019502
0.0179783
0.0166582
0.0154517
0.014354
0.0133741
0.0124916
0.0116984
0.0109794
0.0103286
0.0097356
0.00919658
0.119788
0.0961628
0.0788163
0.0659417
0.0558815
0.0481266
0.041995
0.0369539
0.0329267
0.029593
0.0256848
0.0237702
0.0214563
0.0195071
0.0179945
0.016658
0.0154496
0.014363
0.0133816
0.0125016
0.0117037
0.0109854
0.0103301
0.00973816
0.00919819
0.119798
0.0961493
0.0788247
0.0659411
0.0558627
0.0481611
0.0420199
0.0369101
0.0329727
0.029681
0.0256444
0.0237888
0.0215941
0.0193565
0.0178654
0.016547
0.015333
0.0142605
0.0132986
0.0124396
0.0116644
0.010958
0.0103151
0.00972616
0.00918777
0.119799
0.0961468
0.078828
0.06594
0.0558645
0.0481679
0.0420098
0.0369147
0.0329858
0.0296835
0.0257326
0.0237646
0.0215281
0.0193095
0.0178305
0.0165144
0.0153141
0.0142527
0.013299
0.0124452
0.0116729
0.0109676
0.0103246
0.00973459
0.00919568
0.119797
0.0961519
0.0788201
0.0659482
0.0558525
0.0481708
0.0420092
0.0369196
0.0330499
0.0294076
0.0260277
0.0237903
0.0211101
0.0193836
0.0179254
0.0165873
0.0153857
0.0143159
0.013351
0.0124847
0.0116968
0.0109849
0.0103333
0.00974252
0.00920333
0.119798
0.0961474
0.0788332
0.0659182
0.0558941
0.0481192
0.041979
0.03693
0.0330548
0.029185
0.0261666
0.0237793
0.0213195
0.0195827
0.018076
0.0166916
0.0154479
0.0143429
0.0133625
0.0124825
0.0116936
0.0109827
0.0103325
0.0097423
0.00920113
0.119799
0.0961491
0.0788218
0.06594
0.0558656
0.0481511
0.0419647
0.0369739
0.0329803
0.0293538
0.0259152
0.0237828
0.0213555
0.019407
0.0179092
0.0165683
0.015354
0.0142827
0.0133264
0.0124621
0.0116817
0.0109704
0.0103233
0.00973056
0.00919006
0.119805
0.0961353
0.0788408
0.0659188
0.0558886
0.0481288
0.0419661
0.0369273
0.0330374
0.0293072
0.0259384
0.0237432
0.0213522
0.0193836
0.0178881
0.0165518
0.0153354
0.014263
0.0133017
0.0124427
0.0116669
0.0109592
0.0103148
0.00972379
0.00918439
0.119791
0.0960504
0.0786205
0.0656102
0.055468
0.0476245
0.0414469
0.0364598
0.0322685
0.0287911
0.0257918
0.0232947
0.0210572
0.019208
0.0174988
0.0161112
0.0147583
0.0137094
0.0126033
0.0118122
0.0108731
0.0102912
0.00945396
0.00908885
0.00812083
0.11979
0.0960519
0.0786193
0.0656119
0.0554663
0.0476266
0.0414503
0.0364625
0.0322673
0.0287971
0.0257941
0.0232894
0.0210584
0.0192132
0.0175028
0.0161147
0.0147606
0.0137113
0.0126036
0.0118126
0.0108724
0.0102912
0.0094536
0.00908854
0.00812309
0.11979
0.0960512
0.0786195
0.0656117
0.0554665
0.0476275
0.0414501
0.0364617
0.0322664
0.0288027
0.025788
0.023287
0.0210587
0.0192105
0.0174998
0.0161139
0.0147597
0.0137102
0.0126025
0.0118121
0.0108728
0.0102894
0.00946693
0.00902401
0.00821469
0.119788
0.0960545
0.0786168
0.0656145
0.0554647
0.0476278
0.0414506
0.0364613
0.0322689
0.0288002
0.0257901
0.0232896
0.0210596
0.0192108
0.0174991
0.0161137
0.0147608
0.0137112
0.0126028
0.0118116
0.0108717
0.0102911
0.00945395
0.0090894
0.00812335
0.119788
0.0960547
0.0786167
0.0656146
0.055465
0.0476272
0.0414508
0.0364626
0.0322668
0.0288028
0.0257919
0.0232875
0.0210575
0.0192102
0.0174984
0.0161133
0.0147588
0.0137109
0.0126017
0.0118127
0.010871
0.0102924
0.00945321
0.00908821
0.00812751
0.119789
0.0960536
0.0786172
0.0656153
0.0554626
0.047631
0.0414519
0.0364613
0.0322685
0.0288033
0.0257867
0.023289
0.0210605
0.0192109
0.0174979
0.0161119
0.0147567
0.013709
0.0126009
0.0118126
0.0108716
0.0102929
0.00945375
0.00908886
0.00812784
0.119789
0.096053
0.0786186
0.0656126
0.0554659
0.0476277
0.0414506
0.0364612
0.0322685
0.028801
0.0257888
0.0232876
0.0210584
0.019211
0.0175006
0.0161154
0.0147607
0.0137109
0.012602
0.0118117
0.0108712
0.0102912
0.00945324
0.00908855
0.00812465
0.119789
0.0960544
0.0786158
0.0656162
0.0554619
0.0476309
0.0414508
0.0364623
0.0322701
0.0287999
0.0257895
0.0232919
0.0210603
0.0192096
0.0174984
0.0161118
0.0147579
0.013709
0.0126017
0.0118114
0.010872
0.0102885
0.00946603
0.00902316
0.00821386
0.11979
0.0960514
0.0786195
0.0656112
0.0554671
0.0476252
0.0414495
0.0364602
0.0322695
0.0287975
0.0257905
0.0232902
0.021058
0.0192095
0.0175002
0.0161156
0.0147622
0.0137121
0.0126035
0.011812
0.0108724
0.0102885
0.00946635
0.0090228
0.00821474
0.11979
0.0960516
0.0786192
0.0656122
0.0554659
0.0476273
0.0414514
0.0364592
0.0322703
0.0287992
0.0257878
0.0232894
0.0210579
0.0192093
0.0174998
0.0161136
0.0147596
0.0137105
0.0126032
0.0118124
0.0108732
0.0102892
0.00946711
0.00902347
0.00821553
0.119789
0.0960535
0.078617
0.0656142
0.0554646
0.0476278
0.0414509
0.0364611
0.0322708
0.0287974
0.0257896
0.0232927
0.0210585
0.0192097
0.017499
0.016114
0.0147592
0.0137105
0.0126012
0.0118117
0.0108704
0.0102917
0.00945292
0.00908816
0.00812675
0.119789
0.0960529
0.0786177
0.0656135
0.0554653
0.047627
0.0414503
0.0364615
0.0322701
0.028798
0.0257894
0.0232931
0.0210607
0.0192098
0.017499
0.0161121
0.0147586
0.0137093
0.0126024
0.0118114
0.010872
0.0102906
0.00945334
0.00908834
0.00812105
0.119788
0.096055
0.0786162
0.0656151
0.0554642
0.0476282
0.0414501
0.0364615
0.0322713
0.028796
0.0257911
0.0232925
0.0210589
0.0192091
0.0174997
0.0161148
0.0147616
0.0137111
0.012603
0.0118115
0.0108721
0.0102911
0.00945434
0.0090896
0.00812236
0.119788
0.096055
0.0786166
0.0656147
0.055465
0.0476273
0.0414506
0.0364616
0.0322709
0.0287973
0.0257906
0.0232926
0.0210592
0.0192097
0.0174998
0.016114
0.0147602
0.0137101
0.0126022
0.011811
0.0108715
0.0102907
0.00945373
0.00908891
0.00812214
0.119789
0.0960537
0.0786172
0.0656153
0.0554627
0.0476309
0.0414515
0.0364601
0.0322729
0.0287971
0.0257839
0.0232941
0.0210608
0.0192094
0.0174971
0.0161114
0.0147565
0.0137097
0.0126017
0.0118135
0.0108722
0.0102933
0.00945406
0.00908913
0.00812788
0.119789
0.0960534
0.0786176
0.065615
0.055463
0.0476314
0.0414508
0.0364609
0.0322728
0.0287959
0.0257854
0.023295
0.02106
0.0192084
0.0174963
0.0161105
0.0147563
0.01371
0.0126026
0.0118141
0.0108736
0.0102915
0.00946672
0.00902723
0.00821424
0.119789
0.0960534
0.0786171
0.065615
0.0554629
0.0476302
0.0414508
0.0364618
0.0322728
0.0287926
0.0257901
0.0232959
0.0210579
0.0192082
0.0174984
0.0161116
0.0147585
0.0137097
0.012603
0.011812
0.0108734
0.010289
0.00946764
0.00902268
0.00821673
0.119789
0.0960534
0.0786183
0.0656126
0.055466
0.047627
0.0414491
0.0364624
0.0322702
0.0287937
0.0257933
0.0232923
0.0210581
0.019211
0.0175012
0.0161141
0.0147595
0.0137101
0.0126025
0.0118116
0.0108726
0.0102884
0.00946726
0.00902262
0.00821671
0.119789
0.0960534
0.078617
0.0656152
0.0554624
0.0476305
0.0414493
0.0364634
0.0322706
0.0287941
0.0257925
0.023297
0.021059
0.0192088
0.0174977
0.0161118
0.0147573
0.0137101
0.0126018
0.0118127
0.0108717
0.0102898
0.00946474
0.00902638
0.00821255
0.11979
0.0960513
0.0786197
0.065612
0.0554662
0.0476273
0.0414416
0.0364566
0.0322668
0.02879
0.0257866
0.0232933
0.0210581
0.0192072
0.0174971
0.0161103
0.0147571
0.0137093
0.012603
0.0118127
0.0108736
0.0102892
0.00946703
0.00902295
0.00821513
0.119788
0.0960535
0.0786106
0.065608
0.0554495
0.0476154
0.0414292
0.0364431
0.032243
0.0287728
0.0257651
0.0232672
0.021033
0.019189
0.0174738
0.0160895
0.0147304
0.0136832
0.0125707
0.0117816
0.010838
0.0102579
0.00941804
0.00905363
0.00808062
0.119787
0.0960541
0.07861
0.0656087
0.0554488
0.0476163
0.0414313
0.036445
0.032244
0.0287741
0.0257657
0.0232679
0.0210331
0.0191896
0.0174738
0.0160901
0.0147302
0.0136837
0.0125703
0.0117821
0.0108374
0.0102583
0.00941768
0.00905328
0.00808276
0.119787
0.096054
0.0786101
0.0656087
0.0554489
0.0476163
0.0414314
0.036445
0.0322441
0.0287742
0.0257656
0.023268
0.0210331
0.0191897
0.0174737
0.0160902
0.01473
0.0136838
0.01257
0.0117823
0.0108376
0.0102563
0.00943022
0.0089875
0.00817518
0.119787
0.0960542
0.0786099
0.0656088
0.0554488
0.0476163
0.0414314
0.036445
0.0322442
0.0287741
0.0257657
0.023268
0.0210332
0.0191897
0.0174737
0.0160901
0.0147301
0.0136838
0.01257
0.0117823
0.010837
0.0102587
0.00941733
0.00905305
0.00808504
0.119787
0.0960546
0.0786095
0.0656094
0.0554481
0.0476171
0.0414313
0.0364454
0.032244
0.0287745
0.0257654
0.0232684
0.0210328
0.0191901
0.0174732
0.0160906
0.0147295
0.0136844
0.0125694
0.0117829
0.0108367
0.0102572
0.00942886
0.00899018
0.00817334
0.119787
0.0960543
0.0786098
0.065609
0.0554485
0.0476167
0.0414314
0.0364451
0.0322442
0.0287743
0.0257656
0.023268
0.0210332
0.0191897
0.0174737
0.01609
0.0147301
0.0136836
0.0125702
0.0117819
0.0108381
0.0102557
0.00943122
0.00898558
0.00817734
0.119787
0.0960542
0.07861
0.0656088
0.0554487
0.0476164
0.0414314
0.0364451
0.0322441
0.0287742
0.0257656
0.023268
0.0210331
0.0191897
0.0174737
0.0160902
0.0147301
0.0136837
0.0125701
0.0117821
0.0108377
0.0102559
0.00943061
0.00898658
0.00817618
0.119787
0.096054
0.0786101
0.0656087
0.0554489
0.0476162
0.0414314
0.036445
0.0322443
0.028774
0.0257657
0.0232679
0.0210333
0.0191895
0.0174738
0.0160899
0.0147302
0.0136835
0.0125703
0.0117819
0.0108374
0.0102584
0.00941749
0.00905325
0.00808332
0.119787
0.0960538
0.0786103
0.0656084
0.0554491
0.0476159
0.0414313
0.0364449
0.0322442
0.028774
0.0257657
0.0232679
0.0210332
0.0191895
0.0174738
0.0160901
0.0147303
0.0136837
0.0125702
0.0117821
0.0108373
0.0102585
0.00941748
0.00905319
0.00808377
0.119787
0.0960539
0.0786101
0.0656086
0.0554489
0.0476161
0.0414314
0.0364449
0.0322442
0.0287741
0.0257656
0.023268
0.0210331
0.0191896
0.0174737
0.0160901
0.0147301
0.0136838
0.0125701
0.0117822
0.0108376
0.0102562
0.00943026
0.00898742
0.00817527
0.119787
0.0960546
0.0786095
0.0656093
0.0554482
0.047617
0.0414314
0.0364454
0.032244
0.0287744
0.0257654
0.0232684
0.0210328
0.01919
0.0174733
0.0160906
0.0147296
0.0136843
0.0125694
0.0117829
0.0108364
0.0102594
0.0094169
0.00905259
0.0080876
0.119787
0.0960542
0.0786099
0.0656088
0.0554487
0.0476163
0.0414314
0.0364451
0.0322442
0.0287741
0.0257657
0.023268
0.0210332
0.0191896
0.0174738
0.01609
0.0147303
0.0136835
0.0125704
0.0117819
0.0108376
0.0102581
0.00941784
0.00905342
0.00808142
0.119787
0.0960541
0.07861
0.0656086
0.055449
0.047616
0.0414314
0.0364449
0.0322442
0.028774
0.0257658
0.0232679
0.0210332
0.0191895
0.0174738
0.01609
0.0147304
0.0136836
0.0125703
0.0117819
0.0108374
0.0102583
0.00941774
0.00905332
0.00808268
0.119787
0.0960541
0.07861
0.0656086
0.055449
0.047616
0.0414314
0.036445
0.0322442
0.028774
0.0257658
0.0232679
0.0210332
0.0191895
0.0174738
0.01609
0.0147303
0.0136836
0.0125703
0.0117819
0.0108374
0.0102583
0.00941772
0.0090533
0.00808267
0.119787
0.0960544
0.0786098
0.0656091
0.0554484
0.0476167
0.0414314
0.0364452
0.0322442
0.0287742
0.0257655
0.0232681
0.0210331
0.0191897
0.0174737
0.0160901
0.0147301
0.0136837
0.0125702
0.0117822
0.0108374
0.0102585
0.00941773
0.00905335
0.00808299
0.119787
0.0960543
0.0786098
0.065609
0.0554485
0.0476167
0.0414314
0.0364452
0.0322442
0.0287741
0.0257656
0.0232681
0.0210332
0.0191896
0.0174737
0.01609
0.0147301
0.0136836
0.0125703
0.011782
0.0108382
0.0102557
0.00943128
0.00898558
0.00817733
0.119787
0.0960543
0.0786098
0.065609
0.0554485
0.0476166
0.0414314
0.0364452
0.0322442
0.0287741
0.0257657
0.0232681
0.0210332
0.0191896
0.0174738
0.01609
0.0147302
0.0136835
0.0125704
0.0117818
0.0108381
0.0102555
0.00943129
0.0089851
0.00817797
0.119787
0.0960543
0.0786099
0.0656089
0.0554486
0.0476165
0.0414313
0.0364452
0.032244
0.0287743
0.0257656
0.0232683
0.0210329
0.01919
0.0174734
0.0160905
0.0147296
0.0136843
0.0125695
0.0117829
0.0108368
0.0102572
0.00942857
0.00899036
0.00817355
0.119787
0.0960542
0.0786099
0.0656089
0.0554486
0.0476165
0.0414313
0.0364451
0.0322441
0.028774
0.0257656
0.023268
0.021033
0.0191896
0.0174736
0.0160901
0.01473
0.0136838
0.01257
0.0117823
0.0108372
0.0102587
0.00941731
0.00905313
0.00808464
0.119787
0.096054
0.0786101
0.0656086
0.0554489
0.0476162
0.041424
0.0364397
0.0322398
0.028771
0.025763
0.0232664
0.0210315
0.0191888
0.0174726
0.0160898
0.0147293
0.0136839
0.0125696
0.0117827
0.0108368
0.0102592
0.00941726
0.00905295
0.00808634
0.119787
0.0960537
0.0786079
0.0656059
0.0554445
0.0476117
0.041424
0.0364381
0.0322373
0.0287676
0.0257593
0.0232618
0.0210272
0.0191839
0.0174683
0.0160847
0.0147251
0.0136785
0.0125655
0.0117771
0.0108329
0.0102536
0.00941327
0.00904897
0.00807781
0.119787
0.0960544
0.0786073
0.0656067
0.0554436
0.0476128
0.0414261
0.0364402
0.0322383
0.0287689
0.0257597
0.0232629
0.0210272
0.0191847
0.017468
0.0160855
0.0147245
0.0136794
0.0125646
0.0117781
0.0108318
0.0102546
0.00941255
0.00904819
0.00808211
0.119787
0.096054
0.0786077
0.0656062
0.0554442
0.0476121
0.0414262
0.0364399
0.0322385
0.0287687
0.02576
0.0232625
0.0210275
0.0191844
0.0174684
0.016085
0.014725
0.0136788
0.0125652
0.0117774
0.0108326
0.0102539
0.00941293
0.0090487
0.0080795
0.119787
0.0960538
0.0786078
0.065606
0.0554444
0.0476118
0.0414262
0.0364397
0.0322385
0.0287686
0.02576
0.0232625
0.0210276
0.0191843
0.0174684
0.016085
0.0147251
0.0136788
0.0125653
0.0117773
0.0108331
0.0102513
0.00942609
0.00898238
0.00817117
0.119787
0.0960542
0.0786074
0.0656065
0.0554438
0.0476125
0.0414261
0.0364401
0.0322384
0.0287689
0.0257598
0.0232629
0.0210272
0.0191848
0.0174679
0.0160856
0.0147244
0.0136796
0.0125644
0.0117784
0.0108314
0.0102552
0.00941197
0.00904781
0.00808556
0.119787
0.0960544
0.0786072
0.0656068
0.0554436
0.0476129
0.0414262
0.0364402
0.0322383
0.028769
0.0257597
0.0232629
0.0210272
0.0191848
0.017468
0.0160855
0.0147245
0.0136795
0.0125645
0.0117781
0.0108321
0.0102525
0.0094244
0.00898525
0.00816958
0.119787
0.0960542
0.0786074
0.0656065
0.0554438
0.0476125
0.0414262
0.0364401
0.0322384
0.0287689
0.0257598
0.0232628
0.0210273
0.0191847
0.0174681
0.0160854
0.0147246
0.0136793
0.0125647
0.011778
0.0108323
0.0102524
0.00942448
0.00898494
0.00817008
0.119787
0.0960538
0.0786079
0.065606
0.0554444
0.0476118
0.0414262
0.0364397
0.0322385
0.0287685
0.02576
0.0232624
0.0210276
0.0191843
0.0174685
0.0160849
0.0147251
0.0136787
0.0125653
0.0117773
0.0108326
0.0102538
0.00941299
0.00904872
0.0080792
0.119787
0.0960537
0.078608
0.0656058
0.0554446
0.0476116
0.0414262
0.0364396
0.0322386
0.0287684
0.0257601
0.0232623
0.0210277
0.0191841
0.0174686
0.0160848
0.0147253
0.0136785
0.0125656
0.011777
0.010833
0.0102534
0.00941338
0.00904899
0.00807689
0.119787
0.0960539
0.0786078
0.0656061
0.0554444
0.0476119
0.0414262
0.0364398
0.0322385
0.0287686
0.02576
0.0232625
0.0210276
0.0191844
0.0174684
0.0160851
0.014725
0.0136789
0.0125651
0.0117775
0.0108324
0.0102541
0.00941277
0.00904854
0.00808073
0.119787
0.0960544
0.0786073
0.0656067
0.0554436
0.0476128
0.0414262
0.0364402
0.0322383
0.028769
0.0257597
0.0232629
0.0210272
0.0191848
0.0174679
0.0160856
0.0147244
0.0136795
0.0125645
0.0117782
0.0108321
0.0102525
0.00942433
0.00898566
0.00816888
0.119787
0.0960541
0.0786076
0.0656064
0.055444
0.0476123
0.0414262
0.03644
0.0322384
0.0287688
0.0257598
0.0232628
0.0210273
0.0191847
0.017468
0.0160855
0.0147245
0.0136795
0.0125645
0.0117783
0.0108315
0.010255
0.00941218
0.0090479
0.00808456
0.119787
0.0960538
0.0786079
0.065606
0.0554444
0.0476118
0.0414262
0.0364398
0.0322385
0.0287686
0.02576
0.0232625
0.0210276
0.0191843
0.0174684
0.016085
0.014725
0.0136788
0.0125652
0.0117773
0.010833
0.0102514
0.00942603
0.00898246
0.00817109
0.119787
0.0960538
0.0786078
0.065606
0.0554444
0.0476119
0.0414262
0.0364398
0.0322385
0.0287686
0.02576
0.0232625
0.0210276
0.0191844
0.0174684
0.0160851
0.014725
0.0136789
0.0125652
0.0117774
0.0108329
0.0102516
0.00942565
0.00898301
0.00817072
0.119787
0.0960543
0.0786073
0.0656067
0.0554437
0.0476128
0.0414262
0.0364402
0.0322384
0.028769
0.0257597
0.0232629
0.0210272
0.0191848
0.017468
0.0160855
0.0147245
0.0136794
0.0125646
0.0117782
0.0108317
0.0102548
0.00941236
0.00904808
0.0080831
0.119787
0.0960543
0.0786074
0.0656066
0.0554438
0.0476126
0.0414262
0.0364401
0.0322384
0.0287689
0.0257598
0.0232628
0.0210273
0.0191847
0.017468
0.0160855
0.0147246
0.0136794
0.0125646
0.011778
0.0108322
0.0102524
0.0094244
0.00898532
0.00816948
0.119787
0.0960543
0.0786074
0.0656066
0.0554438
0.0476126
0.0414262
0.0364401
0.0322384
0.0287689
0.0257598
0.0232628
0.0210273
0.0191847
0.0174681
0.0160854
0.0147246
0.0136793
0.0125647
0.011778
0.0108323
0.0102523
0.00942453
0.00898485
0.00817018
0.119787
0.0960539
0.0786078
0.0656061
0.0554443
0.047612
0.0414262
0.0364398
0.0322385
0.0287686
0.02576
0.0232625
0.0210275
0.0191844
0.0174683
0.0160851
0.0147249
0.013679
0.012565
0.0117777
0.0108323
0.0102543
0.00941259
0.00904846
0.00808155
0.119787
0.096054
0.0786076
0.0656063
0.0554441
0.0476123
0.0414261
0.0364399
0.0322383
0.0287687
0.0257597
0.0232627
0.0210272
0.0191847
0.0174679
0.0160855
0.0147244
0.0136795
0.0125644
0.0117783
0.0108319
0.0102529
0.00942382
0.00898683
0.00816771
0.119787
0.0960535
0.0786081
0.0656056
0.0554448
0.0476114
0.0414189
0.0364342
0.0322343
0.0287653
0.0257575
0.0232606
0.0210262
0.0191832
0.0174677
0.0160844
0.0147247
0.0136785
0.0125652
0.0117773
0.0108327
0.0102539
0.00941315
0.00904895
0.00807921
0.119787
0.0960538
0.0786067
0.0656048
0.055442
0.0476099
0.0414213
0.0364355
0.0322342
0.0287648
0.0257561
0.0232591
0.021024
0.0191813
0.0174651
0.0160824
0.0147219
0.0136765
0.0125623
0.0117753
0.0108302
0.0102497
0.00942309
0.00898178
0.00816877
0.119787
0.0960539
0.0786066
0.0656049
0.0554419
0.04761
0.0414234
0.0364371
0.0322354
0.0287658
0.0257567
0.0232597
0.0210243
0.0191818
0.0174651
0.0160827
0.0147218
0.0136769
0.012562
0.0117758
0.0108296
0.0102505
0.00942171
0.00898429
0.00816633
0.119787
0.0960537
0.0786068
0.0656046
0.0554422
0.0476096
0.0414235
0.036437
0.0322355
0.0287656
0.0257569
0.0232595
0.0210246
0.0191815
0.0174655
0.0160823
0.0147223
0.0136763
0.0125626
0.0117751
0.01083
0.0102519
0.0094106
0.00904642
0.00807872
0.119787
0.0960536
0.0786068
0.0656046
0.0554422
0.0476096
0.0414236
0.036437
0.0322356
0.0287656
0.025757
0.0232594
0.0210246
0.0191814
0.0174657
0.0160821
0.0147225
0.013676
0.0125629
0.0117746
0.010831
0.0102486
0.00942449
0.00897886
0.00817089
0.119787
0.0960536
0.0786069
0.0656045
0.0554423
0.0476095
0.0414235
0.0364369
0.0322356
0.0287656
0.025757
0.0232594
0.0210246
0.0191814
0.0174656
0.0160822
0.0147224
0.0136761
0.0125628
0.0117748
0.0108308
0.0102489
0.00942403
0.00897978
0.00816992
0.119787
0.0960541
0.0786064
0.0656052
0.0554415
0.0476104
0.0414235
0.0364374
0.0322354
0.028766
0.0257567
0.0232599
0.0210242
0.0191819
0.0174651
0.0160828
0.0147218
0.0136769
0.012562
0.0117758
0.0108293
0.0102526
0.00940998
0.00904585
0.00808211
0.119787
0.096054
0.0786064
0.0656051
0.0554417
0.0476103
0.0414235
0.0364373
0.0322354
0.0287659
0.0257567
0.0232598
0.0210243
0.0191818
0.0174652
0.0160827
0.0147218
0.0136768
0.0125621
0.0117756
0.0108298
0.0102502
0.00942222
0.00898319
0.00816748
0.119787
0.0960537
0.0786068
0.0656047
0.0554422
0.0476096
0.0414235
0.036437
0.0322355
0.0287656
0.0257569
0.0232595
0.0210245
0.0191815
0.0174655
0.0160823
0.0147223
0.0136763
0.0125626
0.011775
0.0108305
0.0102493
0.00942346
0.0089809
0.00816873
0.119787
0.0960535
0.0786069
0.0656045
0.0554424
0.0476094
0.0414235
0.0364369
0.0322356
0.0287655
0.025757
0.0232594
0.0210247
0.0191813
0.0174656
0.0160822
0.0147225
0.0136761
0.0125628
0.0117749
0.0108303
0.0102516
0.00941081
0.00904658
0.00807729
0.119787
0.0960537
0.0786068
0.0656047
0.0554422
0.0476097
0.0414236
0.036437
0.0322356
0.0287656
0.025757
0.0232595
0.0210246
0.0191814
0.0174656
0.0160822
0.0147224
0.0136761
0.0125629
0.0117747
0.0108309
0.0102488
0.00942436
0.00897936
0.00817014
0.119787
0.0960536
0.0786069
0.0656046
0.0554423
0.0476095
0.0414236
0.0364369
0.0322356
0.0287655
0.025757
0.0232594
0.0210247
0.0191813
0.0174657
0.0160821
0.0147226
0.0136759
0.0125631
0.0117745
0.0108312
0.0102485
0.00942463
0.00897837
0.00817159
0.119787
0.0960536
0.0786069
0.0656045
0.0554423
0.0476094
0.0414235
0.0364369
0.0322356
0.0287656
0.025757
0.0232595
0.0210246
0.0191814
0.0174655
0.0160823
0.0147223
0.0136763
0.0125626
0.011775
0.0108306
0.0102493
0.00942349
0.00898084
0.00816881
0.119787
0.0960534
0.078607
0.0656044
0.0554425
0.0476093
0.0414236
0.0364368
0.0322356
0.0287655
0.025757
0.0232594
0.0210247
0.0191813
0.0174657
0.0160821
0.0147225
0.013676
0.0125629
0.0117748
0.0108304
0.0102515
0.00941081
0.00904665
0.00807689
0.119787
0.0960534
0.0786071
0.0656043
0.0554426
0.0476092
0.0414235
0.0364368
0.0322356
0.0287654
0.0257571
0.0232593
0.0210247
0.0191812
0.0174657
0.016082
0.0147226
0.0136759
0.012563
0.0117747
0.0108306
0.0102513
0.00941101
0.00904675
0.00807594
0.119787
0.0960536
0.0786069
0.0656045
0.0554423
0.0476094
0.0414236
0.0364369
0.0322356
0.0287655
0.025757
0.0232594
0.0210247
0.0191813
0.0174657
0.0160821
0.0147225
0.0136761
0.0125629
0.0117748
0.0108304
0.0102514
0.00941099
0.00904668
0.00807633
0.119787
0.0960536
0.0786069
0.0656045
0.0554423
0.0476095
0.0414235
0.036437
0.0322356
0.0287656
0.025757
0.0232595
0.0210246
0.0191814
0.0174655
0.0160823
0.0147223
0.0136763
0.0125626
0.0117751
0.01083
0.0102518
0.00941061
0.00904642
0.00807864
0.119787
0.0960536
0.0786068
0.0656046
0.0554422
0.0476096
0.0414235
0.036437
0.0322355
0.0287656
0.025757
0.0232595
0.0210246
0.0191814
0.0174656
0.0160822
0.0147224
0.0136762
0.0125628
0.0117748
0.0108308
0.010249
0.00942397
0.00897987
0.00816983
0.119787
0.0960536
0.0786068
0.0656046
0.0554422
0.0476096
0.0414235
0.036437
0.0322355
0.0287656
0.0257569
0.0232595
0.0210246
0.0191814
0.0174655
0.0160822
0.0147224
0.0136762
0.0125627
0.0117749
0.0108307
0.010249
0.00942397
0.00897988
0.00816984
0.119787
0.0960538
0.0786066
0.0656049