/*--------------------------------*- C++ -*----------------------------------*\
  =========                 |
  \\      /  F ield         | OpenFOAM: The Open Source CFD Toolbox
   \\    /   O peration     | Website:  https://openfoam.org
    \\  /    A nd           | Version:  12
     \\/     M anipulation  |
\*---------------------------------------------------------------------------*/
FoamFile
{
    format      ascii;
    class       volScalarField;
    location    "250";
    object      nut;
}
// * * * * * * * * * * * * * * * * * * * * * * * * * * * * * * * * * * * * * //

dimensions      [0 2 -1 0 0 0 0];

internalField   nonuniform List<scalar> 
5000
(
1.5
1.49996
1.5
1.49989
1.49999
1.5
1.49905
1.5
1.5
1.49004
1.43668
1.4505
1.4221
1.32103
1.35229
1.26748
1.29906
1.22265
1.25351
1.18596
1.18138
1.20457
1.14816
1.1674
1.12278
1.5
1.49993
1.5
1.49974
1.5
1.49949
1.5
1.49958
1.5
1.46994
1.46474
1.42522
1.42587
1.39496
1.30255
1.32972
1.24931
1.27781
1.20701
1.20041
1.22354
1.16323
1.18413
1.13156
1.13783
1.5
1.49997
1.5
1.5
1.49981
1.5
1.4996
1.5
1.49502
1.5
1.39523
1.44262
1.34944
1.38774
1.36334
1.27676
1.30434
1.22965
1.25667
1.18907
1.21511
1.15365
1.14883
1.16787
1.12821
1.5
1.5
1.49998
1.5
1.4998
1.5
1.5
1.49767
1.5
1.49239
1.44046
1.45404
1.34808
1.38341
1.29157
1.32666
1.24931
1.24522
1.26822
1.20143
1.22213
1.16133
1.182
1.12747
1.13788
1.5
1.49997
1.5
1.49983
1.5
1.49954
1.49926
1.5
1.5
1.49208
1.47762
1.36486
1.40594
1.31114
1.34875
1.26236
1.29918
1.22615
1.22124
1.24543
1.18213
1.20307
1.14656
1.16556
1.11446
1.5
1.49997
1.5
1.49995
1.49996
1.5
1.49979
1.49922
1.5
1.47196
1.47128
1.40198
1.423
1.39383
1.30176
1.32898
1.24817
1.27762
1.20568
1.23429
1.1697
1.16496
1.18672
1.133
1.14284
1.5
1.49999
1.49997
1.5
1.49982
1.5
1.49999
1.49956
1.5
1.47668
1.4565
1.42635
1.39113
1.39063
1.37957
1.34538
1.26148
1.28469
1.21165
1.23654
1.17243
1.19637
1.139
1.1343
1.14284
1.49999
1.5
1.5
1.49985
1.5
1.49991
1.49921
1.5
1.5
1.47765
1.47282
1.4479
1.34325
1.37895
1.28944
1.32425
1.24437
1.27778
1.20648
1.20165
1.22485
1.16531
1.1853
1.13221
1.13914
1.49999
1.5
1.49992
1.5
1.49985
1.49951
1.5
1.47196
1.5
1.41559
1.46651
1.35691
1.40469
1.30956
1.35087
1.26146
1.28024
1.29312
1.2201
1.24098
1.17752
1.19941
1.14197
1.16308
1.11172
1.5
1.49997
1.5
1.49992
1.49991
1.5
1.49532
1.5
1.43509
1.5
1.38516
1.4362
1.32969
1.372
1.35945
1.2724
1.30296
1.2289
1.25669
1.18914
1.18374
1.20505
1.14801
1.16716
1.12095
1.49998
1.5
1.49995
1.49999
1.5
1.49894
1.5
1.5
1.49884
1.5
1.39088
1.43538
1.33103
1.37587
1.28241
1.32426
1.24721
1.24555
1.26847
1.20183
1.22274
1.16274
1.18277
1.1281
1.13848
1.49999
1.5
1.5
1.49985
1.5
1.49993
1.49921
1.5
1.5
1.47915
1.47204
1.44771
1.34136
1.37771
1.28573
1.32248
1.24238
1.27706
1.20685
1.20231
1.2255
1.166
1.18573
1.13242
1.13906
1.5
1.49998
1.49996
1.5
1.49941
1.5
1.49854
1.49703
1.5
1.41858
1.46911
1.36021
1.40607
1.31017
1.35014
1.26218
1.27446
1.29255
1.22034
1.24137
1.17797
1.19939
1.14214
1.16304
1.11193
1.49999
1.5
1.49996
1.49998
1.5
1.49897
1.5
1.5
1.49898
1.5
1.39023
1.43512
1.33181
1.3755
1.28273
1.32418
1.24775
1.24673
1.26956
1.20249
1.22296
1.16314
1.18252
1.12745
1.1252
1.5
1.49998
1.5
1.49991
1.5
1.5
1.49922
1.5
1.5
1.49075
1.43442
1.4493
1.42058
1.32015
1.35185
1.26547
1.29931
1.22297
1.25489
1.18733
1.18291
1.20568
1.14892
1.16805
1.12318
1.5
1.49999
1.5
1.49991
1.5
1.5
1.49919
1.5
1.5
1.48967
1.43867
1.45017
1.42083
1.32122
1.3519
1.26613
1.299
1.22278
1.25478
1.18725
1.18281
1.20555
1.14922
1.16802
1.12347
1.5
1.49998
1.49994
1.5
1.49958
1.5
1.5
1.49589
1.5
1.5
1.39666
1.4411
1.34116
1.3795
1.28626
1.32571
1.24748
1.24293
1.26751
1.20074
1.22222
1.16247
1.18304
1.12782
1.1261
1.5
1.49995
1.5
1.49996
1.4999
1.5
1.49966
1.49933
1.5
1.47618
1.46615
1.41183
1.42435
1.3929
1.29864
1.32822
1.24756
1.27708
1.20621
1.23466
1.1706
1.16577
1.1873
1.13345
1.1423
1.5
1.49999
1.5
1.49986
1.5
1.49945
1.49965
1.5
1.5
1.49315
1.47702
1.36667
1.40689
1.30961
1.34827
1.2616
1.29954
1.22484
1.22026
1.24506
1.18188
1.20354
1.14681
1.16488
1.12525
1.5
1.49997
1.5
1.49991
1.5
1.5
1.49922
1.5
1.5
1.48925
1.44072
1.44995
1.42152
1.32057
1.352
1.26563
1.29877
1.22166
1.25346
1.18647
1.1816
1.20492
1.14817
1.16757
1.12265
1.5
1.49998
1.5
1.5
1.4999
1.5
1.49352
1.49307
1.46814
1.5
1.47912
1.49189
1.48133
1.37371
1.42763
1.4247
1.32676
1.31019
1.30701
1.30358
1.29997
1.2962
1.29125
1.2861
1.28041
1.5
1.49998
1.49999
1.5
1.49995
1.5
1.4931
1.48926
1.47718
1.48421
1.47826
1.5
1.43172
1.4147
1.45728
1.38721
1.30839
1.3093
1.30806
1.30579
1.30266
1.29821
1.29337
1.28767
1.28218
1.5
1.5
1.49994
1.5
1.49969
1.5
1.49145
1.49186
1.47983
1.46097
1.5
1.45033
1.4794
1.47183
1.35506
1.36719
1.37696
1.33278
1.32169
1.31202
1.30414
1.29691
1.29051
1.28502
1.27929
1.5
1.49996
1.5
1.49987
1.5
1.49977
1.49358
1.48811
1.48217
1.46397
1.5
1.4546
1.48226
1.47583
1.36853
1.34173
1.34378
1.33499
1.32537
1.31535
1.30627
1.29768
1.29028
1.28328
1.27746
1.5
1.49996
1.5
1.49983
1.5
1.4998
1.49376
1.48774
1.48115
1.46737
1.48675
1.437
1.48398
1.48505
1.38335
1.3233
1.32773
1.32681
1.32352
1.31899
1.31286
1.30663
1.29966
1.2931
1.28625
1.49998
1.5
1.4999
1.5
1.49983
1.5
1.48941
1.49184
1.47932
1.46064
1.5
1.42328
1.49237
1.46848
1.35496
1.36325
1.3655
1.34092
1.32934
1.32011
1.31155
1.30412
1.29742
1.29064
1.28429
1.5
1.49997
1.5
1.5
1.49983
1.5
1.49141
1.49147
1.47802
1.46706
1.5
1.42914
1.49262
1.45601
1.34114
1.35408
1.3613
1.32549
1.30958
1.30032
1.29264
1.28687
1.28149
1.27688
1.27297
1.49997
1.5
1.49997
1.49992
1.5
1.4994
1.4929
1.48755
1.4806
1.46847
1.47989
1.47414
1.5
1.45017
1.33881
1.35205
1.34946
1.33714
1.32761
1.31905
1.31142
1.3039
1.29701
1.29008
1.28347
1.5
1.49998
1.5
1.49995
1.5
1.49989
1.49456
1.48869
1.4805
1.4727
1.46586
1.43882
1.5
1.4364
1.3386
1.35361
1.36259
1.33449
1.31917
1.30913
1.30037
1.29336
1.2867
1.2811
1.27527
1.5
1.5
1.49996
1.5
1.49982
1.5
1.49035
1.49439
1.47323
1.47378
1.48906
1.46417
1.5
1.42375
1.35633
1.39244
1.36286
1.31623
1.31149
1.30666
1.30194
1.29739
1.29192
1.28663
1.28058
1.49999
1.5
1.5
1.49992
1.5
1.4996
1.49285
1.4892
1.47787
1.47274
1.4836
1.49016
1.5
1.42394
1.33128
1.3508
1.35267
1.33938
1.33116
1.32229
1.31395
1.30563
1.29801
1.29045
1.28355
1.49999
1.5
1.5
1.49992
1.5
1.49963
1.49387
1.48815
1.47943
1.47155
1.48805
1.48384
1.5
1.43518
1.32865
1.35358
1.34708
1.33152
1.32301
1.31511
1.30784
1.30044
1.29353
1.28635
1.27984
1.5
1.49997
1.5
1.49984
1.5
1.49959
1.49334
1.48913
1.47742
1.47667
1.47205
1.45863
1.5
1.41426
1.33861
1.35621
1.36383
1.33139
1.31914
1.30955
1.30112
1.29439
1.28804
1.28264
1.27742
1.5
1.49997
1.5
1.49985
1.5
1.49958
1.49307
1.48879
1.4777
1.47299
1.48456
1.48618
1.5
1.42359
1.32651
1.34547
1.34654
1.33641
1.32862
1.32014
1.31223
1.30442
1.29738
1.29036
1.28417
1.49998
1.5
1.49991
1.5
1.49986
1.5
1.48937
1.4942
1.47209
1.47298
1.48662
1.47299
1.5
1.43174
1.36625
1.3994
1.36138
1.32424
1.31792
1.31193
1.30628
1.30092
1.29473
1.28873
1.2822
1.49998
1.5
1.49989
1.5
1.49976
1.5
1.48928
1.49472
1.47115
1.47193
1.48294
1.48249
1.5
1.42524
1.37783
1.39957
1.36213
1.33734
1.32913
1.32154
1.31447
1.3078
1.30039
1.29325
1.28578
1.49997
1.5
1.49989
1.5
1.49986
1.5
1.48967
1.49279
1.47176
1.47912
1.47259
1.5
1.5
1.379
1.39416
1.4083
1.34406
1.33672
1.33027
1.32349
1.31692
1.30981
1.30283
1.29546
1.28823
1.5
1.49996
1.5
1.49999
1.49994
1.5
1.49244
1.49213
1.47172
1.48778
1.47404
1.5
1.46635
1.35407
1.39128
1.407
1.30636
1.30102
1.299
1.29721
1.29446
1.29155
1.28834
1.28432
1.27997
1.49997
1.5
1.49993
1.5
1.5
1.49947
1.49353
1.4878
1.47783
1.4785
1.4884
1.4977
1.48431
1.3844
1.38392
1.39785
1.34531
1.32622
1.31777
1.3113
1.30492
1.29917
1.29285
1.28685
1.28056
1.5
1.5
1.49993
1.5
1.49988
1.5
1.49278
1.49206
1.47194
1.48737
1.47585
1.49512
1.49965
1.40449
1.37686
1.39909
1.34524
1.32004
1.31314
1.30696
1.30134
1.29611
1.29009
1.28433
1.27788
1.5
1.5
1.5
1.5
1.5
1.5
1.49075
1.48407
1.47358
1.46904
1.45909
1.45614
1.44618
1.44348
1.43521
1.43331
1.4224
1.42053
1.41105
1.40958
1.40098
1.39829
1.3938
1.37663
1.39688
1.5
1.5
1.5
1.5
1.49999
1.5
1.49058
1.48391
1.47368
1.46862
1.45897
1.45622
1.44579
1.44408
1.43537
1.43273
1.42215
1.42069
1.41122
1.4098
1.40113
1.39858
1.39399
1.37738
1.39667
1.5
1.5
1.5
1.5
1.49998
1.5
1.49049
1.48413
1.47346
1.46864
1.45918
1.45552
1.44708
1.44441
1.43375
1.43271
1.4232
1.42114
1.41118
1.40963
1.40077
1.39918
1.38971
1.39903
1.3637
1.5
1.5
1.5
1.49999
1.5
1.49997
1.49058
1.48392
1.47358
1.46863
1.45893
1.45531
1.44701
1.44467
1.43343
1.43175
1.42245
1.42088
1.41083
1.40919
1.4004
1.39809
1.39371
1.3771
1.39649
1.5
1.5
1.5
1.49999
1.5
1.49997
1.49059
1.4839
1.47349
1.46876
1.45865
1.45525
1.44707
1.44488
1.43379
1.43179
1.42193
1.42077
1.41106
1.41002
1.40112
1.39956
1.39223
1.38966
1.38028
1.5
1.5
1.49999
1.5
1.49999
1.5
1.49036
1.48408
1.47343
1.46861
1.45901
1.45538
1.44704
1.44439
1.43374
1.4326
1.42274
1.42115
1.41133
1.41008
1.40118
1.39929
1.3919
1.38926
1.37963
1.5
1.49999
1.5
1.5
1.49999
1.5
1.4905
1.48404
1.47353
1.46863
1.45892
1.45547
1.44708
1.44409
1.43325
1.43224
1.42258
1.42056
1.41043
1.40896
1.4003
1.39809
1.39361
1.37737
1.39587
1.49999
1.5
1.49999
1.5
1.5
1.49995
1.49054
1.48383
1.47357
1.46862
1.45863
1.45595
1.44736
1.44394
1.43358
1.43213
1.42228
1.4207
1.4111
1.40972
1.40091
1.39931
1.38983
1.39913
1.36384
1.5
1.5
1.5
1.5
1.5
1.49999
1.49068
1.48392
1.47369
1.46868
1.45863
1.45588
1.44721
1.44382
1.43328
1.43236
1.42296
1.42094
1.41087
1.40919
1.4003
1.39875
1.38941
1.39885
1.36302
1.5
1.5
1.49999
1.5
1.49999
1.5
1.49049
1.4841
1.47345
1.46876
1.45879
1.45612
1.44723
1.44369
1.43399
1.43312
1.42304
1.42103
1.41139
1.4098
1.40103
1.39921
1.38986
1.39926
1.36312
1.5
1.5
1.5
1.49999
1.5
1.49997
1.4906
1.48386
1.47358
1.46867
1.45864
1.45618
1.44711
1.44366
1.43344
1.43245
1.42255
1.42097
1.41101
1.40971
1.40076
1.39909
1.39179
1.38916
1.37961
1.5
1.5
1.5
1.49999
1.5
1.49996
1.49065
1.48383
1.47361
1.4687
1.45867
1.45607
1.44725
1.44368
1.4335
1.43214
1.4222
1.42047
1.41083
1.40927
1.40061
1.398
1.39344
1.37656
1.39636
1.5
1.5
1.5
1.49999
1.5
1.49997
1.4906
1.48387
1.47359
1.46863
1.45866
1.45587
1.44712
1.44341
1.43313
1.4323
1.42281
1.42068
1.41066
1.409
1.40045
1.39811
1.39386
1.37688
1.39709
1.5
1.5
1.5
1.49999
1.5
1.49997
1.49062
1.48385
1.47357
1.46864
1.45858
1.45607
1.44712
1.44351
1.43325
1.43213
1.42236
1.42072
1.41097
1.40961
1.40101
1.39882
1.39431
1.37765
1.39736
1.5
1.5
1.49999
1.5
1.49999
1.5
1.49038
1.48409
1.47335
1.46877
1.45896
1.45602
1.44689
1.44363
1.43392
1.43303
1.4225
1.42096
1.41113
1.41004
1.40097
1.39921
1.39168
1.38908
1.38001
1.5
1.5
1.49999
1.5
1.49998
1.5
1.49037
1.48412
1.47331
1.46881
1.45895
1.45606
1.44679
1.4436
1.43411
1.4329
1.42243
1.42122
1.41152
1.4105
1.40132
1.39955
1.39192
1.3883
1.38041
1.5
1.5
1.49999
1.5
1.49999
1.5
1.49044
1.48397
1.47345
1.46874
1.45893
1.45628
1.44643
1.44323
1.43446
1.43294
1.42264
1.42116
1.41165
1.41028
1.40143
1.39981
1.39022
1.39978
1.36367
1.5
1.49999
1.5
1.5
1.49999
1.5
1.49057
1.48402
1.47348
1.46865
1.45907
1.45626
1.44589
1.44313
1.43446
1.433
1.42195
1.42019
1.41043
1.4093
1.4005
1.39924
1.38989
1.39969
1.36393
1.5
1.5
1.49999
1.5
1.5
1.49997
1.49056
1.48381
1.47362
1.46867
1.45875
1.45626
1.4464
1.44319
1.43409
1.43258
1.422
1.42055
1.41086
1.40965
1.40071
1.39881
1.39167
1.38759
1.38042
1.5
1.5
1.49999
1.5
1.49998
1.5
1.49087
1.48423
1.47383
1.46905
1.4593
1.4563
1.44701
1.44357
1.43439
1.43281
1.42233
1.42073
1.41138
1.40997
1.4012
1.3993
1.38983
1.39927
1.36319
1.5
1.5
1.5
1.5
1.5
1.5
1.49043
1.48394
1.4732
1.46847
1.45818
1.45493
1.44488
1.44287
1.43306
1.43198
1.42239
1.42188
1.41286
1.41234
1.40447
1.40267
1.39925
1.38215
1.40453
1.5
1.5
1.5
1.5
1.5
1.5
1.49032
1.48387
1.47309
1.4684
1.45806
1.45488
1.44476
1.44285
1.43292
1.43195
1.42225
1.42188
1.41272
1.41236
1.40431
1.40275
1.39895
1.38271
1.4036
1.5
1.5
1.5
1.5
1.5
1.5
1.49032
1.48387
1.47308
1.4684
1.45806
1.45487
1.44479
1.44283
1.4329
1.43194
1.42227
1.42186
1.41271
1.41234
1.40418
1.40345
1.39488
1.40489
1.37045
1.5
1.5
1.5
1.5
1.5
1.5
1.49032
1.48387
1.47309
1.46839
1.45806
1.45485
1.44479
1.44283
1.4329
1.4319
1.42228
1.42183
1.41274
1.41225
1.40433
1.40262
1.39904
1.38265
1.40322
1.5
1.5
1.5
1.5
1.5
1.5
1.49029
1.48389
1.47304
1.46843
1.458
1.4549
1.44472
1.44289
1.43282
1.43199
1.42216
1.42194
1.41259
1.41244
1.40412
1.40324
1.39684
1.39341
1.38723
1.5
1.5
1.5
1.5
1.5
1.5
1.4903
1.48388
1.47307
1.46841
1.45804
1.45488
1.44476
1.44284
1.43288
1.43195
1.42224
1.42187
1.41269
1.41237
1.40417
1.4035
1.39479
1.40525
1.36977
1.5
1.5
1.5
1.5
1.5
1.5
1.49031
1.48388
1.47308
1.4684
1.45805
1.45488
1.44477
1.44284
1.43287
1.43194
1.42224
1.42187
1.41266
1.41234
1.40412
1.40347
1.39481
1.40503
1.37028
1.5
1.5
1.5
1.5
1.5
1.5
1.49033
1.48386
1.4731
1.46839
1.45806
1.45486
1.4448
1.44281
1.43292
1.43191
1.42228
1.42182
1.41274
1.41228
1.40436
1.40263
1.39913
1.38248
1.40361
1.5
1.5
1.5
1.5
1.5
1.5
1.49033
1.48386
1.4731
1.46839
1.45807
1.45486
1.4448
1.44281
1.43291
1.43192
1.4223
1.42185
1.41274
1.41227
1.40432
1.40265
1.39903
1.3826
1.40342
1.5
1.5
1.5
1.5
1.5
1.5
1.49032
1.48387
1.47309
1.46839
1.45807
1.45487
1.44479
1.44281
1.43292
1.43192
1.4223
1.42184
1.41277
1.41231
1.40424
1.4034
1.39493
1.40494
1.37013
1.5
1.5
1.5
1.5
1.5
1.5
1.49029
1.48388
1.47305
1.46842
1.458
1.45491
1.44472
1.44288
1.43282
1.432
1.42218
1.42194
1.41259
1.41242
1.4041
1.4032
1.39673
1.39465
1.38625
1.5
1.5
1.5
1.5
1.5
1.5
1.49032
1.48387
1.47308
1.4684
1.45804
1.45488
1.44477
1.44283
1.43289
1.43194
1.42224
1.42185
1.41268
1.41231
1.40426
1.40269
1.39896
1.38251
1.40386
1.5
1.5
1.5
1.5
1.5
1.5
1.49033
1.48386
1.4731
1.46838
1.45807
1.45486
1.4448
1.4428
1.43291
1.43191
1.4223
1.42183
1.41273
1.41225
1.40431
1.40265
1.39903
1.3825
1.40382
1.5
1.5
1.5
1.5
1.5
1.5
1.49033
1.48386
1.4731
1.46839
1.45806
1.45486
1.44479
1.44281
1.43291
1.43191
1.42228
1.42183
1.41272
1.41227
1.40433
1.40268
1.39906
1.38253
1.40385
1.5
1.5
1.5
1.5
1.5
1.5
1.4903
1.48388
1.47307
1.46841
1.45803
1.45489
1.44474
1.44284
1.43287
1.43197
1.42221
1.42189
1.41267
1.41237
1.40428
1.40277
1.39892
1.38281
1.40343
1.5
1.5
1.5
1.5
1.5
1.5
1.4903
1.48388
1.47307
1.46841
1.45804
1.45489
1.44474
1.44284
1.43288
1.43196
1.42222
1.42189
1.41269
1.41241
1.40416
1.40354
1.39476
1.40524
1.36999
1.5
1.5
1.5
1.5
1.5
1.5
1.4903
1.48388
1.47307
1.46841
1.45804
1.45489
1.44474
1.44284
1.43289
1.43196
1.42223
1.4219
1.41268
1.41241
1.40414
1.40354
1.39478
1.40531
1.36974
1.5
1.5
1.5
1.5
1.5
1.5
1.49031
1.48388
1.47307
1.4684
1.45805
1.45489
1.44473
1.44284
1.43289
1.43197
1.42223
1.42187
1.41267
1.41234
1.40421
1.40306
1.39706
1.39305
1.38747
1.5
1.5
1.5
1.5
1.5
1.5
1.49032
1.48387
1.47309
1.4684
1.45806
1.45489
1.44478
1.44283
1.43293
1.43194
1.42228
1.42184
1.41276
1.4123
1.40439
1.40266
1.3991
1.38257
1.40348
1.5
1.5
1.5
1.5
1.5
1.5
1.49058
1.48417
1.47334
1.4687
1.4583
1.45518
1.44499
1.44313
1.43312
1.43225
1.42243
1.42218
1.41288
1.4127
1.40439
1.40346
1.39694
1.39486
1.38657
1.5
1.5
1.5
1.5
1.5
1.5
1.49039
1.48395
1.47314
1.46846
1.4581
1.45491
1.44479
1.44283
1.4329
1.43189
1.42224
1.42179
1.41271
1.41226
1.40437
1.40268
1.3992
1.38246
1.4042
1.5
1.5
1.5
1.5
1.5
1.5
1.49026
1.48389
1.47301
1.46842
1.45796
1.45488
1.44463
1.44283
1.43272
1.43193
1.42203
1.42187
1.41246
1.4124
1.404
1.40327
1.39664
1.39463
1.38704
1.5
1.5
1.5
1.5
1.5
1.5
1.49029
1.48387
1.47305
1.46839
1.45801
1.45483
1.44469
1.44277
1.4328
1.43183
1.42213
1.42174
1.4126
1.41222
1.40425
1.40266
1.39904
1.38276
1.40342
1.5
1.5
1.5
1.5
1.5
1.5
1.4903
1.48387
1.47306
1.46838
1.45802
1.45482
1.44471
1.44274
1.43283
1.4318
1.42217
1.4217
1.41265
1.41219
1.40417
1.40336
1.39488
1.40508
1.37011
1.5
1.5
1.5
1.5
1.5
1.5
1.49028
1.48388
1.47303
1.4684
1.45798
1.45485
1.44466
1.44279
1.43276
1.43186
1.4221
1.42177
1.41257
1.41226
1.40415
1.40307
1.39682
1.39474
1.38582
1.5
1.5
1.5
1.5
1.5
1.5
1.49026
1.48389
1.47301
1.46841
1.45796
1.45487
1.44463
1.44281
1.43273
1.43189
1.42205
1.42182
1.4125
1.41233
1.40406
1.40314
1.39689
1.39338
1.38726
1.5
1.5
1.5
1.5
1.5
1.5
1.49027
1.48388
1.47303
1.4684
1.45798
1.45485
1.44466
1.44279
1.43276
1.43186
1.42209
1.42178
1.41255
1.41228
1.40413
1.40307
1.397
1.39315
1.38753
1.5
1.5
1.5
1.5
1.5
1.5
1.4903
1.48387
1.47306
1.46838
1.45802
1.45482
1.44471
1.44275
1.43282
1.43181
1.42217
1.42171
1.41264
1.41218
1.4043
1.40262
1.39908
1.38257
1.40378
1.5
1.5
1.5
1.5
1.5
1.5
1.49031
1.48386
1.47307
1.46837
1.45804
1.45481
1.44473
1.44274
1.43284
1.4318
1.42218
1.4217
1.41266
1.41217
1.40431
1.4026
1.39914
1.38231
1.40443
1.5
1.5
1.5
1.5
1.5
1.5
1.4903
1.48387
1.47306
1.46838
1.45802
1.45482
1.44471
1.44275
1.43282
1.43181
1.42216
1.42171
1.41264
1.41218
1.40431
1.40261
1.39908
1.38272
1.40332
1.5
1.5
1.5
1.5
1.5
1.5
1.49026
1.48389
1.47301
1.46841
1.45796
1.45487
1.44464
1.44281
1.43273
1.4319
1.42205
1.42183
1.41249
1.41235
1.40405
1.40318
1.39682
1.39343
1.3873
1.5
1.5
1.5
1.5
1.5
1.5
1.49028
1.48388
1.47304
1.46839
1.45799
1.45484
1.44467
1.44278
1.43278
1.43185
1.42211
1.42176
1.41258
1.41225
1.40416
1.40307
1.39679
1.39474
1.38591
1.5
1.5
1.5
1.5
1.5
1.5
1.4903
1.48387
1.47306
1.46838
1.45802
1.45482
1.44471
1.44275
1.43282
1.43181
1.42216
1.42172
1.41263
1.41222
1.40415
1.40338
1.39489
1.40506
1.37024
1.5
1.5
1.5
1.5
1.5
1.5
1.4903
1.48387
1.47306
1.46838
1.45802
1.45482
1.44471
1.44275
1.43282
1.43181
1.42216
1.42171
1.41264
1.4122
1.40417
1.40336
1.39494
1.40497
1.37031
1.5
1.5
1.5
1.5
1.5
1.5
1.49027
1.48389
1.47301
1.46841
1.45796
1.45487
1.44463
1.44282
1.43272
1.4319
1.42204
1.42184
1.41248
1.41236
1.40403
1.4032
1.3967
1.39466
1.38662
1.5
1.5
1.5
1.5
1.5
1.5
1.49027
1.48388
1.47302
1.4684
1.45798
1.45486
1.44465
1.44279
1.43275
1.43187
1.42208
1.42179
1.41254
1.41229
1.40412
1.40308
1.397
1.39317
1.3875
1.5
1.5
1.5
1.5
1.5
1.5
1.49027
1.48388
1.47302
1.46841
1.45797
1.45486
1.44465
1.4428
1.43274
1.43188
1.42206
1.42181
1.41251
1.41232
1.40408
1.40314
1.39689
1.39337
1.38728
1.5
1.5
1.5
1.5
1.5
1.5
1.4903
1.48387
1.47306
1.46838
1.45802
1.45482
1.44471
1.44274
1.43282
1.4318
1.42217
1.4217
1.41266
1.41216
1.40434
1.40257
1.39912
1.38264
1.40333
1.5
1.5
1.5
1.5
1.5
1.5
1.49029
1.48388
1.47305
1.4684
1.45801
1.45485
1.4447
1.44279
1.43281
1.43186
1.42215
1.42177
1.41262
1.41226
1.40422
1.40306
1.39709
1.39297
1.38795
1.5
1.5
1.5
1.5
1.5
1.5
1.49058
1.48415
1.47334
1.46866
1.45829
1.4551
1.44497
1.44302
1.43308
1.43208
1.42241
1.42198
1.41288
1.41245
1.40453
1.40288
1.39933
1.38283
1.40391
1.5
1.5
1.5
1.5
1.5
1.5
1.49036
1.48396
1.47311
1.46848
1.45806
1.45493
1.44473
1.44286
1.43282
1.43194
1.42214
1.42186
1.41258
1.41237
1.40414
1.40319
1.39692
1.39337
1.38745
1.5
1.5
1.5
1.5
1.5
1.5
1.49028
1.48388
1.47303
1.46839
1.45799
1.45484
1.44467
1.44277
1.43277
1.43183
1.42211
1.42174
1.41258
1.41222
1.40418
1.40298
1.39709
1.39289
1.38785
1.5
1.5
1.5
1.5
1.5
1.5
1.49029
1.48387
1.47305
1.46838
1.458
1.45482
1.44469
1.44275
1.43279
1.43181
1.42213
1.42171
1.4126
1.41218
1.40425
1.40263
1.39897
1.3828
1.40324
1.5
1.5
1.5
1.5
1.5
1.5
1.49029
1.48387
1.47305
1.46838
1.458
1.45482
1.44468
1.44275
1.43279
1.43181
1.42212
1.42172
1.41258
1.41223
1.40408
1.40341
1.39477
1.40527
1.36983
1.5
1.5
1.5
1.5
1.5
1.5
1.4903
1.48386
1.47306
1.46837
1.45802
1.45481
1.4447
1.44273
1.43282
1.43178
1.42216
1.42167
1.41264
1.41215
1.40418
1.4033
1.39492
1.40518
1.36952
1.5
1.5
1.5
1.5
1.5
1.5
1.49026
1.48388
1.47301
1.46841
1.45795
1.45486
1.44462
1.4428
1.43271
1.43188
1.42203
1.42181
1.41247
1.41232
1.40403
1.40315
1.39671
1.39465
1.38639
1.5
1.5
1.5
1.5
1.5
1.5
1.49027
1.48388
1.47302
1.4684
1.45796
1.45485
1.44464
1.44279
1.43273
1.43186
1.42205
1.42179
1.4125
1.41229
1.40407
1.4031
1.39689
1.39326
1.38741
1.5
1.5
1.5
1.5
1.5
1.5
1.49029
1.48387
1.47305
1.46838
1.458
1.45482
1.44469
1.44275
1.43279
1.4318
1.42213
1.42171
1.4126
1.4122
1.40412
1.40336
1.39488
1.40492
1.37048
1.5
1.5
1.5
1.5
1.5
1.5
1.4903
1.48386
1.47306
1.46837
1.45801
1.45481
1.4447
1.44274
1.43281
1.4318
1.42214
1.4217
1.41261
1.41217
1.40426
1.40261
1.39904
1.38263
1.40359
1.5
1.5
1.5
1.5
1.5
1.5
1.49029
1.48387
1.47304
1.46838
1.458
1.45483
1.44468
1.44275
1.43278
1.43182
1.42211
1.42173
1.41257
1.41224
1.40407
1.40343
1.39475
1.40517
1.37019
1.5
1.5
1.5
1.5
1.5
1.5
1.4903
1.48386
1.47305
1.46837
1.45801
1.45482
1.44469
1.44274
1.4328
1.4318
1.42214
1.4217
1.4126
1.4122
1.40411
1.40338
1.39479
1.40538
1.36941
1.5
1.5
1.5
1.5
1.5
1.5
1.4903
1.48386
1.47306
1.46837
1.45802
1.45481
1.4447
1.44273
1.43281
1.43178
1.42216
1.42168
1.41263
1.41216
1.40417
1.4033
1.39496
1.40498
1.37004
1.5
1.5
1.5
1.5
1.5
1.5
1.4903
1.48386
1.47306
1.46837
1.45802
1.45481
1.44471
1.44273
1.43281
1.43179
1.42215
1.42169
1.41262
1.41216
1.40428
1.40257
1.39913
1.38251
1.40374
1.5
1.5
1.5
1.5
1.5
1.5
1.49031
1.48386
1.47307
1.46837
1.45803
1.4548
1.44471
1.44272
1.43282
1.43178
1.42216
1.42168
1.41263
1.41215
1.40429
1.40257
1.39912
1.3824
1.40407
1.5
1.5
1.5
1.5
1.5
1.5
1.4903
1.48386
1.47306
1.46837
1.45801
1.45481
1.4447
1.44273
1.43281
1.43179
1.42215
1.42169
1.41263
1.41215
1.40429
1.40257
1.39911
1.38242
1.404
1.5
1.5
1.5
1.5
1.5
1.5
1.4903
1.48386
1.47305
1.46837
1.45801
1.45481
1.4447
1.44273
1.43281
1.43178
1.42215
1.42168
1.41263
1.41214
1.4043
1.40256
1.39907
1.38259
1.40348
1.5
1.5
1.5
1.5
1.5
1.5
1.49029
1.48387
1.47305
1.46838
1.458
1.45482
1.44469
1.44275
1.43279
1.43181
1.42212
1.42172
1.41258
1.41222
1.40409
1.4034
1.39481
1.40509
1.37027
1.5
1.5
1.5
1.5
1.5
1.5
1.49029
1.48387
1.47305
1.46838
1.45801
1.45482
1.44469
1.44275
1.43279
1.43181
1.42213
1.42171
1.4126
1.41221
1.40411
1.40338
1.39485
1.40511
1.37007
1.5
1.5
1.5
1.5
1.5
1.5
1.49028
1.48388
1.47304
1.4684
1.45799
1.45485
1.44468
1.44279
1.43278
1.43186
1.42211
1.42177
1.41258
1.41227
1.40417
1.40308
1.39683
1.39475
1.38584
1.5
1.5
1.5
1.5
1.5
1.5
1.49059
1.48414
1.47335
1.46864
1.4583
1.45508
1.44499
1.44299
1.43309
1.43203
1.42244
1.42192
1.41291
1.4124
1.40443
1.40355
1.39513
1.4054
1.37
1.5
1.5
1.5
1.5
1.5
1.5
1.49038
1.48395
1.47313
1.46845
1.45809
1.45489
1.44477
1.44281
1.43287
1.43187
1.4222
1.42178
1.41266
1.41227
1.40417
1.40345
1.39485
1.40537
1.36978
1.5
1.5
1.5
1.5
1.5
1.5
1.4903
1.48387
1.47305
1.46838
1.45801
1.45482
1.44469
1.44274
1.4328
1.4318
1.42214
1.4217
1.41261
1.41217
1.40427
1.40259
1.39906
1.38266
1.40339
1.5
1.5
1.5
1.5
1.5
1.5
1.49029
1.48387
1.47304
1.46838
1.45799
1.45482
1.44467
1.44275
1.43277
1.43181
1.4221
1.42173
1.41256
1.41223
1.40405
1.40342
1.39474
1.40516
1.37018
1.5
1.5
1.5
1.5
1.5
1.5
1.49026
1.48388
1.473
1.4684
1.45795
1.45486
1.44461
1.4428
1.4327
1.43189
1.422
1.42182
1.41244
1.41234
1.40398
1.40318
1.39675
1.39358
1.38691
1.5
1.5
1.5
1.5
1.5
1.5
1.49029
1.48387
1.47304
1.46838
1.45799
1.45482
1.44467
1.44275
1.43277
1.43181
1.4221
1.42172
1.41256
1.41222
1.40407
1.40338
1.39486
1.40497
1.37041
1.5
1.5
1.5
1.5
1.5
1.5
1.49029
1.48386
1.47305
1.46837
1.458
1.45481
1.44468
1.44274
1.43279
1.4318
1.42212
1.4217
1.41259
1.41217
1.40424
1.40259
1.39908
1.38247
1.40392
1.5
1.5
1.5
1.5
1.5
1.5
1.49029
1.48387
1.47304
1.46837
1.458
1.45482
1.44468
1.44274
1.43278
1.4318
1.42211
1.42171
1.41258
1.41218
1.40423
1.40262
1.39902
1.38249
1.40398
1.5
1.5
1.5
1.5
1.5
1.5
1.49027
1.48387
1.47302
1.46839
1.45797
1.45484
1.44465
1.44277
1.43274
1.43185
1.42206
1.42177
1.41251
1.41227
1.40407
1.4031
1.39672
1.39466
1.38623
1.5
1.5
1.5
1.5
1.5
1.5
1.4903
1.48386
1.47305
1.46837
1.45801
1.45481
1.44469
1.44273
1.4328
1.43178
1.42214
1.42168
1.41261
1.41214
1.40427
1.40256
1.3991
1.3824
1.40399
1.5
1.5
1.5
1.5
1.5
1.5
1.49026
1.48388
1.473
1.4684
1.45795
1.45486
1.44461
1.44281
1.43269
1.43189
1.422
1.42183
1.41243
1.41236
1.40396
1.40321
1.39668
1.39363
1.38695
1.5
1.5
1.5
1.5
1.5
1.5
1.49028
1.48387
1.47303
1.46838
1.45799
1.45482
1.44467
1.44275
1.43277
1.43181
1.4221
1.42172
1.41256
1.41221
1.40408
1.40338
1.39481
1.40517
1.3699
1.5
1.5
1.5
1.5
1.5
1.5
1.49027
1.48388
1.47302
1.46839
1.45797
1.45484
1.44464
1.44278
1.43274
1.43185
1.42206
1.42177
1.41251
1.41227
1.40407
1.40309
1.39676
1.39467
1.38607
1.5
1.5
1.5
1.5
1.5
1.5
1.49029
1.48386
1.47305
1.46837
1.458
1.45481
1.44469
1.44274
1.43279
1.4318
1.42212
1.4217
1.41259
1.41218
1.40423
1.40262
1.399
1.3826
1.40375
1.5
1.5
1.5
1.5
1.5
1.5
1.4903
1.48386
1.47306
1.46836
1.45802
1.45479
1.44471
1.44271
1.43282
1.43176
1.42217
1.42165
1.41266
1.4121
1.40433
1.40251
1.39914
1.38235
1.4039
1.5
1.5
1.5
1.5
1.5
1.5
1.49028
1.48387
1.47303
1.46838
1.45798
1.45483
1.44466
1.44276
1.43275
1.43183
1.42208
1.42174
1.41254
1.41223
1.40412
1.40303
1.39695
1.39303
1.38772
1.5
1.5
1.5
1.5
1.5
1.5
1.49028
1.48387
1.47303
1.46839
1.45798
1.45484
1.44465
1.44277
1.43275
1.43184
1.42207
1.42175
1.41252
1.41225
1.40409
1.40306
1.39691
1.39315
1.38755
1.5
1.5
1.5
1.5
1.5
1.5
1.4903
1.48386
1.47306
1.46836
1.45801
1.4548
1.4447
1.44271
1.43282
1.43176
1.42217
1.42165
1.41265
1.4121
1.40433
1.40249
1.39917
1.38249
1.40338
1.5
1.5
1.5
1.5
1.5
1.5
1.49028
1.48387
1.47303
1.46838
1.45798
1.45483
1.44466
1.44276
1.43276
1.43182
1.42209
1.42173
1.41255
1.41222
1.40413
1.40301
1.397
1.39304
1.38763
1.5
1.5
1.5
1.5
1.5
1.5
1.49027
1.48388
1.47303
1.4684
1.45798
1.45485
1.44466
1.44279
1.43276
1.43186
1.42209
1.42178
1.41255
1.41227
1.40413
1.40307
1.397
1.39312
1.38762
1.5
1.5
1.5
1.5
1.5
1.5
1.49057
1.48415
1.47332
1.46866
1.45826
1.4551
1.44494
1.44302
1.43303
1.43208
1.42236
1.42198
1.41282
1.41246
1.4044
1.40326
1.39705
1.39497
1.38592
1.5
1.5
1.5
1.5
1.5
1.5
1.49037
1.48395
1.47312
1.46846
1.45808
1.4549
1.44475
1.44282
1.43285
1.43188
1.42218
1.42179
1.41263
1.41229
1.40414
1.40347
1.39484
1.40535
1.36987
1.5
1.5
1.5
1.5
1.5
1.5
1.49028
1.48387
1.47304
1.46838
1.45799
1.45483
1.44467
1.44276
1.43277
1.43182
1.42209
1.42174
1.41255
1.41222
1.40419
1.40267
1.39893
1.38283
1.40333
1.5
1.5
1.5
1.5
1.5
1.5
1.49029
1.48386
1.47304
1.46837
1.45799
1.45481
1.44467
1.44274
1.43277
1.4318
1.42211
1.4217
1.41257
1.4122
1.40409
1.40336
1.39483
1.4051
1.37002
1.5
1.5
1.5
1.5
1.5
1.5
1.49027
1.48387
1.47302
1.46839
1.45797
1.45484
1.44464
1.44277
1.43274
1.43183
1.42206
1.42175
1.41252
1.41224
1.4041
1.40303
1.39697
1.3931
1.3875
1.5
1.5
1.5
1.5
1.5
1.5
1.4903
1.48386
1.47305
1.46836
1.45801
1.4548
1.4447
1.44272
1.4328
1.43177
1.42214
1.42167
1.41262
1.41214
1.40428
1.40254
1.39913
1.3824
1.40389
1.5
1.5
1.5
1.5
1.5
1.5
1.4903
1.48386
1.47305
1.46836
1.45801
1.4548
1.44469
1.44272
1.4328
1.43178
1.42213
1.42169
1.4126
1.41216
1.40425
1.4026
1.39901
1.38251
1.4039
1.5
1.5
1.5
1.5
1.5
1.5
1.49029
1.48386
1.47305
1.46837
1.458
1.45481
1.44468
1.44273
1.43278
1.43179
1.42212
1.4217
1.41258
1.41218
1.40422
1.40263
1.39894
1.38275
1.4034
1.5
1.5
1.5
1.5
1.5
1.5
1.49029
1.48386
1.47305
1.46837
1.458
1.45481
1.44469
1.44273
1.43279
1.43179
1.42213
1.42169
1.41259
1.41218
1.40411
1.40334
1.39484
1.40503
1.37016
1.5
1.5
1.5
1.5
1.5
1.5
1.4903
1.48386
1.47305
1.46837
1.45801
1.45481
1.44469
1.44273
1.43279
1.43179
1.42213
1.42169
1.4126
1.41216
1.40424
1.40259
1.39903
1.38261
1.40358
1.5
1.5
1.5
1.5
1.5
1.5
1.49028
1.48387
1.47302
1.46838
1.45797
1.45483
1.44465
1.44276
1.43274
1.43183
1.42207
1.42175
1.41252
1.41226
1.40401
1.40344
1.39475
1.40502
1.37057
1.5
1.5
1.5
1.5
1.5
1.5
1.49026
1.48388
1.47301
1.46839
1.45796
1.45484
1.44463
1.44278
1.43272
1.43185
1.42204
1.42177
1.41249
1.41227
1.40406
1.40307
1.39691
1.39325
1.38728
1.5
1.5
1.5
1.5
1.5
1.5
1.49027
1.48388
1.47302
1.46839
1.45796
1.45484
1.44464
1.44277
1.43273
1.43183
1.42206
1.42174
1.41252
1.41223
1.4041
1.40305
1.39675
1.39469
1.3859
1.5
1.5
1.5
1.5
1.5
1.5
1.49028
1.48387
1.47303
1.46838
1.45798
1.45482
1.44466
1.44275
1.43276
1.43182
1.42208
1.42173
1.41254
1.41223
1.40405
1.4034
1.3948
1.40498
1.37047
1.5
1.5
1.5
1.5
1.5
1.5
1.49026
1.48388
1.47301
1.46839
1.45795
1.45485
1.44462
1.44279
1.43271
1.43186
1.42202
1.42179
1.41246
1.4123
1.40401
1.40313
1.39679
1.39341
1.38719
1.5
1.5
1.5
1.5
1.5
1.5
1.49025
1.48388
1.473
1.4684
1.45794
1.45486
1.4446
1.4428
1.43269
1.43188
1.422
1.42181
1.41244
1.41232
1.40399
1.40315
1.39676
1.39343
1.38717
1.5
1.5
1.5
1.5
1.5
1.5
1.49028
1.48387
1.47303
1.46838
1.45797
1.45483
1.44465
1.44276
1.43275
1.43182
1.42207
1.42174
1.41252
1.41225
1.40402
1.40344
1.3947
1.40529
1.36991
1.5
1.5
1.5
1.5
1.5
1.5
1.49027
1.48387
1.47302
1.46839
1.45797
1.45483
1.44465
1.44276
1.43274
1.43183
1.42207
1.42174
1.41253
1.41223
1.40411
1.40302
1.39697
1.39306
1.38759
1.5
1.5
1.5
1.5
1.5
1.5
1.4903
1.48386
1.47306
1.46836
1.45802
1.4548
1.4447
1.44271
1.43281
1.43176
1.42215
1.42166
1.41263
1.41212
1.4043
1.40253
1.39915
1.38231
1.40406
1.5
1.5
1.5
1.5
1.5
1.5
1.4903
1.48386
1.47306
1.46837
1.45802
1.45481
1.44471
1.44274
1.43282
1.43179
1.42217
1.42169
1.41265
1.41215
1.40432
1.40258
1.39909
1.38261
1.40351
1.5
1.5
1.5
1.5
1.5
1.5
1.49059
1.48414
1.47334
1.46864
1.45829
1.45507
1.44497
1.44299
1.43307
1.43204
1.4224
1.42194
1.41286
1.41242
1.40437
1.40359
1.39508
1.40534
1.37029
1.5
1.5
1.5
1.5
1.5
1.5
1.49036
1.48396
1.47311
1.46848
1.45806
1.45493
1.44474
1.44286
1.43283
1.43193
1.42216
1.42185
1.41262
1.41234
1.4042
1.40313
1.39707
1.39322
1.38757
1.5
1.5
1.5
1.5
1.5
1.5
1.49026
1.48389
1.47301
1.46841
1.45796
1.45487
1.44463
1.44281
1.43272
1.43189
1.42205
1.42182
1.4125
1.41233
1.40406
1.40317
1.3967
1.39467
1.38649
1.5
1.5
1.5
1.5
1.5
1.5
1.49026
1.48388
1.47301
1.4684
1.45797
1.45485
1.44464
1.44279
1.43274
1.43186
1.42207
1.42178
1.41252
1.41228
1.4041
1.40309
1.39678
1.39471
1.38603
1.5
1.5
1.5
1.5
1.5
1.5
1.49027
1.48388
1.47302
1.4684
1.45797
1.45485
1.44464
1.44279
1.43274
1.43187
1.42206
1.42179
1.41251
1.4123
1.40408
1.40311
1.3969
1.39327
1.38741
1.5
1.5
1.5
1.5
1.5
1.5
1.4903
1.48386
1.47306
1.46837
1.45802
1.45481
1.4447
1.44274
1.43281
1.4318
1.42215
1.4217
1.41263
1.41217
1.40429
1.4026
1.39907
1.38256
1.40377
1.5
1.5
1.5
1.5
1.5
1.5
1.49029
1.48387
1.47305
1.46838
1.458
1.45483
1.44468
1.44276
1.43279
1.43182
1.42212
1.42174
1.41258
1.41225
1.40408
1.40345
1.39476
1.40519
1.37021
1.5
1.5
1.5
1.5
1.5
1.5
1.49029
1.48387
1.47304
1.46838
1.458
1.45483
1.44469
1.44275
1.43279
1.43182
1.42212
1.42173
1.41258
1.41224