/*--------------------------------*- C++ -*----------------------------------*\
  =========                 |
  \\      /  F ield         | OpenFOAM: The Open Source CFD Toolbox
   \\    /   O peration     | Website:  https://openfoam.org
    \\  /    A nd           | Version:  12
     \\/     M anipulation  |
\*---------------------------------------------------------------------------*/
FoamFile
{
    format      ascii;
    class       volScalarField;
    location    "250";
    object      p;
}
// * * * * * * * * * * * * * * * * * * * * * * * * * * * * * * * * * * * * * //

dimensions      [0 2 -2 0 0 0 0];

internalField   nonuniform List<scalar> 
5000
(
0.587256
0.431839
0.343316
0.309985
0.286229
0.261457
0.238738
0.219093
0.201496
0.185155
0.169729
0.155147
0.141253
0.127882
0.114938
0.10231
0.0899507
0.0777945
0.0657451
0.0537464
0.0418338
0.029948
0.0179475
0.00564321
-0.0112542
0.587015
0.432039
0.343349
0.309927
0.286224
0.261484
0.238765
0.219151
0.201582
0.185242
0.169808
0.15518
0.141242
0.127864
0.114904
0.102246
0.0898865
0.0777383
0.065673
0.053697
0.0418148
0.0299506
0.0179629
0.00564598
-0.011192
0.586989
0.432091
0.343346
0.309903
0.286222
0.261494
0.238772
0.219142
0.201568
0.18525
0.169838
0.155197
0.141241
0.127832
0.114814
0.102163
0.0898401
0.0776988
0.0656625
0.0537282
0.0418767
0.0300035
0.0179999
0.00567298
-0.0111759
0.586979
0.432094
0.343352
0.3099
0.286222
0.261494
0.238774
0.219134
0.201511
0.185147
0.169755
0.155195
0.141327
0.127952
0.114904
0.102193
0.0898137
0.0776477
0.065603
0.0536722
0.0418338
0.0300024
0.0180352
0.0057277
-0.0111318
0.586977
0.432097
0.343357
0.309898
0.286217
0.26149
0.238754
0.219073
0.201424
0.185077
0.169721
0.155185
0.141329
0.127968
0.114928
0.102213
0.0898359
0.0776511
0.0655967
0.0536643
0.0418317
0.0300125
0.0180548
0.00574447
-0.0111246
0.586976
0.432096
0.343356
0.309896
0.286212
0.261485
0.238751
0.219094
0.201502
0.185179
0.169776
0.155162
0.14126
0.127879
0.114851
0.102178
0.0898288
0.077669
0.0656334
0.053704
0.041842
0.0299938
0.0180142
0.00569561
-0.011139
0.586975
0.432095
0.343355
0.309895
0.28621
0.261482
0.238753
0.219112
0.201556
0.185272
0.169887
0.155258
0.14128
0.127806
0.114739
0.10208
0.0897593
0.0776207
0.0655951
0.0536757
0.0418488
0.0300239
0.0180309
0.00569432
-0.0111537
0.586973
0.432092
0.343353
0.309892
0.286207
0.261479
0.23874
0.21906
0.201426
0.185065
0.169691
0.155161
0.14129
0.127884
0.114845
0.102178
0.0898428
0.0777034
0.0656471
0.0536904
0.041836
0.0300017
0.0180304
0.00571152
-0.0111351
0.586969
0.432089
0.343349
0.309888
0.286202
0.261469
0.238738
0.219068
0.201432
0.185079
0.169702
0.155163
0.141281
0.127855
0.11479
0.102109
0.0897898
0.0776644
0.0656416
0.0537137
0.0418766
0.030053
0.0180882
0.0057616
-0.0111428
0.586965
0.432084
0.343345
0.309881
0.286193
0.261457
0.238714
0.219049
0.201383
0.184988
0.169611
0.155078
0.141194
0.127792
0.114799
0.102195
0.0898938
0.0777716
0.0657505
0.0537915
0.0419208
0.0300679
0.018081
0.00574596
-0.0111471
0.58696
0.432079
0.343338
0.309873
0.286182
0.261439
0.238685
0.218976
0.201292
0.184934
0.169607
0.15512
0.141274
0.127882
0.114865
0.102218
0.0898742
0.077732
0.0657071
0.0537755
0.0419316
0.0300986
0.0181239
0.00579157
-0.0111093
0.586954
0.432072
0.34333
0.309863
0.286168
0.261422
0.238656
0.218928
0.201232
0.18484
0.169493
0.155035
0.14125
0.127915
0.114932
0.102301
0.0899745
0.077835
0.0657776
0.0538163
0.0419516
0.0301035
0.0181194
0.0057777
-0.0111088
0.586946
0.432064
0.343321
0.309852
0.286155
0.261408
0.238653
0.218956
0.201288
0.184918
0.169558
0.155079
0.141287
0.127938
0.114921
0.102256
0.0899226
0.0777752
0.0657374
0.0537977
0.0419505
0.0301173
0.0181439
0.00580377
-0.0111177
0.586939
0.432056
0.343311
0.309841
0.286143
0.261394
0.238637
0.218928
0.201261
0.184927
0.169609
0.155142
0.141346
0.127999
0.114997
0.102334
0.0899511
0.0777697
0.0657165
0.0537686
0.0419174
0.0300844
0.0181075
0.00575535
-0.0111296
0.586931
0.432047
0.343301
0.309829
0.286128
0.26138
0.238615
0.218903
0.201247
0.184896
0.169525
0.155038
0.141272
0.127972
0.11503
0.102418
0.0900568
0.0778723
0.0658058
0.0538111
0.0419144
0.0300492
0.0180619
0.0057338
-0.0111216
0.586923
0.432039
0.343291
0.30982
0.286118
0.26137
0.238608
0.218905
0.201255
0.184904
0.169538
0.155059
0.141296
0.128005
0.11508
0.102467
0.0900932
0.0778955
0.0658136
0.0538017
0.0418892
0.030014
0.0180232
0.00570191
-0.0111359
0.586918
0.43203
0.343278
0.309811
0.286113
0.261361
0.238612
0.218939
0.201291
0.184953
0.169624
0.155154
0.141358
0.128035
0.115103
0.102472
0.0900637
0.0778402
0.0657433
0.0537553
0.0418684
0.0300118
0.0180298
0.00569573
-0.0111511
0.586922
0.43202
0.343265
0.309806
0.286104
0.261348
0.238588
0.218897
0.201272
0.184943
0.169592
0.155095
0.141289
0.127994
0.115105
0.102504
0.0901257
0.0779183
0.0658276
0.0538308
0.0418992
0.0299977
0.0179899
0.0056672
-0.0111514
0.586944
0.431964
0.343263
0.309825
0.2861
0.26133
0.238566
0.218863
0.201212
0.184894
0.169613
0.155194
0.14142
0.128109
0.115173
0.102536
0.0901453
0.0779114
0.0657887
0.0537726
0.0418557
0.0299712
0.0179771
0.00566619
-0.0111701
0.587183
0.431761
0.343227
0.309881
0.286102
0.261298
0.23854
0.218844
0.201204
0.184871
0.169543
0.155114
0.141376
0.128097
0.115174
0.102555
0.0901783
0.077974
0.0658703
0.0538282
0.0418846
0.0299799
0.0179708
0.0056622
-0.0112353
0.44074
0.376299
0.327609
0.305532
0.285579
0.264157
0.24405
0.2259
0.20906
0.19302
0.177616
0.162831
0.148655
0.13496
0.121627
0.108774
0.0963677
0.084086
0.0718513
0.0597245
0.0476973
0.0358394
0.024141
0.013029
0.00111324
0.440862
0.376401
0.327595
0.305452
0.285541
0.264148
0.244048
0.225908
0.209078
0.193054
0.17767
0.162884
0.148653
0.134918
0.121576
0.108737
0.0963329
0.0840553
0.0718305
0.0596662
0.0476562
0.0358231
0.0241397
0.0130341
0.00112224
0.440885
0.376414
0.327577
0.305427
0.285536
0.264152
0.244048
0.225899
0.20906
0.193032
0.177651
0.162905
0.148672
0.134891
0.121578
0.108733
0.0962998
0.084001
0.0717548
0.0596198
0.0476584
0.0358795
0.0241989
0.0130753
0.0011547
0.440889
0.376426
0.327583
0.305427
0.285534
0.264149
0.244039
0.225868
0.20899
0.192932
0.177552
0.16284
0.148654
0.134926
0.121633
0.108807
0.0963854
0.0840465
0.0717631
0.05961
0.0476362
0.0358378
0.024177
0.0130738
0.00114422
0.440891
0.37643
0.327586
0.305424
0.285527
0.26414
0.244016
0.225828
0.208945
0.192883
0.177535
0.162838
0.14866
0.134934
0.121629
0.108798
0.0963759
0.0840807
0.0717905
0.059632
0.0476572
0.0358502
0.0241899
0.0130925
0.00117432
0.440891
0.376431
0.327586
0.305422
0.285525
0.264138
0.244025
0.225859
0.209011
0.192974
0.17761
0.162872
0.148637
0.134901
0.121588
0.108738
0.0962967
0.0839914
0.0717393
0.0596196
0.0476856
0.0358748
0.0242063
0.0130929
0.00115765
0.440889
0.376429
0.327585
0.305421
0.285523
0.264137
0.244027
0.22587
0.20903
0.193001
0.177641
0.162912
0.148677
0.134891
0.121534
0.108673
0.0962279
0.0839328
0.0716982
0.0595783
0.0476323
0.0358585
0.024239
0.0131273
0.00117212
0.440887
0.376427
0.327582
0.305418
0.285519
0.26413
0.244007
0.225821
0.208944
0.192874
0.177481
0.162769
0.148592
0.13489
0.121601
0.108768
0.096343
0.0840581
0.0718345
0.0596777
0.0476854
0.0358686
0.0242021
0.0130895
0.00115265
0.440883
0.376424
0.327579
0.305414
0.285514
0.264123
0.243996
0.225788
0.208894
0.19283
0.17747
0.162766
0.148594
0.134904
0.121635
0.108801
0.0963281
0.0840231
0.0717847
0.0596564
0.0476843
0.0358797
0.0242205
0.0131171
0.00118827
0.440879
0.376419
0.327574
0.305408
0.285506
0.26411
0.243976
0.225767
0.208846
0.192777
0.177428
0.162745
0.148589
0.134883
0.121613
0.108788
0.0963745
0.0840941
0.071866
0.0597561
0.0477568
0.0359213
0.0242327
0.0131004
0.00116384
0.440874
0.376413
0.327567
0.305399
0.285494
0.26409
0.24394
0.225709
0.208781
0.192723
0.17738
0.162709
0.148583
0.134936
0.121687
0.108872
0.0964702
0.0841528
0.0718876
0.0597356
0.0477423
0.0359196
0.0242419
0.0131173
0.00116451
0.440867
0.376406
0.327559
0.30539
0.285481
0.264075
0.243923
0.225694
0.208772
0.192682
0.177305
0.162641
0.14854
0.134926
0.121699
0.108897
0.0964906
0.084203
0.0719676
0.0597946
0.0477822
0.0359442
0.0242536
0.0131215
0.00116445
0.44086
0.376399
0.32755
0.305379
0.28547
0.264063
0.243916
0.225687
0.208765
0.192688
0.177346
0.162682
0.14858
0.134975
0.121757
0.108944
0.0964767
0.0841537
0.0718883
0.0597344
0.0477462
0.0359279
0.0242582
0.0131475
0.00119796
0.440853
0.376391
0.327541
0.305368
0.285457
0.264047
0.243894
0.225665
0.208751
0.192708
0.177378
0.162719
0.148624
0.135018
0.121789
0.108972
0.0965459
0.0841945
0.0718985
0.0597296
0.0477265
0.035901
0.0242376
0.0131442
0.00119174
0.440845
0.376382
0.327531
0.305357
0.285444
0.264035
0.24389
0.225683
0.2088
0.192756
0.177393
0.162696
0.148607
0.135007
0.12177
0.108941
0.0965119
0.0841931
0.071926
0.0597917
0.047768
0.0359175
0.0242284
0.013106
0.00117712
0.440837
0.376373
0.327521
0.305347
0.285434
0.264026
0.243886
0.225687
0.208812
0.192772
0.177411
0.162714
0.148631
0.135035
0.121795
0.108971
0.0965448
0.0842174
0.0719367
0.0597895
0.0477538
0.0358939
0.0242006
0.0130803
0.00116566
0.440829
0.376362
0.327511
0.30534
0.285429
0.26402
0.243885
0.225687
0.208795
0.192762
0.177433
0.162771
0.14869
0.135094
0.121837
0.109014
0.096605
0.0842435
0.0719168
0.0597184
0.0476914
0.0358457
0.0241762
0.0130938
0.00117277
0.440818
0.376344
0.327497
0.305333
0.285421
0.26401
0.24387
0.225681
0.208813
0.192784
0.177454
0.162764
0.148649
0.135047
0.121786
0.108966
0.0965644
0.0842486
0.0719472
0.0597656
0.0477657
0.035899
0.0241951
0.0130753
0.00114444
0.440791
0.376326
0.327511
0.305354
0.285421
0.263996
0.243849
0.225648
0.208766
0.192727
0.177423
0.162781
0.148714
0.135119
0.121864
0.109035
0.0966196
0.0843111
0.071979
0.0597613
0.0477148
0.0358475
0.0241485
0.0130281
0.00112537
0.440667
0.376221
0.327522
0.30543
0.285456
0.264005
0.243862
0.225672
0.208803
0.192776
0.177435
0.162754
0.148687
0.135095
0.121847
0.10902
0.0965988
0.0842804
0.0719898
0.0598223
0.0477631
0.0358792
0.0241652
0.0130409
0.00111657
0.379278
0.36151
0.332262
0.306021
0.283755
0.263028
0.243627
0.225522
0.208526
0.192347
0.176876
0.162042
0.147756
0.13393
0.12028
0.107313
0.0951436
0.0829339
0.070662
0.0585472
0.0466579
0.0350342
0.0238087
0.0132861
0.00388383
0.379252
0.361465
0.332242
0.306009
0.283757
0.263042
0.243643
0.225537
0.208541
0.192364
0.176892
0.162055
0.147755
0.133915
0.120261
0.107301
0.0951354
0.0829274
0.0706584
0.0585405
0.0466572
0.0350414
0.0238195
0.0132957
0.00388989
0.379249
0.361458
0.332241
0.306006
0.28376
0.263047
0.243645
0.225533
0.20853
0.19235
0.176881
0.162054
0.147749
0.133897
0.120256
0.107298
0.0951192
0.0829065
0.0706391
0.058532
0.0466644
0.035063
0.0238437
0.0133138
0.0038984
0.379249
0.361455
0.332236
0.306001
0.283756
0.263044
0.243639
0.225519
0.208506
0.192322
0.17686
0.162046
0.147752
0.133904
0.120259
0.107307
0.0951337
0.0829106
0.0706337
0.0585253
0.0466614
0.0350635
0.0238505
0.0133221
0.00390058
0.379249
0.361454
0.332233
0.305999
0.283753
0.263039
0.24363
0.225506
0.20849
0.192304
0.176848
0.162041
0.147751
0.133905
0.120254
0.107297
0.0951269
0.0829132
0.0706375
0.0585307
0.0466695
0.0350715
0.0238585
0.0133295
0.00390574
0.379248
0.361453
0.332231
0.305996
0.28375
0.263037
0.24363
0.22551
0.2085
0.192317
0.176857
0.162041
0.14774
0.133895
0.120248
0.107283
0.0951033
0.0828901
0.0706238
0.0585263
0.0466731
0.0350758
0.0238626
0.0133319
0.00390589
0.379247
0.361451
0.332229
0.305994
0.283747
0.263034
0.243627
0.225507
0.208496
0.192312
0.17685
0.162032
0.147727
0.133874
0.120226
0.107265
0.0950831
0.0828729
0.070614
0.0585209
0.0466694
0.0350799
0.0238757
0.0133452
0.00391125
0.379244
0.361448
0.332227
0.305991
0.283743
0.263027
0.243615
0.225484
0.208461
0.192265
0.176797
0.161985
0.147699
0.133872
0.120242
0.107292
0.0951243
0.0829189
0.0706592
0.0585559
0.0466908
0.0350892
0.023874
0.013341
0.00390991
0.379241
0.361445
0.332223
0.305986
0.283737
0.263019
0.243601
0.225459
0.208425
0.192227
0.176766
0.16196
0.147681
0.133859
0.120246
0.107313
0.0951403
0.0829329
0.0706737
0.0585755
0.0467126
0.0351104
0.0238925
0.0133569
0.00392052
0.379236
0.36144
0.332218
0.30598
0.283729
0.263007
0.243583
0.225435
0.208391
0.19219
0.176731
0.161934
0.147669
0.133863
0.120257
0.107325
0.0951714
0.0829755
0.0707176
0.0586173
0.0467435
0.035129
0.0238997
0.0133549
0.0039163
0.379231
0.361434
0.332211
0.305972
0.283719
0.262991
0.243561
0.225405
0.208358
0.19216
0.176711
0.161927
0.147678
0.133887
0.120287
0.107362
0.0952099
0.0830036
0.070736
0.0586268
0.0467522
0.0351393
0.023911
0.0133646
0.00391924
0.379225
0.361428
0.332203
0.305963
0.283707
0.262978
0.243544
0.225387
0.208341
0.192139
0.176688
0.161912
0.147677
0.133903
0.120311
0.107382
0.095226
0.083022
0.0707563
0.0586418
0.0467626
0.035146
0.0239145
0.0133649
0.00391851
0.379218
0.36142
0.332195
0.305953
0.283696
0.262965
0.243532
0.225376
0.208332
0.192139
0.176699
0.161928
0.147694
0.133921
0.120333
0.107406
0.0952333
0.0830156
0.0707421
0.0586305
0.0467573
0.0351459
0.0239192
0.0133735
0.00392498
0.379211
0.361413
0.332186
0.305943
0.283685
0.262953
0.24352
0.225368
0.208331
0.192149
0.176717
0.161952
0.147724
0.133953
0.120358
0.107425
0.0952557
0.0830283
0.0707428
0.0586236
0.0467433
0.0351276
0.0239017
0.0133617
0.00391875
0.379203
0.361405
0.332178
0.305934
0.283675
0.262943
0.243514
0.225371
0.208346
0.192168
0.176732
0.161962
0.14774
0.133976
0.120378
0.10743
0.0952543
0.0830299
0.0707458
0.058628
0.0467405
0.0351181
0.0238888
0.0133496
0.00391615
0.379196
0.361398
0.33217
0.305925
0.283666
0.262935
0.243509
0.225371
0.208353
0.19218
0.176748
0.161979
0.147761
0.134
0.120399
0.107449
0.0952725
0.0830415
0.0707482
0.0586214
0.0467262
0.0350988
0.0238684
0.013333
0.00390882
0.37919
0.361392
0.332165
0.305919
0.283659
0.262927
0.243502
0.225367
0.20835
0.192184
0.176762
0.162001
0.147786
0.134025
0.120415
0.107468
0.0952964
0.083055
0.0707458
0.0586035
0.0467055
0.0350789
0.0238532
0.0133266
0.0039061
0.379184
0.361389
0.332164
0.305917
0.283655
0.262919
0.243493
0.225359
0.208347
0.192183
0.176763
0.162
0.147784
0.134027
0.120422
0.107472
0.0952981
0.0830648
0.0707568
0.0586118
0.0467131
0.0350807
0.0238485
0.0133172
0.00389838
0.379183
0.361391
0.33216
0.305915
0.283646
0.262906
0.243479
0.225347
0.208337
0.192176
0.176766
0.162017
0.147811
0.134056
0.120451
0.107497
0.0953173
0.08308
0.0707637
0.0586094
0.0466997
0.0350638
0.0238311
0.0133007
0.00389138
0.379206
0.361434
0.332177
0.305923
0.283641
0.262891
0.243465
0.225338
0.208333
0.192175
0.17676
0.162007
0.147804
0.134052
0.120453
0.1075
0.0953165
0.0830777
0.0707693
0.0586232
0.0467088
0.0350658
0.0238273
0.0132954
0.00388535
0.34334
0.33434
0.313453
0.291443
0.272989
0.256095
0.23933
0.222987
0.207382
0.192382
0.177823
0.163638
0.149809
0.136315
0.123112
0.11031
0.0978338
0.0854405
0.0731594
0.0610814
0.0492391
0.0375601
0.0263482
0.0147907
0.00598397
0.343335
0.334356
0.313495
0.291463
0.272987
0.256091
0.239327
0.222984
0.207377
0.192376
0.177819
0.163634
0.149802
0.136305
0.123101
0.1103
0.097826
0.0854346
0.0731543
0.0610766
0.0492369
0.037562
0.0263503
0.0147998
0.00597995
0.343335
0.334362
0.313504
0.291463
0.272981
0.256087
0.239324
0.222978
0.207368
0.192367
0.177812
0.16363
0.149797
0.136295
0.123093
0.110292
0.0978175
0.0854274
0.0731496
0.0610775
0.049245
0.0375759
0.0263649
0.014812
0.00598301
0.343335
0.334362
0.313507
0.291466
0.272983
0.256086
0.239321
0.222971
0.207357
0.192355
0.177803
0.163626
0.149795
0.136293
0.123089
0.110289
0.0978141
0.0854232
0.0731459
0.061076
0.0492466
0.0375802
0.026371
0.0148174
0.00598677
0.343334
0.334362
0.313507
0.291467
0.272981
0.256083
0.239315
0.222963
0.207346
0.192343
0.177793
0.163618
0.149788
0.136286
0.123081
0.110279
0.0978058
0.0854186
0.0731452
0.061079
0.049253
0.0375883
0.0263793
0.0148246
0.00598911
0.343333
0.334361
0.313506
0.291465
0.272979
0.25608
0.239312
0.222959
0.207343
0.19234
0.177789
0.163612
0.149779
0.136276
0.123071
0.110268
0.0977953
0.0854108
0.0731412
0.06108
0.049258
0.0375948
0.0263859
0.01483
0.00599064
0.343331
0.334359
0.313504
0.291463
0.272976
0.256076
0.239308
0.222953
0.207335
0.19233
0.177778
0.163602
0.149769
0.136266
0.123061
0.110259
0.0977876
0.0854056
0.0731386
0.0610794
0.0492592
0.0375991
0.0263931
0.0148374
0.00599457
0.343328
0.334356
0.313501
0.29146
0.272972
0.25607
0.239298
0.222938
0.207314
0.192304
0.177751
0.163579
0.149757
0.136267
0.123075
0.110282
0.097814
0.0854317
0.0731626
0.0610974
0.0492694
0.0376017
0.0263897
0.0148304
0.00598963
0.343325
0.334352
0.313497
0.291455
0.272966
0.256062
0.239286
0.222921
0.207292
0.192281
0.17773
0.163564
0.14975
0.136268
0.123083
0.110295
0.0978276
0.085445
0.0731742
0.0611084
0.0492795
0.0376108
0.0263975
0.0148371
0.00599457
0.34332
0.334348
0.313492
0.291449
0.272958
0.256051
0.239272
0.222902
0.207268
0.192255
0.177707
0.163548
0.149743
0.136271
0.123095
0.110314
0.097853
0.0854728
0.073201
0.0611317
0.0492966
0.0376208
0.0264006
0.0148342
0.00599047
0.343315
0.334342
0.313486
0.291441
0.272949
0.256039
0.239255
0.222882
0.207246
0.192236
0.177694
0.163543
0.149748
0.136286
0.123115
0.110335
0.0978734
0.08549
0.0732152
0.0611427
0.0493062
0.0376298
0.0264086
0.0148405
0.00599413
0.343309
0.334336
0.313478
0.291433
0.272939
0.256027
0.239241
0.222867
0.207232
0.192222
0.177683
0.163537
0.149749
0.136294
0.123128
0.110351
0.0978892
0.0855057
0.0732308
0.061156
0.0493169
0.0376377
0.0264135
0.0148421
0.00599307
0.343303
0.334329
0.31347
0.291424
0.272929
0.256016
0.23923
0.222857
0.207226
0.192223
0.17769
0.163549
0.149764
0.13631
0.123144
0.110363
0.0978952
0.0855067
0.0732282
0.0611535
0.0493163
0.0376395
0.026418
0.014849
0.00599833
0.343296
0.334321
0.313462
0.291415
0.272919
0.256006
0.239221
0.222851
0.207225
0.192228
0.177701
0.163565
0.149784
0.136332
0.123163
0.110378
0.0979056
0.0855103
0.0732262
0.0611477
0.0493076
0.0376297
0.0264093
0.0148433
0.00599446
0.343289
0.334314
0.313454
0.291406
0.272909
0.255997
0.239214
0.222849
0.207228
0.192234
0.177708
0.163572
0.149793
0.136343
0.123172
0.110384
0.097909
0.0855117
0.0732266
0.0611475
0.0493055
0.0376261
0.0264058
0.0148421
0.00599474
0.343282
0.334307
0.313447
0.291397
0.2729
0.255989
0.239208
0.222847
0.207231
0.192241
0.177719
0.163585
0.149809
0.13636
0.123189
0.110398
0.0979198
0.0855167
0.0732253
0.0611406
0.0492944
0.0376131
0.0263937
0.0148338
0.00599125
0.343276
0.3343
0.313438
0.291388
0.272892
0.255982
0.239203
0.222844
0.207233
0.192249
0.177732
0.163604
0.149831
0.136383
0.123209
0.110416
0.097933
0.0855226
0.0732218
0.0611287
0.0492788
0.0375972
0.0263808
0.0148262
0.00598894
0.343271
0.334294
0.31343
0.291378
0.272883
0.255973
0.239195
0.222839
0.20723
0.19225
0.177736
0.163609
0.149837
0.136392
0.123219
0.110426
0.0979438
0.0855335
0.0732302
0.0611335
0.0492802
0.0375946
0.026375
0.014819
0.00598455
0.343267
0.334284
0.313416
0.291374
0.272884
0.255972
0.239192
0.222837
0.207231
0.192254
0.177744
0.163622
0.149854
0.13641
0.123238
0.110442
0.097954
0.0855381
0.0732292
0.0611263
0.0492673
0.0375784
0.0263584
0.0148033
0.00597915
0.34327
0.334266
0.313372
0.291351
0.272883
0.255974
0.239193
0.222841
0.207239
0.192263
0.177752
0.163628
0.14986
0.136417
0.123246
0.11045
0.0979596
0.0855421
0.0732347
0.061133
0.0492718
0.0375789
0.0263576
0.0147944
0.00598256
0.318783
0.313471
0.300364
0.284541
0.269393
0.254453
0.238889
0.223328
0.208201
0.193464
0.179001
0.164804
0.150906
0.137315
0.12401
0.110992
0.0982611
0.0857567
0.0734386
0.061301
0.0493821
0.0376026
0.0262863
0.0145518
0.00602111
0.318783
0.313467
0.300364
0.284532
0.269377
0.254443
0.238888
0.223329
0.208201
0.193465
0.179004
0.164807
0.150909
0.137317
0.124011
0.110994
0.0982631
0.0857587
0.0734407
0.0613037
0.0493854
0.0376074
0.0262887
0.0145597
0.00601274
0.318783
0.313467
0.300364
0.284528
0.26937
0.254441
0.238888
0.223327
0.208198
0.193462
0.179001
0.164805
0.150906
0.137312
0.124007
0.11099
0.0982601
0.0857568
0.0734407
0.0613063
0.0493905
0.0376139
0.0262942
0.0145632
0.0060109
0.318782
0.313466
0.300363
0.284525
0.269366
0.254436
0.238883
0.223322
0.208191
0.193455
0.178995
0.164801
0.150901
0.137308
0.124002
0.110987
0.0982586
0.0857574
0.0734435
0.0613114
0.0493973
0.0376215
0.026301
0.0145683
0.00601289
0.318781
0.313465
0.300362
0.284523
0.269363
0.254432
0.238879
0.223316
0.208184
0.193447
0.178988
0.164794
0.150895
0.1373
0.123995
0.11098
0.0982536
0.0857557
0.0734452
0.061316
0.049404
0.0376288
0.0263077
0.0145733
0.00601445
0.31878
0.313464
0.300361
0.284521
0.26936
0.254428
0.238874
0.22331
0.208177
0.19344
0.178981
0.164787
0.150888
0.137295
0.12399
0.110976
0.0982515
0.0857557
0.0734475
0.0613204
0.0494098
0.0376352
0.0263139
0.0145783
0.00601673
0.318778
0.313462
0.300358
0.284518
0.269356
0.254423
0.238868
0.223303
0.208168
0.19343
0.178971
0.164778
0.150881
0.137289
0.123987
0.110975
0.0982508
0.0857562
0.0734491
0.0613228
0.0494132
0.0376396
0.0263191
0.014583
0.00601898
0.318775
0.313459
0.300355
0.284515
0.269352
0.254418
0.23886
0.223292
0.208154
0.193414
0.178955
0.164766
0.150874
0.137289
0.123993
0.110984
0.0982626
0.0857683
0.0734602
0.0613319
0.0494196
0.0376437
0.026321
0.0145832
0.00601859
0.318771
0.313455
0.300351
0.28451
0.269346
0.25441
0.23885
0.223279
0.208138
0.193397
0.178941
0.164755
0.150869
0.13729
0.123999
0.110994
0.0982728
0.0857777
0.0734686
0.0613396
0.0494268
0.0376501
0.0263264
0.0145872
0.00602059
0.318767
0.31345
0.300346
0.284504
0.269339
0.254401
0.238838
0.223264
0.208122
0.193381
0.178926
0.164746
0.150867
0.137294
0.124008
0.111007
0.0982882
0.0857935
0.0734831
0.061352
0.0494363
0.0376564
0.0263293
0.0145871
0.00601946
0.318762
0.313445
0.30034
0.284497
0.26933
0.25439
0.238826
0.22325
0.208107
0.193367
0.178917
0.164741
0.150868
0.137302
0.12402
0.111021
0.0983024
0.085807
0.0734954
0.0613628
0.0494459
0.0376646
0.0263358
0.0145915
0.00602153
0.318756
0.313439
0.300333
0.284489
0.269321
0.25438
0.238815
0.223239
0.208096
0.193359
0.178911
0.164739
0.15087
0.137308
0.124029
0.111032
0.098314
0.0858183
0.0735059
0.0613717
0.0494528
0.0376694
0.0263384
0.014592
0.0060207
0.31875
0.313432
0.300326
0.284481
0.269312
0.254371
0.238805
0.223231
0.208092
0.193358
0.178915
0.164747
0.15088
0.137319
0.12404
0.111041
0.0983208
0.0858227
0.0735087
0.061374
0.0494552
0.0376721
0.0263413
0.0145949
0.0060222
0.318743
0.313425
0.300318
0.284473
0.269304
0.254363
0.238798
0.223226
0.20809
0.193361
0.178922
0.164757
0.150893
0.137332
0.124052
0.11105
0.098326
0.0858246
0.0735079
0.0613713
0.0494514
0.0376681
0.0263381
0.0145931
0.00602133
0.318737
0.313419
0.300311
0.284466
0.269296
0.254355
0.238793
0.223223
0.208091
0.193365
0.178928
0.164765
0.150903
0.137342
0.12406
0.111055
0.0983291
0.0858253
0.0735068
0.061369
0.0494483
0.0376651
0.0263364
0.0145935
0.00602254
0.318731
0.313412
0.300305
0.284459
0.269289
0.254349
0.238788
0.223221
0.208093
0.19337
0.178937
0.164776
0.150915
0.137356
0.124072
0.111064
0.0983344
0.0858263
0.0735036
0.0613624
0.0494398
0.0376563
0.0263293
0.0145894
0.00602121
0.318725
0.313406
0.300298
0.284453
0.269284
0.254345
0.238784
0.223219
0.208094
0.193376
0.178946
0.164789
0.15093
0.137371
0.124085
0.111075
0.0983409
0.0858277
0.0734994
0.0613536
0.0494286
0.037645
0.0263199
0.0145836
0.00601932
0.318721
0.313402
0.300294
0.284449
0.269281
0.254343
0.238781
0.223217
0.208095
0.193378
0.178951
0.164796
0.150939
0.137381
0.124095
0.111083
0.0983466
0.0858304
0.0734985
0.0613491
0.0494211
0.0376356
0.0263105
0.0145759
0.00601595
0.318717
0.313398
0.30029
0.284449
0.269283
0.25434
0.238776
0.223214
0.208094
0.193381
0.178956
0.164803
0.150948
0.137391
0.124104
0.11109
0.0983506
0.0858306
0.0734946
0.0613413
0.0494105
0.0376238
0.0262999
0.0145676
0.00601495
0.318715
0.313399
0.300287
0.284456
0.269297
0.254348
0.238777
0.223214
0.208095
0.193382
0.178955
0.164802
0.150947
0.13739
0.124103
0.111088
0.098348
0.0858272
0.0734909
0.0613372
0.049406
0.0376182
0.0262969
0.0145592
0.00602323
0.301638
0.298109
0.288879
0.276301
0.26287
0.249135
0.234951
0.220581
0.206312
0.192216
0.178282
0.16453
0.150994
0.137689
0.124611
0.111762
0.0991434
0.0867223
0.0744655
0.0623612
0.0504549
0.0386509
0.0272841
0.0153265
0.00656404
0.301637
0.298104
0.288883
0.276307
0.262875
0.249139
0.234955
0.220583
0.206312
0.192215
0.17828
0.164528
0.150992
0.137686
0.124608
0.111759
0.0991405
0.08672
0.074464
0.0623603
0.0504543
0.0386514
0.0272824
0.0153322
0.00655332
0.301637
0.298103
0.288884
0.276308
0.262874
0.249138
0.234955
0.220581
0.206309
0.192211
0.178277
0.164524
0.150988
0.137681
0.124603
0.111755
0.0991381
0.0867187
0.074464
0.0623615
0.0504563
0.0386537
0.0272837
0.0153334
0.00655085
0.301636
0.298102
0.288884
0.276308
0.262873
0.249137
0.234953
0.220578
0.206305
0.192207
0.178273
0.16452
0.150984
0.137678
0.1246
0.111753
0.0991369
0.086719
0.0744655
0.0623642
0.0504595
0.0386571
0.0272864
0.0153354
0.00655112
0.301635
0.298101
0.288883
0.276306
0.262871
0.249135
0.23495
0.220574
0.2063
0.192201
0.178266
0.164514
0.150978
0.137672
0.124595
0.111749
0.0991351
0.0867192
0.0744676
0.0623676
0.0504637
0.0386613
0.0272899
0.0153377
0.0065515
0.301633
0.298099
0.288881
0.276304
0.262869
0.249132
0.234946
0.220569
0.206294
0.192195
0.17826
0.164508
0.150973
0.137668
0.124592
0.111748
0.0991351
0.0867208
0.0744707
0.0623719
0.0504688
0.0386668
0.0272952
0.0153419
0.00655345
0.301631
0.298097
0.288878
0.276301
0.262865
0.249127
0.23494
0.220563
0.206286
0.192186
0.178252
0.164501
0.150967
0.137664
0.12459
0.111747
0.0991354
0.0867222
0.0744731
0.0623753
0.050473
0.0386716
0.0273
0.0153458
0.00655511
0.301628
0.298094
0.288875
0.276297
0.26286
0.249122
0.234933
0.220554
0.206276
0.192175
0.178241
0.164493
0.150963
0.137664
0.124593
0.111752
0.0991419
0.0867291
0.0744799
0.0623816
0.0504785
0.0386761
0.0273031
0.0153474
0.00655544
0.301624
0.29809
0.28887
0.276293
0.262855
0.249115
0.234925
0.220543
0.206264
0.192163
0.178231
0.164486
0.15096
0.137664
0.124597
0.111758
0.0991486
0.0867359
0.0744867
0.0623883
0.0504851
0.038682
0.0273078
0.0153505
0.00655657
0.301619
0.298085
0.288865
0.276287
0.262848
0.249107
0.234915
0.220532
0.206252
0.192152
0.178222
0.16448
0.150958
0.137667
0.124603
0.111767
0.0991585
0.086746
0.0744961
0.0623966
0.0504918
0.0386868
0.0273104
0.0153508
0.00655612
0.301614
0.29808
0.28886
0.276281
0.262841
0.249098
0.234905
0.220522
0.206242
0.192143
0.178216
0.164478
0.15096
0.137672
0.124611
0.111776
0.0991687
0.0867558
0.0745053
0.0624048
0.0504989
0.0386924
0.0273143
0.0153529
0.00655672
0.301609
0.298074
0.288853
0.276274
0.262833
0.249089
0.234896
0.220513
0.206234
0.192137
0.178212
0.164478
0.150962
0.137678
0.124619
0.111785
0.0991773
0.086764
0.0745125
0.0624108
0.0505034
0.0386953
0.0273155
0.0153527
0.00655588
0.301603
0.298068
0.288847
0.276266
0.262825
0.249082
0.234889
0.220507
0.20623
0.192136
0.178214
0.164482
0.150969
0.137686
0.124627
0.111792
0.0991833
0.0867688
0.0745163
0.062414
0.0505061
0.0386976
0.0273174
0.0153541
0.00655637
0.301597
0.298062
0.28884
0.276259
0.262818
0.249074
0.234883
0.220502
0.206228
0.192137
0.178219
0.164489
0.150977
0.137695
0.124635
0.111799
0.0991881
0.0867716
0.0745174
0.0624138
0.0505051
0.0386964
0.0273164
0.0153536
0.00655601
0.301591
0.298056
0.288834
0.276252
0.262811
0.249068
0.234877
0.2205
0.206228
0.19214
0.178224
0.164496
0.150986
0.137704
0.124643
0.111805
0.0991922
0.0867737
0.0745178
0.062413
0.0505038
0.0386952
0.0273161
0.0153543
0.00655684
0.301585
0.29805
0.288827
0.276246
0.262805
0.249062
0.234873
0.220497
0.206229
0.192144
0.178231
0.164505
0.150996
0.137714
0.124652
0.111811
0.0991959
0.0867742
0.0745155
0.0624087
0.0504985
0.0386901
0.0273124
0.0153526
0.00655657
0.30158
0.298045
0.288822
0.27624
0.262799
0.249057
0.234869
0.220495
0.20623
0.192148
0.178238
0.164515
0.151007
0.137725
0.124661
0.111818
0.0991993
0.086774
0.0745117
0.0624022
0.0504908
0.0386827
0.0273068
0.0153496
0.00655591
0.301576
0.298041
0.288817
0.276235
0.262794
0.249052
0.234865
0.220493
0.20623
0.192151
0.178243
0.164522
0.151016
0.137734
0.12467
0.111825
0.0992029
0.0867744
0.074509
0.0623969
0.0504838
0.0386753
0.0273006
0.0153456
0.00655497
0.301573
0.298038
0.288812
0.276231
0.262791
0.249049
0.234862
0.220492
0.206232
0.192155
0.178249
0.164529
0.151024
0.137742
0.124677
0.111829
0.0992048
0.0867731
0.0745045
0.0623899
0.0504756
0.0386672
0.0272945
0.0153414
0.00655628
0.301572
0.29804
0.288806
0.276222
0.262785
0.249044
0.234858
0.22049
0.206232
0.192157
0.178252
0.164533
0.151028
0.137746
0.12468
0.111832
0.099207
0.086774
0.0745042
0.0623886
0.0504743
0.0386653
0.0272956
0.0153357
0.00656733
0.289478
0.286807
0.279715
0.269531
0.258005
0.245795
0.232944
0.219599
0.206031
0.192413
0.178819
0.165296
0.151893
0.138646
0.125574
0.112688
0.0999917
0.087475
0.0751277
0.0629368
0.0509381
0.0390231
0.027527
0.0154053
0.00655216
0.289478
0.286804
0.279717
0.269533
0.258003
0.245791
0.23294
0.219596
0.206028
0.19241
0.178816
0.165294
0.151892
0.138645
0.125573
0.112688
0.0999922
0.0874761
0.0751292
0.0629387
0.0509399
0.0390257
0.0275269
0.0154127
0.00654204
0.289478
0.286803
0.279717
0.269533
0.258001
0.245788
0.232937
0.219594
0.206025
0.192407
0.178814
0.165292
0.151889
0.138642
0.125571
0.112686
0.0999916
0.0874763
0.07513
0.0629402
0.0509416
0.0390276
0.0275281
0.0154143
0.00654004
0.289477
0.286802
0.279716
0.269532
0.257999
0.245785
0.232934
0.21959
0.206021
0.192403
0.178809
0.165288
0.151886
0.138639
0.125569
0.112685
0.0999912
0.0874769
0.0751317
0.0629426
0.0509447
0.039031
0.0275312
0.0154169
0.00654101
0.289475
0.2868
0.279715
0.269531
0.257997
0.245782
0.23293
0.219586
0.206016
0.192397
0.178804
0.165283
0.151881
0.138636
0.125566
0.112683
0.0999907
0.0874776
0.0751335
0.0629453
0.0509479
0.0390344
0.0275342
0.0154191
0.00654158
0.289473
0.286798
0.279713
0.269528
0.257994
0.245779
0.232926
0.219581
0.20601
0.192391
0.178798
0.165277
0.151877
0.138632
0.125564
0.112682
0.0999911
0.0874793
0.0751363
0.0629491
0.0509523
0.039039
0.0275384
0.0154223
0.00654296
0.289471
0.286796
0.27971
0.269525
0.25799
0.245774