/*--------------------------------*- C++ -*----------------------------------*\
  =========                 |
  \\      /  F ield         | OpenFOAM: The Open Source CFD Toolbox
   \\    /   O peration     | Website:  https://openfoam.org
    \\  /    A nd           | Version:  12
     \\/     M anipulation  |
\*---------------------------------------------------------------------------*/
FoamFile
{
    format      ascii;
    class       surfaceScalarField;
    location    "250";
    object      phi;
}
// * * * * * * * * * * * * * * * * * * * * * * * * * * * * * * * * * * * * * //

dimensions      [0 3 -1 0 0 0 0];

internalField   nonuniform List<scalar> 
14050
(
1958.43
0.00343605
1.5621
1956.2
-0.000593861
2.23261
1953.79
-0.000559895
2.40986
1951.36
0.000456087
2.42848
1948.92
0.000258301
2.439
1946.5
-0.000130266
2.42439
1944.11
-0.000298058
2.38666
1941.78
-0.000949548
2.3378
1939.49
-0.0022654
2.28409
1937.27
-0.00362384
2.22624
1935.11
-0.00493297
2.16409
1933.02
-0.00372847
2.09848
1930.98
-0.00136075
2.04297
1928.98
-0.000503729
1.99144
1927.04
0.000366971
1.94627
1925.13
0.00247481
1.90457
1923.27
0.00333422
1.86069
1921.45
0.00239664
1.81557
1919.68
0.00310501
1.77022
1917.94
0.00199972
1.73189
1916.26
0.000498576
1.68597
1914.62
-0.000669707
1.63935
1913.04
-0.00145793
1.58435
1911.51
-0.00123361
1.52974
-0.00234959
1.34448
1958.44
0.000737786
1.56707
1956.2
0.00053685
2.23534
1953.79
-0.000199517
2.41104
1951.36
-2.95273e-05
2.42856
1948.92
8.92818e-05
2.43877
1946.5
3.49197e-05
2.42418
1944.11
-0.000194198
2.38635
1941.77
-0.000241778
2.33782
1939.48
5.50765e-05
2.2856
1937.25
-0.000758468
2.22789
1935.08
-0.0034086
2.16813
1932.98
-0.00490938
2.10664
1930.94
-0.00493172
2.04287
1928.95
-0.00527722
1.9901
1927.01
-0.00184263
1.94362
1925.11
0.00186457
1.90006
1923.26
0.00253645
1.85531
1921.45
0.00302258
1.80956
1919.68
0.00250537
1.77131
1917.95
0.000919268
1.7262
1916.27
-0.00125024
1.6818
1914.64
-0.00176529
1.63681
1913.05
-0.00206491
1.58287
1911.52
-0.00206909
1.53091
-0.000441204
1.3427
1958.43
0.000208894
1.56643
1956.2
0.0001928
2.23539
1953.79
-0.000189431
2.41149
1951.36
-0.00014231
2.42864
1948.92
-7.29505e-05
2.43886
1946.5
-2.91176e-06
2.42423
1944.11
1.21501e-05
2.38645
1941.77
0.000620449
2.33812
1939.48
0.00223935
2.28501
1937.25
0.00320221
2.22784
1935.08
0.0014077
2.16748
1932.97
-0.00210973
2.10845
1930.92
-0.00648691
2.05182
1928.93
-0.00962628
1.99239
1926.99
-0.00968864
1.94293
1925.1
-0.00644947
1.8972
1923.26
-0.00210379
1.85267
1921.45
0.000679131
1.80842
1919.69
0.00243414
1.76487
1917.96
0.00346191
1.72277
1916.27
0.00447227
1.68017
1914.63
0.00347319
1.64261
1913.04
0.00159528
1.58827
1911.5
9.90412e-05
1.53357
-0.000580983
1.34841
1958.43
9.44659e-05
1.56627
1956.2
8.97457e-05
2.23512
1953.79
-4.69356e-05
2.41128
1951.36
-0.000105414
2.42853
1948.92
-3.76698e-05
2.43883
1946.5
-8.81139e-05
2.42422
1944.11
0.000339801
2.38654
1941.77
0.00111924
2.33769
1939.49
0.00167758
2.2834
1937.26
0.00131509
2.22541
1935.1
0.000129154
2.16277
1933
-0.00121243
2.10433
1930.94
-0.00186048
2.05062
1928.93
-0.00222239
2.00155
1926.97
-0.00216298
1.95337
1925.06
-0.00154849
1.9057
1923.2
-0.00211199
1.86395
1921.38
-0.000888475
1.8138
1919.62
0.000188394
1.76684
1917.9
0.000996382
1.72253
1916.22
0.00174371
1.67897
1914.59
0.00185035
1.63464
1913.01
0.00140174
1.58178
1911.48
0.000839037
1.52991
0.00156823
1.34115
1958.43
9.10577e-05
1.56623
1956.2
8.76653e-05
2.23506
1953.79
1.29351e-05
2.41124
1951.36
-7.63804e-05
2.42858
1948.92
-7.9836e-05
2.43881
1946.5
-0.000126009
2.42436
1944.11
-0.000489515
2.38609
1941.78
-0.00144741
2.33638
1939.5
-0.0033932
2.28229
1937.29
-0.00472031
2.21957
1935.13
-0.00388413
2.16111
1933.02
-0.000832974
2.10349
1930.97
0.00193297
2.05048
1928.96
0.00450532
2.00169
1927
0.00574135
1.95382
1925.09
0.00467978
1.90686
1923.22
0.00253865
1.85885
1921.4
0.000348876
1.81752
1919.64
-0.00136665
1.76997
1917.92
-0.00307094
1.72459
1916.24
-0.00275901
1.67969
1914.61
-0.00189394
1.63444
1913.03
-0.000150624
1.58059
1911.5
0.00200556
1.52734
0.00168588
1.34436
1958.43
0.000101825
1.56623
1956.2
0.000102169
2.23504
1953.79
4.73799e-05
2.41121
1951.36
-1.10337e-05
2.42856
1948.92
-8.75476e-05
2.4388
1946.5
-0.000104381
2.42424
1944.11
-0.000208365
2.38643
1941.77
-0.000512803
2.33777
1939.48
-0.00120521
2.28512
1937.25
-0.00257955
2.2268
1935.09
-0.00463342
2.1681
1932.98
-0.00643131
2.1075
1930.95
-0.00543421
2.04533
1928.96
-0.00169851
1.99399
1927.02
0.0010025
1.94482
1925.12
0.00235808
1.89887
1923.27
0.00239241
1.85469
1921.46
0.00242964
1.81022
1919.68
0.00276756
1.76688
1917.95
0.00352878
1.7241
1916.26
0.00259575
1.68758
1914.62
0.000844429
1.64225
1913.03
0.00096332
1.58746
1911.49
0.00123956
1.53395
0.00116582
1.3442
1958.43
0.000116625
1.56622
1956.2
0.000137896
2.23504
1953.79
9.41737e-05
2.4112
1951.36
5.26502e-05
2.42856
1948.92
1.61934e-05
2.43882
1946.5
-2.85872e-05
2.42424
1944.11
0.000278265
2.38647
1941.77
0.00135821
2.33805
1939.48
0.00292231
2.28557
1937.24
0.00475848
2.2285
1935.06
0.00441203
2.17046
1932.94
0.00106797
2.11328
1930.88
-0.00338985
2.0582
1928.89
-0.00693141
2.00155
1926.95
-0.00757557
1.94258
1925.07
-0.00615877
1.89459
1923.22
-0.00351425
1.84992
1921.42
-0.00154746
1.80563
1919.66
0.000773818
1.76245
1917.94
0.00303929
1.72089
1916.26
0.00479308
1.67907
1914.62
0.00611174
1.63573
1913.02
0.00483199
1.58898
1911.49
0.00301118
1.53585
0.00116317
1.34657
1958.43
0.000131759
1.56623
1956.2
0.000160712
2.23503
1953.79
0.0001522
2.41121
1951.36
0.00013567
2.42857
1948.92
6.64624e-05
2.43879
1946.5
0.000152491
2.42434
1944.11
4.45829e-05
2.38652
1941.77
0.000473121
2.33731
1939.49
0.00108551
2.28416
1937.27
-0.000558609
2.22461
1935.12
-0.00245722
2.15996
1933.02
-0.00339752
2.10333
1930.97
-0.00398847
2.05119
1928.97
-0.0042776
2.00085
1927.01
-0.00303759
1.95122
1925.1
-0.000250593
1.90477
1923.23
0.00200883
1.85969
1921.41
0.00397933
1.81301
1919.64
0.00420316
1.77339
1917.91
0.00403428
1.72698
1916.23
0.00391855
1.68132
1914.6
0.00358906
1.63585
1913.02
0.00199478
1.58133
1911.49
-0.000221381
1.52905
0.000130505
1.34105
1958.43
0.000142215
1.56622
1956.2
0.000201167
2.23504
1953.79
0.000203831
2.41121
1951.36
0.000207639
2.42855
1948.92
0.000238018
2.43884
1946.5
0.000224773
2.42414
1944.11
0.000704011
2.38677
1941.77
7.31312e-05
2.33453
1939.49
-4.82244e-05
2.2818
1937.27
0.000874486
2.22398
1935.1
8.6091e-05
2.16578
1932.99
-0.000359369
2.10932
1930.93
0.000546104
2.05672
1928.92
0.0015293
2.00491
1926.96
0.00076968
1.95344
1925.05
-0.0018968
1.90836
1923.2
-0.00222643
1.85566
1921.4
-0.00125495
1.80831
1919.64
-0.00130296
1.76256
1917.93
-0.000348099
1.71853
1916.25
0.000764362
1.6756
1914.62
0.00163035
1.63226
1913.04
0.00230218
1.58009
1911.51
0.00252918
1.52802
0.00141655
1.34566
1958.43
0.000147598
1.56623
1956.2
0.000224643
2.23504
1953.79
0.000270445
2.41123
1951.36
0.000290981
2.42857
1948.92
0.000300437
2.43881
1946.5
0.000422871
2.42435
1944.11
0.000657939
2.38654
1941.77
0.00171062
2.33811
1939.49
0.00287373
2.28121
1937.26
0.00301962
2.22404
1935.09
0.00236157
2.1657
1932.98
0.00031683
2.10956
1930.93
-0.00342323
2.05884
1928.94
-0.00608516
1.99908
1927
-0.00729544
1.94679
1925.1
-0.00707538
1.89967
1923.25
-0.00458643
1.85371
1921.44
-0.00194712
1.80758
1919.68
0.000976229
1.76228
1917.95
0.00199154
1.72491
1916.27
0.00237743
1.68026
1914.63
0.00245346
1.63542
1913.05
0.0023607
1.58232
1911.52
0.0018985
1.52926
0.000536982
1.34545
1958.43
0.000149322
1.56622
1956.2
0.000249419
2.23503
1953.79
0.000315954
2.4112
1951.36
0.000325821
2.42855
1948.92
0.00039601
2.43883
1946.5
0.000398377
2.42429
1944.11
0.000434932
2.38551
1941.78
0.000501792
2.33583
1939.5
0.000326811
2.27894
1937.28
0.00169306
2.2217
1935.12
0.00322519
2.16384
1933.01
0.00255965
2.10871
1930.94
0.00073123
2.05706
1928.93
-0.00124725
2.00573
1926.97
-0.0025524
1.95475
1925.06
-0.00347586
1.90621
1923.2
-0.00456473
1.86377
1921.39
-0.00511268
1.81273
1919.63
-0.00378738
1.76482
1917.91
-0.00240266
1.71931
1916.24
-0.00143415
1.6751
1914.61
-0.000787868
1.6311
1913.04
-0.000353161
1.57863
1911.51
0.000821698
1.52718
0.00154452
1.33908
1958.43
0.000145074
1.56622
1956.2
0.000261518
2.23503
1953.79
0.000345933
2.41119
1951.36
0.000377164
2.42856
1948.92
0.000357875
2.43878
1946.5
0.000403718
2.4243
1944.11
7.85216e-05
2.38645
1941.77
-2.33275e-05
2.33697
1939.49
0.000178852
2.2832
1937.27
-0.00102844
2.22326
1935.12
-0.00161315
2.15891
1933.02
-0.00136492
2.10337
1930.97
-0.00128414
2.05258
1928.96
-0.00137814
2.00271
1927.01
-0.000684656
1.95321
1925.1
0.0010296
1.90696
1923.23
0.00152984
1.86106
1921.41
0.00196497
1.81362
1919.63
0.00102503
1.77337
1917.9
-0.000140833
1.72655
1916.22
-0.00112502
1.68056
1914.59
-0.0018713
1.63483
1913.01
-0.00255103
1.58082
1911.48
-0.00230496
1.52896
0.000442358
1.341
1958.43
0.000131533
1.56621
1956.2
0.000277002
2.23503
1953.79
0.000357349
2.41119
1951.36
0.000415631
2.42854
1948.92
0.000415324
2.43881
1946.5
0.000379242
2.42417
1944.11
0.000535678
2.38666
1941.77
0.000657006
2.33565
1939.49
0.000925948
2.28202
1937.27
0.00146391
2.22214
1935.1
0.00144862
2.1644
1932.99
0.00205896
2.10878
1930.93
0.00234662
2.05744
1928.92
0.00221473
2.00629
1926.96
0.000603038
1.95529
1925.05
-0.00240331
1.91082
1923.2
-0.00233736
1.85784
1921.39
-0.00213714
1.80955
1919.63
-0.00245531
1.76308
1917.91
-0.00261056
1.7187
1916.24
-0.00232358
1.67545
1914.61
-0.00187032
1.63219
1913.03
-0.00156101
1.58038
1911.49
0.000890689
1.52824
0.00181847
1.34583
1958.43
0.000118142
1.56621
1956.2
0.000274241
2.23502
1953.79
0.00037993
2.41118
1951.36
0.000418571
2.42854
1948.92
0.000473729
2.4388
1946.5
0.000368691
2.42426
1944.11
0.00016839
2.38548
1941.78
-0.000576485
2.33575
1939.5
-0.00145116
2.27886
1937.28
0.000276151
2.22167
1935.12
0.00441255
2.16345
1933
0.00769651
2.10855
1930.94
0.0090116
2.05785
1928.92
0.00799379
2.00738
1926.96
0.00448669
1.95696
1925.05
-0.000632167
1.9084
1923.19
-0.00456256
1.86517
1921.38
-0.00647921
1.81315
1919.62
-0.00801608
1.76479
1917.9
-0.00728948
1.71888
1916.23
-0.00533874
1.67441
1914.6
-0.00263459
1.63023
1913.02
0.000280642
1.57747
1911.49
0.00146601
1.53049
0.00107762
1.34574
1958.43
9.99075e-05
1.5662
1956.2
0.000242275
2.23502
1953.79
0.000372948
2.41117
1951.36
0.000430615
2.42854
1948.92
0.000422515
2.43874
1946.5
0.000358326
2.42419
1944.11
0.00019921
2.38639
1941.77
-7.1553e-05
2.33733
1939.49
-0.000134137
2.28303
1937.26
0.000559388
2.22492
1935.1
0.0016814
2.1641
1933.01
0.00253426
2.09995
1930.97
0.00336901
2.04736
1928.97
0.00352831
1.99693
1927.03
0.00169819
1.94843
1925.12
-0.000340542
1.90441
1923.26
-0.00149695
1.85962
1921.44
-0.00207371
1.81407
1919.67
-0.00248377
1.76866
1917.93
-0.00289092
1.73038
1916.24
-0.00279656
1.68468
1914.6
-0.00223871
1.63864
1913.02
-0.0013738
1.58426
1911.5
-0.000549014
1.52906
-6.20587e-05
1.34396
1958.43
6.4644e-05
1.5662
1956.2
0.000181024
2.23503
1953.79
0.000357981
2.41119
1951.36
0.000425722
2.42854
1948.92
0.000330083
2.43874
1946.5
0.000414265
2.42418
1944.11
0.000226442
2.38637
1941.77
0.000156431
2.33742
1939.49
0.000914685
2.28324
1937.26
0.00085755
2.22493
1935.1
-0.00076078
2.16376
1933.01
-0.00179895
2.09944
1930.96
-0.000981842
2.04654
1928.97
0.000570267
1.996
1927.02
-0.000121785
1.9484
1925.12
-0.000855397
1.90501
1923.26
0.000158108
1.86026
1921.44
0.00110887
1.8146
1919.66
0.00204008
1.76914
1917.93
0.00103293
1.7307
1916.24
-0.000268614
1.68478
1914.6
-0.00124283
1.63859
1913.02
-0.00213146
1.58398
1911.49
-0.00146567
1.52873
-0.000222956
1.34373
1958.43
-8.28186e-05
1.56624
1956.2
3.00266e-05
2.23511
1953.79
0.000439412
2.41123
1951.36
0.000415831
2.42849
1948.92
0.000374769
2.43877
1946.5
0.000387221
2.42411
1944.11
0.000705132
2.38645
1941.77
0.00086968
2.33741
1939.49
-7.88912e-05
2.2809
1937.27
-0.00065447
2.22294
1935.11
0.000282658
2.16227
1933
0.0021652
2.10534
1930.94
0.0037564
2.05217
1928.94
0.00410598
2.00042
1926.98
0.00265053
1.95266
1925.07
0.0010019
1.90729
1923.21
-0.00104441
1.8657
1921.39
-0.00246904
1.81492
1919.63
-0.00327985
1.76714
1917.92
-0.00409963
1.72156
1916.24
-0.00316535
1.6769
1914.61
-0.00134154
1.63249
1913.03
0.00074929
1.57922
1911.49
0.000719014
1.53157
-0.000295248
1.34657
1958.43
-0.000646284
1.56639
1956.2
-0.000387493
2.23537
1953.79
0.000377181
2.41144
1951.36
0.000241947
2.4286
1948.92
0.000113146
2.43879
1946.5
0.000253086
2.42412
1944.11
0.000811913
2.38629
1941.77
0.00167622
2.33737
1939.49
0.00312921
2.28385
1937.26
0.00418228
2.22513
1935.09
0.00351068
2.16638
1932.98
0.00116563
2.1073
1930.94
-0.00134457
2.04577
1928.95
-0.00269149
1.99303
1927.01
-0.00261425
1.94636
1925.11
-0.00276908
1.90409
1923.25
-0.0034503
1.85941
1921.44
-0.00279025
1.81302
1919.67
-0.00112025
1.76808
1917.94
0.00101806
1.72372
1916.25
0.00166232
1.68584
1914.61
0.00205094
1.63969
1913.02
0.00217839
1.58478
1911.49
0.00100668
1.53102
0.000508232
1.342
1958.44
-0.00337645
1.56703
1956.2
0.000684242
2.23531
1953.79
0.000647855
2.41097
1951.36
-0.00033687
2.42852
1948.92
-0.000158483
2.43871
1946.5
0.000202099
2.42413
1944.11
0.000164004
2.38575
1941.78
-0.000120126
2.33597
1939.5
-0.000563012
2.28142
1937.29
-3.06959e-05
2.21844
1935.13
0.00242758
2.15996
1933.02
0.00414676
2.10379
1930.96
0.00359436
2.05171
1928.96
0.0026953
2.00069
1927
0.00217476
1.95347
1925.08
0.00113689
1.91014
1923.22
0.000255126
1.86312
1921.39
-0.00122233
1.82078
1919.62
-0.00298221
1.7719
1917.9
-0.00249879
1.72499
1916.23
-0.00142172
1.67909
1914.6
-0.00042329
1.63331
1913.02
0.000426108
1.57944
1911.5
0.000364262
1.52568
0.00153535
1.3419
1958.43
1.56207
1956.2
2.23258
1953.79
2.4098
1951.36
2.42844
1948.93
2.43894
1946.5
2.42429
1944.12
2.38639
1941.78
2.33717
1939.49
2.28288
1937.27
2.22472
1935.11
2.16334
1933.01
2.09927
1930.97
2.0465
1928.98
1.99608
1927.03
1.94914
1925.12
1.90668
1923.26
1.86243
1921.44
1.81611
1919.67
1.77007
1917.94
1.73097
1916.25
1.68442
1914.61
1.6376
1913.03
1.58259
1911.5
1.52806
1.34304
1960.94
-0.00119513
0.622757
1961.7
-0.00270031
1.48045
1962.26
-0.00194373
1.84906
1962.64
-0.000801542
2.04962
1962.91
-0.000440528
2.16507
1963.12
-0.000372811
2.22141
1963.26
-0.000271139
2.23869
1963.37
-0.000250261
2.23499
1963.43
-0.000444801
2.22027
1963.46
-0.00099021
2.19527
1963.46
-0.00236232
2.16315
1963.44
-0.00411321
2.12542
1963.4
-0.00216227
2.08916
1963.33
-0.000159073
2.05557
1963.25
0.000779853
2.02474
1963.16
0.000413043
1.99314
1963.07
0.000850681
1.95829
1962.96
0.00221693
1.92425
1962.83
0.00157341
1.89192
1962.7
0.00424593
1.8617
1962.55
0.00380752
1.82797
1962.4
0.00217076
1.79293
1962.23
0.000955639
1.7494
1962.05
-0.000430262
1.71723
-0.000473004
1.58794
1960.94
-7.66758e-05
0.621929
1961.7
-0.0010994
1.47953
1962.26
-0.00120843
1.8483
1962.64
-0.000870974
2.04884
1962.91
-0.00051876
2.16453
1963.12
-0.000353302
2.22113
1963.26
-0.000253918
2.23857
1963.37
-4.11482e-05
2.2351
1963.43
0.00034629
2.22072
1963.46
0.00019806
2.19645
1963.46
-0.000104249
2.16535
1963.44
-0.00282926
2.12851
1963.39
-0.00446784
2.09063
1963.33
-0.00148023
2.05531
1963.25
-0.00236867
2.02315
1963.16
-0.00345676
1.99204
1963.06
-0.00172141
1.95739
1962.95
0.000982155
1.92299
1962.83
0.00439665
1.89176
1962.7
0.00537676
1.85965
1962.55
0.00443435
1.8262
1962.4
0.00123104
1.7921
1962.23
-7.31601e-05
1.74935
1962.04
-0.000791443
1.71805
-0.00182544
1.5889
1960.94
3.02707e-05
0.622192
1961.7
-0.000281176
1.47976
1962.26
-0.000463984
1.84864
1962.64
-0.000390069
2.04871
1962.91
-0.000253501
2.16438
1963.12
-0.000165333
2.22102
1963.26
5.67558e-06
2.23851
1963.37
0.000437388
2.23495
1963.43
0.0012246
2.22026
1963.46
0.00208264
2.19599
1963.46
0.0022411
2.16493
1963.44
0.000816217
2.13033
1963.39
-0.000891444
2.09314
1963.33
-0.00324029
2.05466
1963.25
-0.0040122
2.02407
1963.16
-0.00513651
1.99365
1963.06
-0.0064367
1.95718
1962.95
-0.00408736
1.92169
1962.83
-0.00113843
1.88902
1962.7
0.000729599
1.8575
1962.56
0.00178167
1.82522
1962.4
0.00377088
1.79362
1962.24
0.00357682
1.75136
1962.05
0.00227921
1.7195
0.00172714
1.59007
1960.94
6.21913e-05
0.622237
1961.7
-3.21979e-05
1.47995
1962.26
-0.00016273
1.84878
1962.64
-0.000209429
2.0489
1962.91
-0.000170494
2.16451
1963.12
-0.00013661
2.2211
1963.27
6.58784e-05
2.23847
1963.37
0.000329758
2.23469
1963.43
0.000381964
2.21959
1963.46
0.0012369
2.19457
1963.47
-0.000321214
2.16306
1963.44
-0.00100323
2.12952
1963.4
-0.00127914
2.09411
1963.34
-0.00156359
2.05786
1963.26
-0.00126587
2.02743
1963.17
-0.000667856
1.99771
1963.06
0.00088339
1.96226
1962.95
-0.00133927
1.92469
1962.83
-0.00128708
1.88979
1962.69
-0.000953137
1.85672
1962.55
-0.000556725
1.82359
1962.4
0.000190255
1.79025
1962.24
0.000688441
1.74838
1962.05
0.000948074
1.71752
0.000126171
1.58891
1960.94
8.19628e-05
0.62225
1961.7
5.4475e-05
1.48001
1962.26
-2.54256e-05
1.84883
1962.64
-9.04663e-05
2.04897
1962.91
-0.000133196
2.16452
1963.12
-0.000175109
2.22108
1963.27
-0.000470149
2.23829
1963.37
-0.000980498
2.23432
1963.43
-0.00188482
2.21908
1963.47
-0.00366538
2.19285
1963.47
-0.00450482
2.16248
1963.45
-0.00407993
2.12923
1963.4
-0.00136597
2.09401
1963.34
-3.84027e-05
2.05798
1963.27
0.00133454
2.02743
1963.17
0.00336172
1.99762
1963.07
0.00472692
1.96133
1962.95
0.00604984
1.92615
1962.82
0.00442672
1.8913
1962.69
0.00260949
1.85787
1962.54
-0.000525979
1.82446
1962.39
-0.00182978
1.79039
1962.23
-0.00246742
1.74796
1962.04
-0.00229122
1.7167
0.000203452
1.58856
1960.94
0.000100001
0.622253
1961.7
9.66195e-05
1.48003
1962.26
4.10028e-05
1.84886
1962.64
-1.68256e-05
2.049
1962.91
-7.04455e-05
2.16456
1963.12
-0.000137857
2.22111
1963.27
-0.000212011
2.2385
1963.37
-0.000369025
2.23479
1963.43
-0.000735277
2.22004
1963.46
-0.00128742
2.19533
1963.46
-0.00159141
2.16511
1963.44
-0.00307044
2.13069
1963.39
-0.00502807
2.09278
1963.33
-0.00397062
2.05625
1963.26
-0.00125284
2.02552
1963.16
0.000691914
1.99489
1963.06
0.00222342
1.95825
1962.95
0.00319768
1.92292
1962.83
0.00281974
1.88979
1962.7
0.00277788
1.85799
1962.55
0.00449522
1.82704
1962.4
0.00381122
1.79319
1962.23
0.00137529
1.7507
1962.04
0.000716858
1.71896
0.000893974
1.5888
1960.94
0.000116272
0.622253
1961.7
0.000132428
1.48005
1962.26
9.54696e-05
1.84887
1962.64
5.31182e-05
2.04903
1962.91
3.82134e-05
2.16459
1963.12
6.04555e-05
2.22116
1963.27
0.000283264
2.23858
1963.37
0.000776036
2.23494
1963.43
0.00114804
2.22039
1963.46
0.00164072
2.19615
1963.46
0.00283637
2.16647
1963.43
0.002374
2.13343
1963.39
0.000740306
2.09665
1963.33
-0.00211054
2.05839
1963.25
-0.00520962
2.02496
1963.16
-0.0053407
1.99282
1963.06
-0.00443874
1.95499
1962.95
-0.00322719
1.91917
1962.84
-0.00331121
1.88658
1962.71
-0.00131147
1.85531
1962.57
0.0010402
1.82358
1962.41
0.0026532
1.79092
1962.25
0.00547826
1.75124
1962.06
0.00559984
1.72058
0.00375282
1.59042
1960.94
0.000130459
0.622252
1961.7
0.000160695
1.48005
1962.26
0.000147739
1.84888
1962.64
0.000124423
2.04905
1962.91
0.00011379
2.16459
1963.12
0.000207338
2.22115
1963.27
0.000438685
2.23843
1963.37
0.00164516
2.23445
1963.43
0.00197234
2.21963
1963.46
0.00138126
2.19442
1963.46
-0.000813991
2.16292
1963.44
-0.00202566
2.1298
1963.4
-0.00285985
2.09461
1963.34
-0.00359022
2.05953
1963.27
-0.00483732
2.02926
1963.17
-0.00528509
1.99801
1963.07
-0.0022418
1.96034
1962.96
-7.61906e-05
1.92382
1962.83
0.00299522
1.89141
1962.69
0.003535
1.85827
1962.55
0.00398218
1.82428
1962.39
0.00450044
1.78975
1962.23
0.00511694
1.74727
1962.04
0.00487647
1.716
0.00205516
1.58694
1960.94
0.000139034
0.62225
1961.7
0.000192887
1.48005
1962.26
0.000202842
1.84888
1962.64
0.000200608
2.04906
1962.92
0.000216504
2.1646
1963.12
0.000249264
2.22109
1963.27
0.000371893
2.23828
1963.37
-0.000141498
2.23337
1963.43
0.00105769
2.21846
1963.47
0.000625943
2.19383
1963.47
0.000160611
2.16463
1963.44
-0.000664774
2.13221
1963.4
-0.0022052
2.09693
1963.34
-0.00151013
2.06132
1963.26
-0.00124538
2.03094
1963.16
0.000367823
1.99932
1963.06
-0.000957865
1.95851
1962.95
-0.00106906
1.92046
1962.83
-0.00018433
1.88638
1962.7
-0.0011727
1.85407
1962.55
-0.000245925
1.82125
1962.4
0.000779917
1.78798
1962.24
0.00157275
1.74651
1962.05
0.00208184
1.71608
0.00177778
1.58884
1960.94
0.000147127
0.622249
1961.7
0.000225884
1.48005
1962.26
0.00026221
1.8489
1962.64
0.000283361
2.04906
1962.92
0.000322119
2.16459
1963.12
0.000446398
2.2211
1963.27
0.000863636
2.23823
1963.37
0.00113664
2.2339
1963.43
0.00126964
2.21783
1963.46
0.0016607
2.19372
1963.46
0.00207933
2.16427
1963.44
0.00209847
2.1317
1963.4
0.0017163
2.0968
1963.33
-0.00157353
2.0602
1963.25
-0.00331852
2.02951
1963.16
-0.00446906
1.99669
1963.06
-0.00660592
1.95833
1962.95
-0.00536486
1.92184
1962.83
-0.00370969
1.88796
1962.7
-0.000152677
1.85695
1962.55
0.00119334
1.82336
1962.4
0.00183475
1.789
1962.23
0.002297
1.74652
1962.04
0.00243819
1.71515
0.00298551
1.58745
1960.94
0.000146811
0.622241
1961.7
0.000244169
1.48004
1962.26
0.000303479
1.84887
1962.64
0.000332557
2.04905
1962.92
0.000356824
2.16456
1963.12
0.000328697
2.22099
1963.27
6.3124e-05
2.23782
1963.37
-0.000136575
2.23349
1963.44
-0.00082133
2.21733
1963.47
0.000358353
2.19279
1963.47
0.00230037
2.16334
1963.44
0.00258888
2.13119
1963.4
0.00197484
2.09681
1963.34
0.000508409
2.06274
1963.26
-0.000790515
2.033
1963.17
-0.00173537
2.00057
1963.06
-0.000702472
1.96251
1962.95
-0.00154744
1.92373
1962.82
-0.00350962
1.88827
1962.69
-0.00276435
1.85466
1962.55
-0.00194728
1.82079
1962.39
-0.00131721
1.78679
1962.23
-0.000887863
1.74495
1962.05
-0.000934201
1.71441
-0.000666083
1.58651
1960.94
0.000139169
0.622234
1961.7
0.000255352
1.48004
1962.26
0.000332827
1.84886
1962.64
0.000373872
2.04903
1962.92
0.000382072
2.16454
1963.12
0.000419061
2.22101
1963.27
0.000412242
2.23807
1963.37
0.000904231
2.23375
1963.43
0.000973108
2.21838
1963.46
0.0011361
2.19278
1963.46
-0.000440569
2.1613
1963.44
-0.00063211
2.12866
1963.4
-0.000553911
2.0945
1963.34
-0.000854951
2.06114
1963.27
-0.00178414
2.0322
1963.17
-0.00326168
2.00096
1963.07
-0.00147527
1.96286
1962.96
-0.000416869
1.9254
1962.83
0.00159812
1.89204
1962.7
0.00133348
1.85799
1962.55
0.000679276
1.82327
1962.4
3.34356e-05
1.78831
1962.23
-0.000641931
1.7455
1962.05
-0.00106887
1.7144
-0.00192477
1.58599
1960.94
0.000126003
0.622229
1961.7
0.000265385
1.48003
1962.26
0.00035607
1.84884
1962.64
0.000408573
2.04902
1962.92
0.000432974
2.16452
1963.12
0.000444391
2.22096
1963.27
0.000664428
2.23803
1963.37
0.000356769
2.23333
1963.43
0.000861187
2.21802
1963.46
0.000145843
2.19253
1963.46
0.000661018
2.16305
1963.44
0.00163281
2.13063
1963.4
0.00170697
2.09595
1963.34
0.00137904
2.06208
1963.26
0.00129505
2.0332
1963.16
0.00150585
2.00211
1963.06
-0.00254847
1.96143
1962.95
-0.00324195
1.92292
1962.83
-0.00306493
1.88811
1962.7
-0.00342814
1.85492
1962.56
-0.0031443
1.82155
1962.4
-0.00239844
1.78791
1962.24
-0.00173788
1.74627
1962.05
-0.00206254
1.71608
-0.00062707
1.58885
1960.94
0.000112149
0.62222
1961.7
0.000266011
1.48001
1962.26
0.000375732
1.84882
1962.64
0.000429695
2.04899
1962.92
0.00043439
2.16449
1963.12
0.000319872
2.22091
1963.27
-0.000238123
2.23774
1963.37
-0.000879615
2.23341
1963.44
-0.00177571
2.21733
1963.47
-0.00138722
2.19258
1963.47
0.00057672
2.16286
1963.44
0.00395163
2.13021
1963.4
0.00478738
2.09584
1963.34
0.00491935
2.06253
1963.26
0.00483549
2.03362
1963.17
0.00431719
2.002
1963.06
0.00297949
1.96411
1962.95
-0.000932258
1.92514
1962.82
-0.00375558
1.88936
1962.69
-0.0072855
1.85563
1962.55
-0.00759095
1.82161
1962.39
-0.0063614
1.78731
1962.23
-0.00441541
1.74529
1962.04
-0.000236249
1.716
0.00128444
1.58789
1960.94
9.94186e-05
0.622211
1961.7
0.000266959
1.47999
1962.26
0.000398256
1.84879
1962.64
0.000462709
2.04895
1962.92
0.000451559
2.16445
1963.12
0.000378788
2.22091
1963.27
0.00020032
2.23813
1963.37
-1.48017e-06
2.23405
1963.43
-7.53785e-05
2.21879
1963.46
0.000280369
2.19387
1963.46
0.00100757
2.16238
1963.44
0.00172296
2.12669
1963.4
0.00207397
2.09163
1963.34
0.00205615
2.05838
1963.26
0.00203564
2.02969
1963.17
0.00136962
1.99846
1963.07
-0.000408792
1.96174
1962.96
-0.00190679
1.92587
1962.83
-0.00275079
1.89195
1962.7
-0.00312777
1.86087
1962.55
-0.00319572
1.82667
1962.4
-0.00266291
1.79148
1962.23
-0.00183154
1.7482
1962.04
-0.000757721
1.71622
3.7672e-05
1.58742
1960.94
9.01023e-05
0.6222
1961.7
0.000297622
1.47996
1962.26
0.000477897
1.84876
1962.64
0.000538618
2.0489
1962.92
0.000499047
2.16441
1963.12
0.000486283
2.2209
1963.27
0.000484975
2.23819
1963.37
0.000625673
2.23421
1963.43
0.00137715
2.21903
1963.46
0.00161883
2.19399
1963.46
0.00121915
2.16215
1963.44
-0.000355688
2.1261
1963.4
-0.000319318
2.09086
1963.34
-0.000750106
2.05772
1963.26
-0.000354464
2.02897
1963.17
-0.000341599
1.99816
1963.07
-0.00249893
1.9623
1962.95
-0.00215171
1.92683
1962.83
-0.0013394
1.89297
1962.69
0.00097731
1.86183
1962.55
0.000732121
1.82744
1962.39
0.000433257
1.79195
1962.22
0.000217052
1.74834
1962.04
-0.00150859
1.71605
-0.00109518
1.58709
1960.94
9.01825e-05
0.622181
1961.7
0.000491775
1.47989
1962.26
0.000718371
1.84869
1962.64
0.000656655
2.04882
1962.92
0.000544162
2.16438
1963.12
0.000508993
2.22089
1963.27
0.000580681
2.23818
1963.37
0.000466748
2.23419
1963.43
-7.88304e-05
2.21849
1963.46
0.000198732
2.19333
1963.47
-0.000535059
2.16227
1963.44
-1.27237e-05
2.12797
1963.4
0.00185656
2.093
1963.34
0.0021157
2.06044
1963.26
0.00243418
2.03081
1963.16
0.00221278
1.99906
1963.06
0.00279414
1.96369
1962.94
0.000898755
1.92678
1962.82
-0.000407472
1.89173
1962.68
-0.00105919
1.85829
1962.54
-0.00334041
1.82436
1962.39
-0.00336149
1.78961
1962.22
-0.00247758
1.74693
1962.03
-0.000365479
1.71688
0.000848326
1.58807
1960.94
0.000162185
0.622133
1961.7
0.00125017
1.4797
1962.26
0.0013872
1.84855
1962.64
0.00106809
2.04862
1962.92
0.000729506
2.16422
1963.12
0.000626979
2.22076
1963.27
0.000791427
2.23805
1963.37
0.00101457
2.23412
1963.43
0.0014447
2.21892
1963.46
0.00281912
2.19362
1963.46
0.00305674
2.16278
1963.44
0.00236355
2.12713
1963.39
0.000359149
2.09023
1963.33
-5.60323e-05
2.05732
1963.25
-0.000882446
2.02731
1963.17
-0.00145869
1.99613
1963.07
-0.00164318
1.96106
1962.96
-0.00393006
1.9264
1962.84
-0.00406555
1.89289
1962.71
-0.00360573
1.86041
1962.56
-0.000786326
1.82849
1962.4
0.000445205
1.7936
1962.23
0.00151748
1.75004
1962.04
0.0026167
1.7178
0.00125477
1.58755
1960.94
0.00124442
0.621865
1961.7
0.00278667
1.47946
1962.26
0.00204034
1.84818
1962.64
0.000900204
2.04875
1962.92
0.000522756
2.16436
1963.12
0.000420122
2.22083
1963.27
0.00013299
2.2379
1963.37
-0.000219982
2.23383
1963.43
-0.000628009
2.21833
1963.47
-0.00171189
2.19162
1963.47
-0.000590877
2.16099
1963.44
0.0016246
2.12691
1963.4
0.00188443
2.0921
1963.34
0.00194226
2.05947
1963.26
0.00146272
2.03034
1963.17
0.00102681
1.99919
1963.07
0.000485974
1.96293
1962.96
0.00109621
1.92858
1962.83
-0.000274768
1.89391
1962.7
-0.00303335
1.86019
1962.55
-0.00267113
1.82573
1962.4
-0.00187375
1.79042
1962.23
-0.00103142
1.74704
1962.05
-0.00030332
1.71494
0.000316567
1.5867
1960.94
0.622694
1961.7
1.48038
1962.26
1.84895
1962.64
2.04953
1962.91
2.16491
1963.12
2.22113
1963.26
2.23816
1963.37
2.23402
1963.43
2.21868
1963.46
2.19306
1963.46
2.1611
1963.44
2.12481
1963.4
2.0895
1963.34
2.05666
1963.26
2.02786
1963.17
1.99725
1963.07
1.96188
1962.96
1.92717
1962.84
1.89358
1962.7
1.86236
1962.56
1.8278
1962.4
1.79199
1962.24
1.74795
1962.05
1.71534
1.58619
1960.26
0.000244058
0.361328
1960.72
0.000889116
1.02497
1961.18
0.000922186
1.38419
1961.64
0.000916466
1.58538
1962.08
0.000771229
1.727
1962.48
0.000553272
1.82325
1962.84
0.000371847
1.87066
1963.19
0.000200344
1.89254
1963.51
1.04186e-05
1.89867
1963.81
-0.000318726
1.89303
1964.1
-0.000793717
1.87863
1964.36
-0.0013097
1.85787
1964.62
-0.00111905
1.83412
1964.87
-0.000512561
1.80953
1965.11
-0.000158971
1.78057
1965.35
-0.000407325
1.75192
1965.58
-0.00039803
1.72888
1965.8
5.85463e-05
1.70654
1966.01
0.000294771
1.68369
1966.21
0.000802328
1.66121
1966.4
0.000695682
1.63727
1966.58
0.000254658
1.61421
1966.74
-0.000133506
1.58819
1966.88
-0.000485103
1.57937
-0.000543946
1.5378
1960.26
2.27903e-05
0.360459
1960.72
0.000284205
1.02552
1961.18
0.000406475
1.38546
1961.64
0.000511799
1.58638
1962.08
0.000484583
1.72759
1962.48
0.000419829
1.82368
1962.84
0.000336503
1.87103
1963.19
0.000301734
1.89286
1963.51
0.000293785
1.89904
1963.81
0.000144042
1.89359
1964.1
-0.000271889
1.87953
1964.36
-0.00127545
1.85894
1964.62
-0.00160298
1.83473
1964.87
-0.000749199
1.8094
1965.11
-0.00107479
1.77982
1965.35
-0.00169856
1.7512
1965.58
-0.00116691
1.72825
1965.8
-7.9219e-05
1.70575
1966.01
0.000960857
1.68289
1966.21
0.00133405
1.65995
1966.4
0.00110857
1.6361
1966.58
0.000402587
1.61344
1966.74
-3.9864e-05
1.58786
1966.88
-0.00032939
1.57943
-0.000408946
1.53839
1960.26
4.49244e-05
0.360416
1960.72
8.28276e-05
1.02546
1961.18
0.000131947
1.38547
1961.64
0.000150578
1.58636
1962.08
0.000172773
1.72748
1962.48
0.000172207
1.82371
1962.84
0.000202546
1.87106
1963.19
0.000271935
1.89284
1963.51
0.000375666
1.89893
1963.81
0.000433191
1.89349
1964.09
0.000132932
1.87966
1964.36
-0.000631538
1.85979
1964.62
-0.00132456
1.83563
1964.87
-0.00171294
1.80939
1965.11
-0.001518
1.78022
1965.35
-0.00160659
1.75208
1965.58
-0.00184784
1.7284
1965.8
-0.00111652
1.70514
1966.01
-3.28877e-05
1.68171
1966.21
0.000675743
1.65882
1966.4
0.000986429
1.63549
1966.58
0.0012278
1.61367
1966.74
0.001045
1.58848
1966.88
0.000734227
1.58014
0.000489142
1.53883
1960.26
6.55307e-05
0.36041
1960.72
5.92326e-05
1.02544
1961.18
5.4054e-05
1.38542
1961.64
4.95483e-05
1.58631
1962.08
5.81057e-05
1.72746
1962.48
6.3379e-05
1.82364
1962.84
7.36748e-05
1.87096
1963.19
6.89212e-05
1.8927
1963.51
2.97889e-05
1.89867
1963.81
5.61224e-05
1.89299
1964.09
-0.000416675
1.87912
1964.36
-0.000811278
1.8598
1964.62
-0.000991566
1.83643
1964.87
-0.00108917
1.81087
1965.11
-0.000981815
1.78179
1965.36
-0.000564311
1.75399
1965.58
-2.98301e-05
1.73056
1965.8
-0.000173989
1.70652
1966.01
-8.69109e-06
1.6822
1966.21
0.000195838
1.65853
1966.4
0.000304016
1.63465
1966.58