/*--------------------------------*- C++ -*----------------------------------*\
  =========                 |
  \\      /  F ield         | OpenFOAM: The Open Source CFD Toolbox
   \\    /   O peration     | Website:  https://openfoam.org
    \\  /    A nd           | Version:  12
     \\/     M anipulation  |
\*---------------------------------------------------------------------------*/
FoamFile
{
    format      ascii;
    class       volVectorField;
    location    "250";
    object      U;
}
// * * * * * * * * * * * * * * * * * * * * * * * * * * * * * * * * * * * * * //

dimensions      [0 1 -1 0 0 0 0];

internalField   nonuniform List<vector> 
5000
(
(9.9911 9.27714e-06 0.00342426)
(9.98604 2.89214e-06 0.00850356)
(9.97559 -1.08388e-06 0.0102191)
(9.96257 1.01079e-06 0.0109536)
(9.94966 1.13197e-06 0.0113563)
(9.93723 2.07643e-07 0.0115434)
(9.925 -8.62729e-07 0.0115691)
(9.91295 -3.71946e-06 0.0114958)
(9.90114 -8.53388e-06 0.0113483)
(9.88963 -1.22885e-05 0.0111605)
(9.87842 -1.28268e-05 0.0109224)
(9.86759 -8.40679e-06 0.0105987)
(9.85705 -2.96514e-06 0.010347)
(9.84676 -6.32739e-07 0.0101115)
(9.83676 1.74992e-06 0.00989442)
(9.82691 6.16345e-06 0.00967691)
(9.81729 9.97334e-06 0.00944927)
(9.80789 1.18118e-05 0.00921416)
(9.79874 1.25126e-05 0.008967)
(9.78978 8.67985e-06 0.00882092)
(9.78105 3.52887e-06 0.00857805)
(9.77258 -1.22409e-06 0.00832582)
(9.76434 -4.99057e-06 0.00805489)
(9.75658 -7.21552e-06 0.00773467)
(9.7471 -1.12792e-05 0.00711993)
(9.99108 1.17541e-05 0.00341355)
(9.986 2.30207e-06 0.0084842)
(9.97558 -2.50724e-06 0.0102065)
(9.96255 2.7863e-07 0.0109444)
(9.94965 8.35994e-07 0.0113494)
(9.93721 -5.57057e-07 0.0115392)
(9.92497 -2.55186e-06 0.0115667)
(9.91293 -5.40081e-06 0.0114953)
(9.90111 -1.00116e-05 0.0113569)
(9.88955 -1.71258e-05 0.0111616)
(9.87831 -2.19734e-05 0.0109438)
(9.86739 -1.86186e-05 0.0106869)
(9.85682 -1.26577e-05 0.0103554)
(9.8466 -7.79911e-06 0.0101074)
(9.83659 3.56227e-06 0.00987773)
(9.82679 1.40718e-05 0.00965275)
(9.81721 1.71778e-05 0.00941786)
(9.80787 1.52787e-05 0.00916813)
(9.79872 1.08183e-05 0.00902083)
(9.7898 3.28437e-06 0.00878135)
(9.78113 -2.3602e-06 0.00854227)
(9.77266 -5.16544e-06 0.00830222)
(9.76444 -7.20034e-06 0.00803723)
(9.75666 -6.67791e-06 0.00774927)
(9.74718 -6.29257e-06 0.00708945)
(9.99108 1.51508e-06 0.00341178)
(9.986 -4.81054e-07 0.00848234)
(9.97557 -1.59386e-06 0.0102057)
(9.96255 -8.76845e-07 0.0109441)
(9.94964 -7.38548e-07 0.0113495)
(9.9372 -1.36998e-06 0.0115393)
(9.92497 -2.85196e-06 0.0115665)
(9.91292 -3.5833e-06 0.0114966)
(9.9011 -2.62889e-06 0.0113513)
(9.88956 -6.7582e-06 0.0111624)
(9.8783 -1.9222e-05 0.01092)
(9.86737 -2.82468e-05 0.0106887)
(9.85675 -3.52196e-05 0.0104532)
(9.84647 -3.94666e-05 0.0101211)
(9.83647 -2.76684e-05 0.00987351)
(9.82673 -8.89746e-06 0.00964156)
(9.81721 3.90679e-06 0.0094136)
(9.80787 1.04813e-05 0.00918497)
(9.79877 1.3737e-05 0.00895833)
(9.78987 1.38076e-05 0.0087297)
(9.78118 1.17635e-05 0.00849006)
(9.77265 7.65135e-06 0.00834337)
(9.76436 8.29619e-07 0.00808048)
(9.75655 -3.37729e-06 0.0077634)
(9.74704 -8.99664e-07 0.00715345)
(9.99108 4.17582e-07 0.00341154)
(9.986 2.47715e-07 0.00848082)
(9.97557 -6.3165e-07 0.0102045)
(9.96255 -1.01537e-06 0.0109428)
(9.94964 -1.2956e-06 0.0113484)
(9.9372 -1.74442e-06 0.0115384)
(9.92497 -2.17087e-06 0.0115664)
(9.91291 -1.54997e-06 0.0114943)
(9.9011 1.11049e-06 0.0113449)
(9.8896 1.02618e-06 0.0111556)
(9.8784 -6.36071e-06 0.0108819)
(9.86753 -1.75842e-05 0.0106354)
(9.85692 -2.6706e-05 0.010398)
(9.84657 -3.19018e-05 0.0101653)
(9.83641 -3.32303e-05 0.00993067)
(9.82655 -2.17671e-05 0.00969138)
(9.81692 -7.12421e-06 0.00953205)
(9.80754 7.25815e-06 0.00925763)
(9.79843 1.84255e-05 0.00899912)
(9.78954 2.51943e-05 0.00875269)
(9.78088 2.7694e-05 0.00851422)
(9.77243 2.37297e-05 0.00827625)
(9.76422 1.48872e-05 0.00801631)
(9.75644 7.77159e-06 0.00771533)
(9.74695 5.8621e-06 0.00704967)
(9.99108 1.4986e-07 0.00341146)
(9.986 -5.52228e-08 0.00848037)
(9.97557 -7.32804e-07 0.0102042)
(9.96255 -1.27021e-06 0.0109427)
(9.94964 -1.37555e-06 0.011348)
(9.9372 -1.83296e-06 0.0115389)
(9.92497 -1.82046e-06 0.0115635)
(9.91293 -1.36082e-06 0.0114873)
(9.90114 -1.95773e-06 0.0113443)
(9.88967 -1.86447e-06 0.0110981)
(9.87855 1.40261e-06 0.0108725)
(9.86765 6.2428e-06 0.0106314)
(9.85708 1.08039e-05 0.0103977)
(9.8467 1.49082e-05 0.010166)
(9.83657 1.41187e-05 0.00993601)
(9.82668 4.17375e-06 0.00970656)
(9.81707 -5.56457e-06 0.00945428)
(9.80766 -9.60429e-06 0.00929078)
(9.79851 -1.16885e-05 0.00903021)
(9.78962 -1.14592e-05 0.00877584)
(9.78095 -6.83928e-06 0.00852952)
(9.77253 -1.06215e-06 0.00827878)
(9.76432 6.09307e-06 0.00800457)
(9.75656 1.26498e-05 0.00768617)
(9.74706 1.2433e-05 0.00709961)
(9.99108 8.99319e-08 0.00341145)
(9.986 -1.24719e-08 0.00848023)
(9.97557 -4.12483e-07 0.0102041)
(9.96255 -1.0016e-06 0.0109426)
(9.94964 -1.39079e-06 0.0113481)
(9.9372 -1.95083e-06 0.0115382)
(9.92497 -2.63375e-06 0.0115662)
(9.91292 -4.37087e-06 0.0114962)
(9.9011 -1.02188e-05 0.0113574)
(9.88956 -1.66195e-05 0.011153)
(9.87834 -1.92207e-05 0.0109376)
(9.86742 -1.3735e-05 0.0106916)
(9.85689 3.98317e-07 0.0103651)
(9.84664 1.6758e-05 0.0101163)
(9.8366 2.47447e-05 0.00987686)
(9.82684 2.66952e-05 0.00965047)
(9.81727 1.74017e-05 0.00942562)
(9.80792 6.97299e-06 0.0091991)
(9.79877 -7.43405e-07 0.00896955)
(9.78985 -6.72087e-06 0.00872872)
(9.7811 -1.10638e-05 0.00858773)
(9.77258 -1.31426e-05 0.00834444)
(9.76432 -8.12122e-06 0.00807514)
(9.75651 -2.66827e-06 0.00777293)
(9.74702 -8.97918e-07 0.00710159)
(9.99108 1.28349e-07 0.00341144)
(9.986 9.81011e-08 0.00848022)
(9.97557 -2.58544e-07 0.0102041)
(9.96255 -7.19879e-07 0.0109425)
(9.94964 -1.46845e-06 0.0113481)
(9.9372 -2.10395e-06 0.0115383)
(9.92497 -2.80033e-06 0.0115662)
(9.91292 -3.44475e-06 0.0114965)
(9.90109 -3.7301e-06 0.0113571)
(9.88954 -5.97665e-06 0.0111579)
(9.87826 -1.4745e-05 0.0109317)
(9.86728 -2.41623e-05 0.0107105)
(9.85662 -2.86751e-05 0.0104824)
(9.84625 -2.74398e-05 0.0102083)
(9.83624 -2.30364e-05 0.00987655)
(9.82653 -1.41018e-05 0.00963214)
(9.81701 -2.21441e-06 0.00939739)
(9.80772 1.13629e-05 0.00916665)
(9.79862 2.22049e-05 0.00894333)
(9.78975 2.85527e-05 0.008722)
(9.78107 3.05343e-05 0.0084966)
(9.7726 2.96025e-05 0.00825236)
(9.76431 2.66767e-05 0.00808017)
(9.75648 2.10113e-05 0.00778699)
(9.74697 1.26452e-05 0.00712272)
(9.99108 2.06557e-07 0.00341145)
(9.986 2.31472e-07 0.00848017)
(9.97557 -2.06978e-08 0.0102041)
(9.96255 -4.18234e-07 0.0109426)
(9.94964 -1.12727e-06 0.0113478)
(9.9372 -1.74437e-06 0.0115386)
(9.92497 -2.32641e-06 0.0115663)
(9.91292 -3.01108e-06 0.011494)
(9.90112 -2.7859e-06 0.0113586)
(9.88961 -4.3833e-06 0.0111555)
(9.87847 -1.03866e-05 0.01086)
(9.86765 -1.90139e-05 0.010621)
(9.85706 -2.61988e-05 0.0103876)
(9.84672 -3.06325e-05 0.0101552)
(9.8366 -2.18103e-05 0.00992364)
(9.82676 -7.80558e-06 0.00969828)
(9.81712 6.38513e-06 0.00946375)
(9.80773 1.79445e-05 0.00920712)
(9.79854 2.45236e-05 0.00905079)
(9.7896 2.91553e-05 0.00880032)
(9.78091 3.13979e-05 0.00855057)
(9.77245 2.99239e-05 0.00830076)
(9.76425 1.88822e-05 0.00803025)
(9.75648 7.93542e-06 0.00773757)
(9.74702 4.0485e-06 0.00707579)
(9.99108 2.62348e-07 0.00341145)
(9.986 4.01349e-07 0.0084802)
(9.97557 2.5278e-07 0.0102041)
(9.96255 -2.49502e-08 0.0109425)
(9.94964 -5.26397e-07 0.011348)
(9.9372 -1.07508e-06 0.0115362)
(9.92497 -9.48482e-07 0.0115643)
(9.9129 -2.9678e-06 0.0114548)
(9.90115 -6.37277e-06 0.0113287)
(9.88963 -8.01538e-06 0.0111323)
(9.87844 -8.45601e-06 0.0109027)
(9.86751 -3.41908e-06 0.0106645)
(9.85689 4.13848e-06 0.0104275)
(9.84647 1.15148e-05 0.0101838)
(9.83635 1.49264e-05 0.00995076)
(9.82649 1.51841e-05 0.00977322)
(9.81691 1.53157e-05 0.0094634)
(9.80759 1.32777e-05 0.00920531)
(9.7985 9.80153e-06 0.00896123)
(9.78965 8.06747e-06 0.00872645)
(9.78101 7.18382e-06 0.00849726)
(9.77259 5.54485e-06 0.00826176)
(9.76438 2.74745e-06 0.00800096)
(9.75661 -1.4547e-07 0.00769131)
(9.74709 -6.91498e-07 0.00711205)
(9.99108 3.13552e-07 0.00341151)
(9.986 5.82447e-07 0.0084803)
(9.97557 5.98842e-07 0.0102042)
(9.96254 4.57497e-07 0.0109426)
(9.94964 2.1303e-07 0.011348)
(9.9372 9.76116e-09 0.0115384)
(9.92497 2.66684e-07 0.0115648)
(9.91292 1.45361e-06 0.0114937)
(9.90108 4.03782e-06 0.0113151)
(9.88961 5.8922e-06 0.0111335)
(9.87838 3.8917e-06 0.0109027)
(9.86749 -6.73128e-07 0.0106733)
(9.85684 -6.77673e-06 0.0104795)
(9.84651 -1.27314e-05 0.0101521)
(9.83651 -1.89379e-05 0.00990056)
(9.82674 -1.99311e-05 0.0096655)
(9.81717 -1.28719e-05 0.00942701)
(9.80783 -3.12515e-06 0.00918183)
(9.79874 5.4494e-06 0.00893068)
(9.78981 1.03205e-05 0.00878469)
(9.78111 1.344e-05 0.00854644)
(9.77265 1.51928e-05 0.00830287)
(9.76442 1.59077e-05 0.00804122)
(9.75665 1.30589e-05 0.00772821)
(9.74716 7.03277e-06 0.00712417)
(9.99108 3.80857e-07 0.00341145)
(9.986 7.45415e-07 0.00848019)
(9.97557 9.74493e-07 0.0102041)
(9.96255 9.24969e-07 0.0109426)
(9.94964 9.72732e-07 0.011348)
(9.9372 1.11708e-06 0.0115379)
(9.92497 1.54793e-06 0.0115531)
(9.91293 4.33978e-06 0.0114752)
(9.90114 9.87708e-06 0.0113065)
(9.8897 1.40226e-05 0.0111257)
(9.8785 1.22695e-05 0.0108918)
(9.86762 7.22882e-07 0.0106571)
(9.85697 -1.41239e-05 0.0104215)
(9.84657 -2.42789e-05 0.010183)
(9.83643 -2.99405e-05 0.00994863)
(9.82658 -3.29204e-05 0.00970797)
(9.81693 -2.68822e-05 0.00954085)
(9.80755 -1.64429e-05 0.00925561)
(9.79846 -5.61349e-06 0.00899067)
(9.78959 1.52729e-06 0.00874165)
(9.78095 5.79637e-06 0.00850129)
(9.77253 7.83062e-06 0.00826194)
(9.76435 8.37095e-06 0.00800231)
(9.7566 8.23864e-06 0.00770247)
(9.74713 7.69392e-06 0.00703791)
(9.99108 4.3847e-07 0.00341146)
(9.986 9.44005e-07 0.0084802)
(9.97557 1.3058e-06 0.0102041)
(9.96255 1.42072e-06 0.0109426)
(9.94964 1.63494e-06 0.0113479)
(9.9372 1.90166e-06 0.0115386)
(9.92497 2.20641e-06 0.0115665)
(9.91292 2.57724e-06 0.0114944)
(9.90112 2.72447e-06 0.0113585)
(9.88962 3.57281e-06 0.0111551)
(9.87847 5.7237e-06 0.010859)
(9.86765 5.79292e-06 0.010621)
(9.85706 3.32996e-06 0.0103875)
(9.84671 -3.21431e-07 0.0101558)
(9.8366 -1.77026e-06 0.00992818)
(9.82676 -4.5344e-06 0.00970523)
(9.8171 -9.86598e-06 0.00947273)
(9.8077 -1.2397e-05 0.00921596)
(9.7985 -1.32628e-05 0.00905703)
(9.78955 -1.3393e-05 0.00880403)
(9.78086 -1.34245e-05 0.00855244)
(9.7724 -1.34026e-05 0.00830139)
(9.76419 -1.17605e-05 0.00803023)
(9.75643 -4.72214e-06 0.00773723)
(9.74698 2.3028e-06 0.00707515)
(9.99108 4.45361e-07 0.00341146)
(9.986 1.09884e-06 0.00848026)
(9.97557 1.57093e-06 0.0102042)
(9.96255 1.87925e-06 0.0109425)
(9.94964 2.16311e-06 0.0113481)
(9.9372 2.62134e-06 0.0115373)
(9.92497 2.919e-06 0.0115656)
(9.91291 3.16182e-06 0.0114723)
(9.90113 2.63019e-06 0.011339)
(9.88961 -1.03847e-08 0.0111226)
(9.87843 -2.47609e-06 0.0108983)
(9.86751 -3.20467e-06 0.0106628)
(9.85689 -4.04452e-06 0.0104264)
(9.84646 -2.06324e-06 0.0101839)
(9.83635 1.01922e-06 0.00995321)
(9.82649 4.05215e-06 0.00978063)
(9.8169 7.16277e-06 0.00947408)
(9.80756 6.425e-06 0.00921238)
(9.79846 2.07372e-06 0.00896482)
(9.7896 -2.90687e-06 0.00872708)
(9.78095 -7.34882e-06 0.00849625)
(9.77252 -9.71102e-06 0.00826074)
(9.7643 -1.10992e-05 0.00800026)
(9.75653 -4.08691e-06 0.00769139)
(9.74701 4.6458e-06 0.00711309)
(9.99108 4.40967e-07 0.00341144)
(9.986 1.24504e-06 0.00848023)
(9.97557 1.77706e-06 0.0102042)
(9.96255 2.26219e-06 0.0109426)
(9.94964 2.72902e-06 0.011348)
(9.9372 3.19451e-06 0.0115378)
(9.92497 4.34101e-06 0.0115527)
(9.91293 6.77025e-06 0.0114746)
(9.90114 1.14747e-05 0.0113064)
(9.8897 2.16748e-05 0.0111256)
(9.87849 2.94675e-05 0.0108928)
(9.8676 3.40244e-05 0.01066)
(9.85693 3.41088e-05 0.0104268)
(9.84652 2.39692e-05 0.0101915)
(9.83636 3.15071e-06 0.00995945)
(9.82651 -1.9885e-05 0.00971992)
(9.81686 -3.13593e-05 0.00954763)
(9.80749 -3.71711e-05 0.0092555)
(9.7984 -3.82512e-05 0.00898683)
(9.78953 -3.33309e-05 0.00873565)
(9.78091 -2.38297e-05 0.00849182)
(9.77249 -1.18618e-05 0.00824251)
(9.76429 3.57279e-07 0.00796829)
(9.7565 9.09834e-06 0.00774141)
(9.74701 8.93438e-06 0.00713593)
(9.99108 4.23346e-07 0.00341144)
(9.986 1.2572e-06 0.00848024)
(9.97557 1.91562e-06 0.0102041)
(9.96255 2.42083e-06 0.0109426)
(9.94964 2.92984e-06 0.0113481)
(9.9372 3.37331e-06 0.0115381)
(9.92497 4.50951e-06 0.0115662)
(9.91293 6.33451e-06 0.0114949)
(9.90112 9.96135e-06 0.0113488)
(9.88961 2.01062e-05 0.0111632)
(9.87839 3.26886e-05 0.0109288)
(9.86755 3.88747e-05 0.0106077)
(9.85704 4.03188e-05 0.0103613)
(9.84671 3.35702e-05 0.0101227)
(9.83668 1.36505e-05 0.00989782)
(9.82686 -1.09364e-05 0.00967957)
(9.81724 -2.91081e-05 0.0094541)
(9.80784 -3.93427e-05 0.00922038)
(9.79869 -4.36216e-05 0.00897114)
(9.78972 -4.16758e-05 0.00882358)
(9.78099 -3.37483e-05 0.00857958)
(9.77251 -2.17256e-05 0.00832682)
(9.76427 -1.09064e-05 0.00805525)
(9.75651 -2.97684e-06 0.00773423)
(9.74704 -1.14858e-06 0.00712316)
(9.99108 3.22122e-07 0.00341144)
(9.986 1.10813e-06 0.00848035)
(9.97557 2.05142e-06 0.0102042)
(9.96255 2.51492e-06 0.0109427)
(9.94964 2.76345e-06 0.0113482)
(9.93721 3.411e-06 0.0115383)
(9.92498 3.63498e-06 0.0115663)
(9.91293 3.00041e-06 0.011495)
(9.90112 2.04981e-06 0.01135)
(9.8896 2.78719e-07 0.0111637)
(9.87839 -2.04011e-06 0.0109271)
(9.86755 -3.2365e-06 0.0106063)
(9.85703 -2.46741e-06 0.0103594)
(9.8467 -8.69666e-07 0.0101208)
(9.83667 -1.32175e-06 0.0098975)
(9.82684 1.61307e-06 0.00967873)
(9.81723 5.40358e-06 0.00945307)
(9.80783 8.02493e-06 0.00922009)
(9.79869 8.03967e-06 0.00897122)
(9.78972 2.28509e-06 0.00882403)
(9.78099 -3.79873e-06 0.00858058)
(9.77251 -8.13232e-06 0.00832798)
(9.76427 -9.12544e-06 0.00805632)
(9.7565 -7.20892e-06 0.00773555)
(9.74703 -2.06971e-06 0.00712473)
(9.99108 -2.84281e-08 0.00341151)
(9.986 6.7825e-07 0.00848086)
(9.97558 1.69565e-06 0.0102046)
(9.96255 2.19028e-06 0.0109428)
(9.94965 2.48428e-06 0.0113484)
(9.9372 3.12147e-06 0.011538)
(9.92498 3.92737e-06 0.0115657)
(9.91292 4.37657e-06 0.0114911)
(9.90111 3.92708e-06 0.0113232)
(9.88964 2.97673e-06 0.0111384)
(9.87843 4.24448e-06 0.0108876)
(9.86756 7.70664e-06 0.0106429)
(9.85691 1.0771e-05 0.0103964)
(9.84655 1.20819e-05 0.0101581)
(9.83646 5.77773e-06 0.00993177)
(9.82661 -5.21333e-07 0.00969198)
(9.81696 -4.60199e-06 0.00953032)
(9.80758 -8.24938e-06 0.00925819)
(9.79848 -1.28841e-05 0.00899741)
(9.7896 -1.54929e-05 0.00875048)
(9.78097 -1.51656e-05 0.00850944)
(9.77253 -1.16706e-05 0.00826142)
(9.76432 -6.99386e-06 0.00798654)
(9.75652 -2.72661e-06 0.00775679)
(9.74702 9.01519e-07 0.00714764)
(9.99108 -1.19684e-06 0.00341177)
(9.986 1.15329e-06 0.00848236)
(9.97558 2.47039e-06 0.0102057)
(9.96255 1.84873e-06 0.0109441)
(9.94964 1.76758e-06 0.0113495)
(9.93721 2.65534e-06 0.0115392)
(9.92498 4.22826e-06 0.011567)
(9.91293 6.8906e-06 0.0114963)
(9.90111 1.0017e-05 0.0113554)
(9.88958 1.24652e-05 0.0111526)
(9.87834 1.25892e-05 0.0109372)
(9.86742 1.07506e-05 0.0106902)
(9.85684 7.03828e-06 0.0103602)
(9.84659 2.06392e-06 0.0101136)
(9.83659 -4.27978e-06 0.00988944)
(9.82679 -1.19335e-05 0.00967003)
(9.81719 -1.55191e-05 0.00944172)
(9.80783 -1.64906e-05 0.0092084)
(9.79869 -1.34695e-05 0.00897221)
(9.78978 -8.60057e-06 0.00872579)
(9.78104 -2.89455e-06 0.0085798)
(9.77253 3.19067e-06 0.00833309)
(9.76429 6.91069e-06 0.00806105)
(9.75649 1.59163e-06 0.00775944)
(9.74701 -1.62957e-06 0.00709077)
(9.99108 -1.14913e-05 0.00341349)
(9.986 -1.84436e-06 0.00848415)
(9.97558 3.05373e-06 0.0102066)
(9.96255 5.34059e-07 0.0109444)
(9.94965 -1.17802e-08 0.0113493)
(9.93721 1.51869e-06 0.0115397)
(9.92498 3.67364e-06 0.0115638)
(9.91294 6.23587e-06 0.0114879)
(9.90115 1.02045e-05 0.0113432)
(9.88968 1.36929e-05 0.0110952)
(9.87854 1.49533e-05 0.0108712)
(9.86765 1.10965e-05 0.0106318)
(9.85705 3.90274e-06 0.0103957)
(9.84665 -2.8386e-07 0.0101608)
(9.83657 -1.8804e-06 0.00993866)
(9.82668 -3.80769e-06 0.00971639)
(9.81704 -5.92429e-06 0.00946171)
(9.80761 -5.83092e-06 0.00929694)
(9.79844 -2.70715e-06 0.00903504)
(9.78955 7.87937e-07 0.00878018)
(9.78088 2.80106e-06 0.00853442)
(9.77246 4.38523e-06 0.00828626)
(9.76426 4.5353e-06 0.00802088)
(9.75651 5.75182e-07 0.00770678)
(9.74704 2.06117e-06 0.00709811)
(9.9911 -9.16263e-06 0.00342424)
(9.98604 -2.64781e-06 0.00850357)
(9.9756 1.30557e-06 0.0102191)
(9.96257 -6.28e-07 0.0109537)
(9.94967 -8.1685e-07 0.0113563)
(9.93723 1.30784e-07 0.0115435)
(9.925 1.48566e-06 0.0115691)
(9.91296 2.91385e-06 0.0114954)
(9.90115 4.71143e-06 0.0113482)
(9.88963 9.67711e-06 0.011159)
(9.87841 1.56318e-05 0.010921)
(9.86757 1.82985e-05 0.0106017)
(9.85705 1.7646e-05 0.0103564)
(9.84672 1.58286e-05 0.0101209)
(9.8367 1.07401e-05 0.00990044)
(9.82687 1.93627e-06 0.00968201)
(9.81725 -8.44093e-06 0.00945333)
(9.80786 -1.4851e-05 0.0092181)
(9.79872 -1.83577e-05 0.00896838)
(9.78976 -1.65328e-05 0.00881882)
(9.78103 -1.16748e-05 0.00857347)
(9.77256 -6.18487e-06 0.00831986)
(9.76433 -3.33523e-07 0.00804815)
(9.75657 3.52991e-06 0.00772799)
(9.74709 8.38636e-06 0.00711423)
(10.0012 -2.65592e-06 0.0055307)
(10.0059 -9.39539e-06 0.0111432)
(10.011 -9.34537e-06 0.0131985)
(10.0128 -6.15145e-06 0.0135207)
(10.0142 -3.61157e-06 0.0135479)
(10.0154 -2.46264e-06 0.0134074)
(10.0163 -2.13032e-06 0.0131439)
(10.017 -2.45617e-06 0.0128127)
(10.0174 -3.97849e-06 0.0124613)
(10.0176 -6.87251e-06 0.0120837)
(10.0177 -1.01384e-05 0.011709)
(10.0176 -1.0452e-05 0.0113507)
(10.0175 -5.90589e-06 0.0110226)
(10.0172 -4.26776e-07 0.0107287)
(10.0168 2.45618e-06 0.0104666)
(10.0164 3.31031e-06 0.0102237)
(10.0159 4.60257e-06 0.00998365)
(10.0154 7.33387e-06 0.00974615)
(10.0148 1.12085e-05 0.00951305)
(10.0141 1.48348e-05 0.00928395)
(10.0134 1.40832e-05 0.00905555)
(10.0127 9.87757e-06 0.00883147)
(10.0118 5.35222e-06 0.00854793)
(10.011 9.12982e-07 0.0083681)
(10.0095 -3.77807e-06 0.00735048)
(10.0012 -3.00463e-06 0.00552293)
(10.0059 -1.2146e-05 0.0111422)
(10.011 -1.10791e-05 0.0132028)
(10.0128 -6.71868e-06 0.0135225)
(10.0142 -3.70993e-06 0.0135491)
(10.0154 -2.84535e-06 0.013409)
(10.0164 -2.85266e-06 0.0131458)
(10.017 -3.36207e-06 0.0128159)
(10.0174 -4.93941e-06 0.0124664)
(10.0176 -9.02056e-06 0.0120933)
(10.0177 -1.49836e-05 0.0117196)
(10.0176 -1.95505e-05 0.0113563)
(10.0174 -1.34446e-05 0.0110253)
(10.0172 -4.96154e-06 0.0107252)
(10.0168 -3.5691e-06 0.0104545)
(10.0164 -1.59787e-06 0.0102126)
(10.0159 7.14882e-06 0.00997516)
(10.0154 1.90193e-05 0.00973645)
(10.0148 2.48894e-05 0.00950151)
(10.0141 2.80961e-05 0.00927432)
(10.0134 2.00436e-05 0.00905002)
(10.0126 8.97412e-06 0.0088299)
(10.0118 1.39596e-06 0.00855064)
(10.011 -4.90624e-06 0.00837339)
(10.0095 -7.15859e-06 0.00736007)
(10.0012 -5.74291e-07 0.00552187)
(10.006 -2.31837e-06 0.0111427)
(10.011 -2.66874e-06 0.0132066)
(10.0129 -1.87018e-06 0.0135229)
(10.0142 -1.57578e-06 0.0135492)
(10.0154 -1.90862e-06 0.0134093)
(10.0164 -2.40363e-06 0.0131464)
(10.017 -2.21164e-06 0.0128163)
(10.0174 -7.43856e-07 0.0124669)
(10.0176 2.07444e-07 0.0120951)
(10.0177 -2.55567e-06 0.0117249)
(10.0176 -1.09022e-05 0.011368)
(10.0174 -1.5577e-05 0.0110302)
(10.0171 -1.62401e-05 0.0107183)
(10.0168 -2.11561e-05 0.0104554)
(10.0163 -2.5436e-05 0.0102186)
(10.0159 -1.58903e-05 0.00997019)
(10.0153 3.83389e-07 0.00972527)
(10.0148 1.35757e-05 0.00949504)
(10.0141 1.89443e-05 0.00927552)
(10.0134 1.87325e-05 0.0090572)
(10.0127 1.53952e-05 0.00883908)
(10.0118 1.04129e-05 0.0085595)
(10.011 1.90259e-06 0.00837972)
(10.0095 -4.27183e-06 0.0073614)
(10.0012 -3.44234e-08 0.00552154)
(10.006 -9.07154e-07 0.0111426)
(10.011 -1.79609e-06 0.0132061)
(10.0129 -2.23117e-06 0.0135235)
(10.0142 -2.32959e-06 0.0135499)
(10.0154 -2.41733e-06 0.0134101)
(10.0164 -2.08681e-06 0.0131475)
(10.017 -7.72684e-07 0.0128183)
(10.0174 1.57356e-06 0.012469)
(10.0176 4.21876e-06 0.0120956)
(10.0177 2.38712e-06 0.0117277)
(10.0177 -2.40303e-06 0.01138)
(10.0175 -8.84554e-06 0.0110537)
(10.0172 -1.42505e-05 0.0107447)
(10.0169 -1.6753e-05 0.0104745)
(10.0164 -1.81692e-05 0.0102341)
(10.0159 -1.90176e-05 0.00998179)
(10.0153 -1.43381e-05 0.00972682)
(10.0147 -5.38089e-06 0.00948652)
(10.0141 3.42929e-06 0.00925995)
(10.0134 1.27584e-05 0.00903846)
(10.0126 1.84566e-05 0.00882287)
(10.0118 1.82703e-05 0.00854966)
(10.011 1.22035e-05 0.00837806)
(10.0095 5.36553e-06 0.0073646)
(10.0012 7.61158e-09 0.00552146)
(10.006 -3.29079e-07 0.0111427)
(10.011 -8.77513e-07 0.013206)
(10.0129 -1.27469e-06 0.013524)
(10.0142 -1.49836e-06 0.0135503)
(10.0154 -1.75841e-06 0.0134106)
(10.0164 -2.06368e-06 0.0131479)
(10.017 -2.55508e-06 0.012818)
(10.0174 -4.51868e-06 0.0124673)
(10.0176 -7.43743e-06 0.0120902)
(10.0177 -8.94149e-06 0.0117234)
(10.0177 -5.93152e-06 0.0113761)
(10.0175 -1.01951e-06 0.0110513)
(10.0172 2.70177e-06 0.0107436)
(10.0169 7.33061e-06 0.0104746)
(10.0164 1.29214e-05 0.0102348)
(10.0159 1.39116e-05 0.0099858)
(10.0154 8.24887e-06 0.00973353)
(10.0147 1.80211e-06 0.00949222)
(10.0141 -4.76925e-06 0.00926316)
(10.0134 -8.78468e-06 0.00903884)
(10.0126 -1.00293e-05 0.00882135)
(10.0118 -8.08018e-06 0.00854599)
(10.011 -1.44095e-06 0.0083706)
(10.0095 6.42222e-06 0.00735473)
(10.0012 6.87343e-08 0.00552145)
(10.006 -6.66372e-08 0.0111427)
(10.011 -4.74852e-07 0.013206)
(10.0129 -9.42027e-07 0.0135241)
(10.0142 -1.42461e-06 0.0135504)
(10.0154 -2.05218e-06 0.0134106)
(10.0164 -3.29642e-06 0.0131478)
(10.017 -5.80054e-06 0.0128174)
(10.0174 -1.03525e-05 0.0124674)
(10.0176 -1.60043e-05 0.0120949)
(10.0177 -1.96569e-05 0.0117254)
(10.0176 -2.06867e-05 0.0113702)
(10.0174 -1.49766e-05 0.0110376)
(10.0172 -4.51451e-06 0.0107284)
(10.0168 8.11774e-06 0.0104626)
(10.0164 2.09577e-05 0.0102238)
(10.0159 2.77243e-05 0.00997603)
(10.0154 3.05132e-05 0.00973211)
(10.0148 2.49549e-05 0.00950105)
(10.0141 1.76795e-05 0.00927886)
(10.0134 8.71818e-06 0.00905617)
(10.0126 -2.17677e-06 0.00883611)
(10.0118 -8.27258e-06 0.00855578)
(10.011 -1.01136e-05 0.00837464)
(10.0095 -5.11989e-06 0.00735704)
(10.0012 1.3091e-07 0.00552145)
(10.006 8.73234e-08 0.0111428)
(10.011 -2.4717e-07 0.013206)
(10.0129 -6.96215e-07 0.0135243)
(10.0142 -1.24582e-06 0.0135506)
(10.0154 -1.92483e-06 0.0134108)
(10.0164 -2.49077e-06 0.0131481)
(10.017 -2.98808e-06 0.0128182)
(10.0174 -2.92195e-06 0.0124699)
(10.0176 -2.32189e-06 0.0121017)
(10.0177 -3.56043e-06 0.0117383)
(10.0176 -9.02262e-06 0.0113866)
(10.0174 -1.4745e-05 0.0110469)
(10.0172 -1.67218e-05 0.0107262)
(10.0168 -1.51331e-05 0.010453)
(10.0164 -1.15298e-05 0.0102098)
(10.0159 -7.81782e-06 0.00995895)
(10.0154 -4.72129e-06 0.00971383)
(10.0148 1.45594e-07 0.00948404)
(10.0142 9.80642e-06 0.00926591)
(10.0135 1.96045e-05 0.00905078)
(10.0127 2.34436e-05 0.00883813)
(10.0119 2.4801e-05 0.00856172)
(10.0111 2.52995e-05 0.00838299)
(10.0096 1.92549e-05 0.00736427)
(10.0012 2.07966e-07 0.00552146)
(10.006 2.27949e-07 0.0111428)
(10.011 -1.2949e-08 0.013206)
(10.0129 -4.07198e-07 0.0135243)
(10.0142 -9.05297e-07 0.0135508)
(10.0154 -1.49722e-06 0.0134112)
(10.0164 -1.91255e-06 0.0131485)
(10.017 -1.63475e-06 0.0128183)
(10.0174 -1.42749e-06 0.0124691)
(10.0176 -1.27784e-06 0.0120955)
(10.0177 -2.15099e-06 0.0117301)
(10.0177 -4.52976e-06 0.0113847)
(10.0175 -9.86601e-06 0.0110568)
(10.0172 -1.84031e-05 0.0107498)
(10.0169 -2.52711e-05 0.0104817)
(10.0164 -2.13097e-05 0.0102359)
(10.0159 -1.14761e-05 0.00998291)
(10.0154 -2.49755e-06 0.00973257)
(10.0148 5.43816e-06 0.0094913)
(10.0141 1.32783e-05 0.00926046)
(10.0134 2.05437e-05 0.00903455)
(10.0126 2.73214e-05 0.00881477)
(10.0118 3.26392e-05 0.00853672)
(10.011 2.82659e-05 0.0083605)
(10.0095 1.70086e-05 0.00734991)
(10.0012 2.64728e-07 0.00552146)
(10.006 3.86037e-07 0.0111428)
(10.011 2.5389e-07 0.013206)
(10.0129 -3.92437e-08 0.0135244)
(10.0142 -4.11047e-07 0.0135509)
(10.0154 -8.18318e-07 0.0134113)
(10.0164 -1.27011e-06 0.013149)
(10.017 -1.60161e-06 0.0128194)
(10.0174 -2.41153e-06 0.0124721)
(10.0176 -5.79762e-06 0.0121014)
(10.0177 -8.60426e-06 0.0117422)
(10.0176 -1.0133e-05 0.0113975)
(10.0175 -9.32116e-06 0.0110657)
(10.0172 -5.94887e-06 0.0107504)
(10.0169 -2.25804e-06 0.0104745)
(10.0164 3.81468e-06 0.0102214)
(10.0159 9.92419e-06 0.00996064)
(10.0153 1.38756e-05 0.00970661)
(10.0147 1.56967e-05 0.009469)
(10.0141 1.28923e-05 0.00924438)
(10.0134 1.26374e-05 0.00902568)
(10.0127 1.28832e-05 0.00881423)
(10.0118 1.23719e-05 0.0085442)
(10.0111 1.04192e-05 0.00837382)
(10.0096 6.09949e-06 0.00735987)
(10.0012 3.17102e-07 0.00552149)
(10.006 5.82474e-07 0.0111428)
(10.011 6.03728e-07 0.0132062)
(10.0129 4.75864e-07 0.0135245)
(10.0142 3.16114e-07 0.013551)
(10.0154 3.49876e-07 0.0134115)
(10.0164 8.05697e-07 0.0131491)
(10.017 1.89727e-06 0.0128203)
(10.0174 4.21904e-06 0.0124707)
(10.0176 5.09229e-06 0.0121023)
(10.0177 5.12371e-06 0.0117387)
(10.0176 3.21653e-06 0.011389)
(10.0174 -1.09492e-06 0.0110531)
(10.0172 -6.26551e-06 0.0107418)
(10.0168 -9.76725e-06 0.0104712)
(10.0164 -1.26816e-05 0.0102178)
(10.0159 -1.60542e-05 0.0099621)
(10.0153 -1.29531e-05 0.00971625)
(10.0148 -7.58486e-06 0.00948079)
(10.0141 -1.74026e-06 0.00925328)
(10.0134 3.36232e-06 0.00902933)
(10.0126 7.37515e-06 0.00881208)
(10.0118 1.16046e-05 0.00853711)
(10.011 1.48746e-05 0.00836401)
(10.0095 1.27744e-05 0.00735372)
(10.0012 3.88097e-07 0.00552146)
(10.006 7.73436e-07 0.0111428)
(10.011 9.58113e-07 0.013206)
(10.0129 9.90762e-07 0.0135245)
(10.0142 1.02458e-06 0.0135511)
(10.0154 1.22448e-06 0.0134115)
(10.0164 1.94528e-06 0.0131491)
(10.017 3.465e-06 0.0128209)
(10.0174 5.94473e-06 0.0124692)
(10.0177 1.08355e-05 0.0120981)
(10.0177 1.44764e-05 0.0117388)
(10.0177 1.35322e-05 0.0113967)
(10.0175 6.97213e-06 0.011069)
(10.0173 -3.66621e-06 0.0107615)
(10.0169 -1.24456e-05 0.0104893)
(10.0164 -1.88968e-05 0.0102339)
(10.0159 -2.26881e-05 0.00997011)
(10.0153 -2.21756e-05 0.00971251)
(10.0147 -1.72774e-05 0.00946926)
(10.0141 -7.94758e-06 0.00923941)
(10.0134 -1.92476e-06 0.00901675)
(10.0126 2.01917e-06 0.00880252)
(10.0118 4.51784e-06 0.00853202)
(10.011 6.33981e-06 0.00836361)
(10.0095 6.88543e-06 0.00735421)
(10.0012 4.47433e-07 0.00552146)
(10.006 9.28829e-07 0.0111428)
(10.011 1.25825e-06 0.013206)
(10.0129 1.4412e-06 0.0135245)
(10.0142 1.60529e-06 0.013551)
(10.0154 1.79957e-06 0.0134115)
(10.0164 1.93059e-06 0.0131487)
(10.017 2.23428e-06 0.0128181)
(10.0174 2.48729e-06 0.0124675)
(10.0176 4.61692e-06 0.0120929)
(10.0177 5.64486e-06 0.0117285)
(10.0176 5.96785e-06 0.0113862)
(10.0175 4.50975e-06 0.0110625)
(10.0172 8.46424e-07 0.0107602)
(10.0169 -3.60469e-06 0.0104938)
(10.0164 -5.84004e-06 0.0102443)
(10.0159 -4.35256e-06 0.00998597)
(10.0154 -5.66919e-06 0.00973101)
(10.0148 -6.55178e-06 0.00948575)
(10.0141 -6.85701e-06 0.00925199)
(10.0134 -6.98489e-06 0.00902455)
(10.0126 -7.56185e-06 0.00880519)
(10.0118 -8.81201e-06 0.00852953)
(10.011 -1.04902e-05 0.00835637)
(10.0095 -8.59296e-06 0.00734763)
(10.0012 4.30467e-07 0.00552145)
(10.006 1.08237e-06 0.0111428)
(10.011 1.54158e-06 0.013206)
(10.0129 1.87762e-06 0.0135245)
(10.0142 2.19004e-06 0.0135509)
(10.0154 2.65764e-06 0.0134113)
(10.0164 3.18356e-06 0.0131488)
(10.017 3.91666e-06 0.0128191)
(10.0174 4.16797e-06 0.0124705)
(10.0176 2.46037e-06 0.0120978)
(10.0177 3.21707e-07 0.0117385)
(10.0176 -6.41797e-07 0.0113956)
(10.0175 -2.77175e-06 0.0110682)
(10.0172 -5.90899e-06 0.0107597)
(10.0169 -8.2259e-06 0.0104884)
(10.0164 -9.74858e-06 0.0102342)
(10.0159 -8.23857e-06 0.00997014)
(10.0154 -2.81583e-06 0.00971276)
(10.0148 1.05085e-06 0.00947129)
(10.0141 1.08889e-06 0.00924383)
(10.0134 1.68361e-07 0.0090239)
(10.0127 -2.63858e-06 0.00881265)
(10.0118 -7.0503e-06 0.00854346)
(10.0111 -9.96908e-06 0.00837361)
(10.0095 -8.78085e-06 0.00735996)
(10.0012 4.31544e-07 0.00552143)
(10.006 1.19704e-06 0.0111428)
(10.011 1.77542e-06 0.0132059)
(10.0129 2.2378e-06 0.0135244)
(10.0142 2.71202e-06 0.0135508)
(10.0154 3.25939e-06 0.0134111)
(10.0164 4.03098e-06 0.0131485)
(10.017 5.07209e-06 0.0128199)
(10.0174 6.47476e-06 0.0124676)
(10.0177 9.85819e-06 0.0120952)
(10.0177 1.6836e-05 0.0117354)
(10.0177 2.223e-05 0.0113946)
(10.0175 2.16701e-05 0.0110699)
(10.0172 1.95885e-05 0.0107654)
(10.0169 1.53793e-05 0.0104957)
(10.0164 6.34888e-06 0.0102422)
(10.0159 -9.42822e-06 0.00997856)
(10.0153 -2.34803e-05 0.0097195)
(10.0147 -3.22658e-05 0.00947465)
(10.0141 -3.77445e-05 0.00924397)
(10.0134 -3.5635e-05 0.00902169)
(10.0126 -2.73103e-05 0.00880803)
(10.0118 -1.59016e-05 0.00853581)
(10.011 -2.19801e-08 0.00836152)
(10.0095 9.46728e-06 0.00734878)
(10.0012 4.27893e-07 0.00552142)
(10.006 1.27437e-06 0.0111428)
(10.011 1.9483e-06 0.0132059)
(10.0129 2.46664e-06 0.0135243)
(10.0142 2.94484e-06 0.0135505)
(10.0154 3.41304e-06 0.0134107)
(10.0164 3.8566e-06 0.0131477)
(10.017 4.23958e-06 0.0128161)
(10.0174 5.19284e-06 0.0124635)
(10.0176 9.73662e-06 0.0120876)
(10.0177 1.73839e-05 0.0117171)
(10.0176 2.38379e-05 0.011368)
(10.0174 2.53595e-05 0.0110421)
(10.0172 2.43005e-05 0.0107427)
(10.0169 2.10998e-05 0.0104821)
(10.0164 1.29524e-05 0.0102371)
(10.0159 -2.45179e-06 0.00998679)
(10.0154 -1.94615e-05 0.00974204)
(10.0148 -3.27207e-05 0.00950489)
(10.0141 -3.95996e-05 0.00927406)
(10.0134 -3.98663e-05 0.00904591)
(10.0126 -3.186e-05 0.00882349)
(10.0118 -1.94401e-05 0.00854207)
(10.011 -5.07561e-06 0.0083609)
(10.0095 3.82647e-06 0.00734659)
(10.0012 4.1492e-07 0.00552141)
(10.006 1.38874e-06 0.0111427)
(10.011 2.19358e-06 0.0132059)
(10.0129 2.66878e-06 0.0135241)
(10.0142 2.9177e-06 0.0135503)
(10.0154 3.30596e-06 0.0134104)
(10.0164 3.58185e-06 0.0131472)
(10.017 3.86002e-06 0.0128155)
(10.0174 4.82592e-06 0.0124626)
(10.0176 4.99715e-06 0.0120854)
(10.0177 3.13775e-06 0.0117135)
(10.0176 6.32196e-07 0.0113631)
(10.0174 -1.40532e-06 0.0110371)
(10.0172 -3.61769e-06 0.0107397)
(10.0168 -5.34462e-06 0.0104809)
(10.0164 -7.9139e-06 0.0102385)
(10.0159 -1.09804e-05 0.00999196)
(10.0154 -8.74711e-06 0.00974843)
(10.0148 -3.58377e-06 0.00951125)
(10.0141 5.7767e-07 0.00927931)
(10.0134 1.93935e-06 0.0090494)
(10.0126 9.53438e-07 0.00882495)
(10.0118 -1.59022e-06 0.00854158)
(10.011 -4.16489e-06 0.00835889)
(10.0095 -4.19193e-06 0.00734433)