/*--------------------------------*- C++ -*----------------------------------*\
  =========                 |
  \\      /  F ield         | OpenFOAM: The Open Source CFD Toolbox
   \\    /   O peration     | Website:  https://openfoam.org
    \\  /    A nd           | Version:  12
     \\/     M anipulation  |
\*---------------------------------------------------------------------------*/
FoamFile
{
    format      ascii;
    class       volSymmTensorField;
    location    "1200";
    object      R;
}
// * * * * * * * * * * * * * * * * * * * * * * * * * * * * * * * * * * * * * //

dimensions      [0 2 -2 0 0 0 0];

internalField   nonuniform List<symmTensor> 
80
(
(0.508339 -0.710529 -0 0.508339 -0 0.508339)
(0.503638 -0.232336 -0 0.503638 -0 0.503638)
(0.480157 -0.214852 -0 0.480157 -0 0.480157)
(0.46582 -0.205397 -0 0.46582 -0 0.46582)
(0.457798 -0.197374 -0 0.457798 -0 0.457798)
(0.454401 -0.189997 -0 0.454401 -0 0.454401)
(0.454445 -0.183087 -0 0.454445 -0 0.454445)
(0.457012 -0.176639 -0 0.457012 -0 0.457012)
(0.461384 -0.170687 -0 0.461384 -0 0.461384)
(0.467013 -0.165255 -0 0.467013 -0 0.467013)
(0.473487 -0.160341 -0 0.473487 -0 0.473487)
(0.4805 -0.155922 -0 0.4805 -0 0.4805)
(0.487827 -0.151952 -0 0.487827 -0 0.487827)
(0.495303 -0.14837 -0 0.495303 -0 0.495303)
(0.502804 -0.145103 -0 0.502804 -0 0.502804)
(0.510239 -0.142074 -0 0.510239 -0 0.510239)
(0.517537 -0.139202 -0 0.517537 -0 0.517537)
(0.524646 -0.136406 -0 0.524646 -0 0.524646)
(0.531527 -0.133607 -0 0.531527 -0 0.531527)
(0.538149 -0.13073 -0 0.538149 -0 0.538149)
(0.54449 -0.127706 -0 0.54449 -0 0.54449)
(0.550531 -0.12447 -0 0.550531 -0 0.550531)
(0.556261 -0.120967 -0 0.556261 -0 0.556261)
(0.561669 -0.117148 -0 0.561669 -0 0.561669)
(0.56675 -0.112972 -0 0.56675 -0 0.56675)
(0.5715 -0.108408 -0 0.5715 -0 0.5715)
(0.575918 -0.103432 -0 0.575918 -0 0.575918)
(0.580002 -0.0980281 -0 0.580002 -0 0.580002)
(0.583753 -0.0921902 -0 0.583753 -0 0.583753)
(0.587175 -0.0859189 -0 0.587175 -0 0.587175)
(0.59027 -0.0792234 -0 0.59027 -0 0.59027)
(0.59304 -0.0721199 -0 0.59304 -0 0.59304)
(0.59549 -0.0646314 -0 0.59549 -0 0.59549)
(0.597624 -0.0567875 -0 0.597624 -0 0.597624)
(0.599445 -0.0486235 -0 0.599445 -0 0.599445)
(0.600956 -0.0401797 -0 0.600956 -0 0.600956)
(0.602161 -0.0315009 -0 0.602161 -0 0.602161)
(0.603062 -0.0226353 -0 0.603062 -0 0.603062)
(0.603662 -0.0136344 -0 0.603662 -0 0.603662)
(0.603962 -0.00455141 -0 0.603962 -0 0.603962)
(0.603962 0.00455909 -0 0.603962 -0 0.603962)
(0.603662 0.0136421 -0 0.603662 -0 0.603662)
(0.603063 0.0226429 -0 0.603063 -0 0.603063)
(0.602162 0.0315084 -0 0.602162 -0 0.602162)
(0.600957 0.0401871 -0 0.600957 -0 0.600957)
(0.599446 0.0486308 -0 0.599446 -0 0.599446)
(0.597625 0.0567946 -0 0.597625 -0 0.597625)
(0.595492 0.0646383 -0 0.595492 -0 0.595492)
(0.593042 0.0721266 -0 0.593042 -0 0.593042)
(0.590272 0.0792299 -0 0.590272 -0 0.590272)
(0.587177 0.0859252 -0 0.587177 -0 0.587177)
(0.583756 0.0921961 -0 0.583756 -0 0.583756)
(0.580004 0.0980338 -0 0.580004 -0 0.580004)
(0.57592 0.103437 -0 0.57592 -0 0.57592)
(0.571503 0.108413 -0 0.571503 -0 0.571503)
(0.566753 0.112977 -0 0.566753 -0 0.566753)
(0.561672 0.117152 -0 0.561672 -0 0.561672)
(0.556264 0.120971 -0 0.556264 -0 0.556264)
(0.550534 0.124474 -0 0.550534 -0 0.550534)
(0.544493 0.127709 -0 0.544493 -0 0.544493)
(0.538152 0.130733 -0 0.538152 -0 0.538152)
(0.53153 0.13361 -0 0.53153 -0 0.53153)
(0.524649 0.136409 -0 0.524649 -0 0.524649)
(0.51754 0.139204 -0 0.51754 -0 0.51754)
(0.510241 0.142076 -0 0.510241 -0 0.510241)
(0.502807 0.145104 -0 0.502807 -0 0.502807)
(0.495306 0.148371 -0 0.495306 -0 0.495306)
(0.48783 0.151953 -0 0.48783 -0 0.48783)
(0.480502 0.155923 -0 0.480502 -0 0.480502)
(0.473489 0.160342 -0 0.473489 -0 0.473489)
(0.467015 0.165255 -0 0.467015 -0 0.467015)
(0.461386 0.170687 -0 0.461386 -0 0.461386)
(0.457013 0.176639 -0 0.457013 -0 0.457013)
(0.454446 0.183087 -0 0.454446 -0 0.454446)
(0.454401 0.189996 -0 0.454401 -0 0.454401)
(0.457798 0.197373 -0 0.457798 -0 0.457798)
(0.46582 0.205397 -0 0.46582 -0 0.46582)
(0.480156 0.214852 -0 0.480156 -0 0.480156)
(0.503637 0.232335 -0 0.503637 -0 0.503637)
(0.508338 0.710528 -0 0.508338 -0 0.508338)
)
;

boundaryField
{
    lowerWall
    {
        type            calculated;
        value           uniform (0.508339 -0.122997 -0 0.508339 -0 0.508339);
    }
    upperWall
    {
        type            calculated;
        value           uniform (0.508338 0.122997 -0 0.508338 -0 0.508338);
    }
    front
    {
        type            cyclic;
    }
    back
    {
        type            cyclic;
    }
    defaultFaces
    {
        type            empty;
    }
}


// ************************************************************************* //
