/*--------------------------------*- C++ -*----------------------------------*\
  =========                 |
  \\      /  F ield         | OpenFOAM: The Open Source CFD Toolbox
   \\    /   O peration     | Website:  https://openfoam.org
    \\  /    A nd           | Version:  12
     \\/     M anipulation  |
\*---------------------------------------------------------------------------*/
FoamFile
{
    format      ascii;
    class       volVectorField;
    location    "1200";
    object      U;
}
// * * * * * * * * * * * * * * * * * * * * * * * * * * * * * * * * * * * * * //

dimensions      [0 1 -1 0 0 0 0];

internalField   nonuniform List<vector> 
80
(
(6.63994 0 0)
(7.86026 0 0)
(8.49389 0 0)
(8.90039 0 0)
(9.18537 0 0)
(9.39562 0 0)
(9.55632 0 0)
(9.68268 0 0)
(9.78448 0 0)
(9.8683 0 0)
(9.93867 0 0)
(9.99881 0 0)
(10.051 0 0)
(10.097 0 0)
(10.1379 0 0)
(10.1748 0 0)
(10.2083 0 0)
(10.239 0 0)
(10.2673 0 0)
(10.2935 0 0)
(10.3179 0 0)
(10.3406 0 0)
(10.3618 0 0)
(10.3816 0 0)
(10.4001 0 0)
(10.4174 0 0)
(10.4334 0 0)
(10.4483 0 0)
(10.462 0 0)
(10.4746 0 0)
(10.4861 0 0)
(10.4964 0 0)
(10.5056 0 0)
(10.5137 0 0)
(10.5206 0 0)
(10.5264 0 0)
(10.531 0 0)
(10.5345 0 0)
(10.5368 0 0)
(10.538 0 0)
(10.538 0 0)
(10.5368 0 0)
(10.5345 0 0)
(10.531 0 0)
(10.5264 0 0)
(10.5206 0 0)
(10.5137 0 0)
(10.5056 0 0)
(10.4964 0 0)
(10.486 0 0)
(10.4746 0 0)
(10.462 0 0)
(10.4483 0 0)
(10.4334 0 0)
(10.4173 0 0)
(10.4001 0 0)
(10.3816 0 0)
(10.3618 0 0)
(10.3406 0 0)
(10.3179 0 0)
(10.2935 0 0)
(10.2673 0 0)
(10.239 0 0)
(10.2083 0 0)
(10.1748 0 0)
(10.1379 0 0)
(10.097 0 0)
(10.051 0 0)
(9.99879 0 0)
(9.93866 0 0)
(9.86828 0 0)
(9.78447 0 0)
(9.68267 0 0)
(9.55631 0 0)
(9.3956 0 0)
(9.18535 0 0)
(8.90038 0 0)
(8.49388 0 0)
(7.86025 0 0)
(6.63994 0 0)
)
;

boundaryField
{
    lowerWall
    {
        type            noSlip;
    }
    upperWall
    {
        type            noSlip;
    }
    front
    {
        type            cyclic;
    }
    back
    {
        type            cyclic;
    }
    defaultFaces
    {
        type            empty;
    }
}


// ************************************************************************* //
