/*--------------------------------*- C++ -*----------------------------------*\
  =========                 |
  \\      /  F ield         | OpenFOAM: The Open Source CFD Toolbox
   \\    /   O peration     | Website:  https://openfoam.org
    \\  /    A nd           | Version:  12
     \\/     M anipulation  |
\*---------------------------------------------------------------------------*/
FoamFile
{
    format      ascii;
    class       volScalarField;
    location    "10.88";
    object      p_rgh;
}
// * * * * * * * * * * * * * * * * * * * * * * * * * * * * * * * * * * * * * //

dimensions      [1 -1 -2 0 0 0 0];

internalField   nonuniform List<scalar> 
3829
(
-0.90568
-0.905446
-0.904972
-0.904244
-0.903244
-0.901951
-0.90034
-0.898384
-0.896051
-0.893305
-0.890109
-0.886423
-0.882204
-0.877411
-0.872002
-0.865937
-0.859178
-0.851694
-0.843455
-0.834444
-0.824646
-0.81406
-0.80269
-0.790555
-0.777683
-0.76412
-0.749923
-0.735165
-0.719932
-0.704328
-0.688474
-0.672504
-0.656567
-0.640826
-0.625453
-0.610628
-0.596539
-0.583373
-0.571323
-0.560565
-0.551287
-0.543655
-0.537816
-0.533897
-0.532006
-0.532228
-0.534624
-0.539232
-0.546059
-0.555085
-0.566255
-0.579478
-0.594624
-0.611529
-0.629991
-0.649769
-0.670579
-0.692109
-0.714012
-0.735913
-0.757408
-0.778072
-0.79746
-0.81512
-0.830594
-0.843421
-0.853155
-0.859358
-0.86166
-0.859696
-0.853139
-0.841716
-0.825226
-0.803567
-0.776686
-0.744275
-0.706693
-0.664202
-0.617092
-0.56576
-0.51068
-0.45234
-0.391322
-0.328826
-0.265452
-0.202082
-0.139661
-0.0791688
-0.0215765
0.0321475
0.0810718
0.124325
0.161113
0.190782
0.212782
0.226814
0.231892
0.228355
0.216555
0.196921
0.170015
0.136598
0.0976495
0.0543457
0.00801996
-0.0398473
-0.0877005
-0.133925
-0.176929
-0.215167
-0.247219
-0.271834
-0.288007
-0.295044
-0.292637
-0.28016
-0.258366
-0.228104
-0.190458
-0.146855
-0.0990455
-0.048923
0.00101538
0.0486265
0.0916692
0.127984
0.155674
0.173167
0.179378
0.173818
0.156034
0.127121
0.0884041
0.0416553
-0.010797
-0.0662575
-0.122163
-0.174784
-0.221652
-0.260131
-0.288074
-0.303953
-0.306958
-0.297092
-0.275731
-0.244663
-0.206367
-0.163707
-0.120251
-0.0791994
-0.0436301
-0.0161742
0.00133144
0.00796298
0.00339968
-0.0109196
-0.0331016
-0.0604343
-0.0897183
-0.119214
-0.142837
-0.159723
-0.168172
-0.167692
-0.156615
-0.138502
-0.115365
-0.0900207
-0.0655071
-0.0447225
-0.0299748
-0.0226699
-0.0231809
-0.0309331
-0.0443048
-0.0612789
-0.079291
-0.095274
-0.10751
-0.114349
-0.115396
-0.110534
-0.101702
-0.0904142
-0.078282
-0.0670539
-0.0581201
-0.0524084
-0.0499
-0.0502022
-0.0523541
-0.0553815
-0.0575645
-0.0582311
-0.0568874
-0.0536134
-0.0489991
-0.044014
-0.0397885
-0.0373427
-0.926431
-0.926424
-0.926401
-0.926345
-0.926228
-0.926011
-0.925648
-0.925083
-0.924255
-0.923087
-0.921497
-0.919396
-0.916688
-0.913275
-0.909058
-0.903938
-0.897821
-0.890616
-0.882243
-0.872632
-0.861727
-0.849491
-0.835906
-0.820977
-0.804735
-0.787233
-0.768555
-0.74881
-0.728138
-0.706702
-0.684694
-0.662327
-0.639838
-0.617482
-0.595529
-0.574255
-0.553943
-0.534855
-0.517158
-0.50169
-0.48857
-0.477961
-0.470004
-0.464813
-0.462487
-0.463104
-0.466724
-0.473382
-0.483084
-0.495798
-0.511453
-0.529933
-0.551073
-0.57465
-0.600389
-0.627971
-0.657018
-0.687114
-0.717803
-0.748593
-0.778963
-0.808359
-0.836216
-0.861948
-0.884974
-0.904639
-0.92052
-0.932037
-0.938681
-0.939989
-0.935573
-0.925101
-0.90832
-0.884976
-0.855012
-0.818487
-0.775592
-0.726578
-0.671812
-0.611796
-0.547123
-0.478489
-0.406641
-0.332679
-0.257823
-0.183062
-0.109533
-0.0384298
0.0290553
0.0917363
0.148474
0.198193
0.23993
0.272878
0.296341
0.309854
0.312817
0.305476
0.288117
0.261202
0.225461
0.181895
0.131756
0.076522
0.0178591
-0.0423995
-0.10235
-0.159975
-0.21334
-0.260571
-0.299946
-0.329954
-0.34937
-0.357244
-0.352981
-0.336653
-0.308876
-0.270623
-0.223321
-0.168801
-0.109252
-0.0470405
0.0147568
0.0735171
0.126508
0.171145
0.205148
0.226665
0.234184
0.226422
0.204099
0.168377
0.120824
0.063715
-6.91349e-05
-0.0672335
-0.134211
-0.197213
-0.252888
-0.298175
-0.330643
-0.348496
-0.349052
-0.334543
-0.306378
-0.266798
-0.218892
-0.16613
-0.113062
-0.0634949
-0.0211856
0.010726
0.0300427
0.0357613
0.0280737
0.00840527
-0.0206875
-0.0557551
-0.0928942
-0.128247
-0.157351
-0.177471
-0.186571
-0.183747
-0.170629
-0.148187
-0.1196
-0.0885556
-0.0589091
-0.0341762
-0.0171301
-0.00937642
-0.0112709
-0.0217218
-0.0388288
-0.0600082
-0.0817267
-0.100804
-0.114966
-0.122512
-0.123141
-0.116306
-0.10527
-0.0915675
-0.0772265
-0.0643268
-0.0544637
-0.0485642
-0.046592
-0.0479064
-0.0512945
-0.0559256
-0.0589752
-0.0600637
-0.058639
-0.0548262
-0.0493407
-0.043382
-0.0383216
-0.035393
-0.945899
-0.946703
-0.948305
-0.950671
-0.95373
-0.957381
-0.961488
-0.965891
-0.970407
-0.974837
-0.978966
-0.982557
-0.985362
-0.98713
-0.987604
-0.986525
-0.983643
-0.978725
-0.971556
-0.961953
-0.949769
-0.934901
-0.917293
-0.896944
-0.873905
-0.848288
-0.820259
-0.790044
-0.757918
-0.724206
-0.689284
-0.653572
-0.617529
-0.581641
-0.546403
-0.512324
-0.479932
-0.44976
-0.422441
-0.397791
-0.376352
-0.358547
-0.344755
-0.335308
-0.330473
-0.330454
-0.335378
-0.345299
-0.360192
-0.379956
-0.404419
-0.433327
-0.466363
-0.503149
-0.543244
-0.586143
-0.631277
-0.678026
-0.725723
-0.773647
-0.821048
-0.867126
-0.911079
-0.952071
-0.989349
-1.02209
-1.04952
-1.07089
-1.08552
-1.09283
-1.09228
-1.08346
-1.0661
-1.04006
-1.00369
-0.958798
-0.905385
-0.843712
-0.774274
-0.697785
-0.615115
-0.527306
-0.435569
-0.338017
-0.242227
-0.146433
-0.0522864
0.03854
0.124399
0.203685
0.274856
0.336464
0.387218
0.426064
0.452153
0.464585
0.463275
0.448348
0.420104
0.379168
0.326607
0.263848
0.192634
0.115007
0.033252
-0.0501456
-0.132528
-0.211279
-0.283776
-0.347519
-0.400283
-0.440118
-0.465403
-0.474754
-0.466688
-0.442401
-0.4028
-0.349185
-0.283551
-0.208432
-0.126845
-0.0420331
0.0417979
0.121209
0.192507
0.252261
0.297673
0.326639
0.338305
0.324313
0.292712
0.243906
0.179745
0.103275
0.0183891
-0.0705051
-0.158314
-0.240292
-0.311883
-0.36915
-0.409391
-0.431819
-0.42617
-0.402671
-0.361768
-0.306246
-0.240301
-0.168844
-0.0978915
-0.0326148
0.0219723
0.0618135
0.0841874
0.0878865
0.0737493
0.0436913
0.00148343
-0.0480254
-0.099488
-0.1471
-0.18593
-0.211922
-0.222573
-0.217047
-0.19762
-0.166112
-0.126917
-0.0851011
-0.0458901
-0.0140106
0.00707687
0.0154164
0.0108384
-0.00496693
-0.0291751
-0.0582627
-0.0869461
-0.111552
-0.129057
-0.137624
-0.137309
-0.126592
-0.111429
-0.0932155
-0.0748422
-0.0589696
-0.0475288
-0.0414678
-0.040627
-0.043906
-0.0494379
-0.0573195
-0.0617602
-0.0635809
-0.0619677
-0.0571122
-0.0499754
-0.0421911
-0.0355737
-0.0317505
-0.924336
-0.927136
-0.932769
-0.941194
-0.952271
-0.965744
-0.981275
-0.998439
-1.01675
-1.03567
-1.05464
-1.07311
-1.09046
-1.10606
-1.11926
-1.12945
-1.13601
-1.1384
-1.13612
-1.12873
-1.11593
-1.09748
-1.07329
-1.04337
-1.00786
-0.967038
-0.921265
-0.871039
-0.816975
-0.759791
-0.7003
-0.639363
-0.577884
-0.516787
-0.456986
-0.399348
-0.34463
-0.293298
-0.248066
-0.208763
-0.175652
-0.149033
-0.129205
-0.11645
-0.111015
-0.113085
-0.122755
-0.140032
-0.164827
-0.196957
-0.236137
-0.281969
-0.333952
-0.391499
-0.453919
-0.520447
-0.590229
-0.662332
-0.735768
-0.809504
-0.882462
-0.953267
-1.0212
-1.08491
-1.14324
-1.19508
-1.23935
-1.27504
-1.30117
-1.31691
-1.32151
-1.31434
-1.29488
-1.26259
-1.21863
-1.16223
-1.09367
-1.01347
-0.922454
-0.82165
-0.712277
-0.595743
-0.473641
-0.347686
-0.220258
-0.0932819
0.0310814
0.150598
0.263048
0.366232
0.458068
0.536604
0.600047
0.646954
0.676262
0.686976
0.679163
0.652753
0.608192
0.546462
0.469156
0.378298
0.27636
0.166206
0.0509966
-0.0658696
-0.180569
-0.289558
-0.389259
-0.476313
-0.547741
-0.601169
-0.635119
-0.649754
-0.631953
-0.59476
-0.537452
-0.461291
-0.368902
-0.263794
-0.150172
-0.0326994
0.0830318
0.192056
0.28925
0.369967
0.430179
0.466922
0.478283
0.460636
0.417619
0.35052
0.26248
0.157988
0.0425888
-0.0775603
-0.195358
-0.304299
-0.398039
-0.470993
-0.518579
-0.536957
-0.531817
-0.497924
-0.43915
-0.360596
-0.268495
-0.169796
-0.0731532
0.0144506
0.0862532
0.136924
0.163084
0.163248
0.138956
0.0933341
0.031796
-0.0387816
-0.110953
-0.176508
-0.228998
-0.26304
-0.275483
-0.265728
-0.236356
-0.191173
-0.13631
-0.0788521
-0.0259433
0.0159316
0.0424006
0.0511708
0.0422516
0.0184258
-0.0161337
-0.0569841
-0.0955404
-0.127681
-0.14954
-0.159076
-0.156248
-0.14179
-0.119569
-0.0947674
-0.0707382
-0.0508165
-0.0373728
-0.0313465
-0.0323588
-0.0387019
-0.0478605
-0.0589886
-0.0658704
-0.0687767
-0.0668409
-0.0604526
-0.0508885
-0.0404771
-0.0316335
-0.0265293
-0.8084
-0.815344
-0.829357
-0.850407
-0.878392
-0.912329
-0.951937
-0.996524
-1.04491
-1.09574
-1.14753
-1.19875
-1.24795
-1.2937
-1.33464
-1.36947
-1.39696
-1.41587
-1.42537
-1.42448
-1.41253
-1.38912
-1.35412
-1.30769
-1.25026
-1.18258
-1.10567
-1.02077
-0.929311
-0.832864
-0.73308
-0.631661
-0.530322
-0.430783
-0.334673
-0.24346
-0.158491
-0.0815134
-0.0113958
0.0501696
0.102092
0.143516
0.173804
0.192511
0.19938
0.194321
0.177393
0.148804
0.108892
0.0581378
-0.00286078
-0.073389
-0.152628
-0.239637
-0.333381
-0.432726
-0.536425
-0.643169
-0.75156
-0.860106
-0.967274
-1.07154
-1.17133
-1.26502
-1.35106
-1.42794
-1.49419
-1.54841
-1.58936
-1.61591
-1.62713
-1.62231
-1.60104
-1.56104
-1.50463
-1.43148
-1.34191
-1.23664
-1.11678
-0.983711
-0.839129
-0.68501
-0.523617
-0.357421
-0.189195
-0.0217613
0.141872
0.298661
0.445608
0.579719
0.698192
0.798455
0.87811
0.935101
0.967892
0.975919
0.958804
0.916549
0.849904
0.760378
0.650212
0.522239
0.379876
0.227088
0.0682781
-0.0926629
-0.249157
-0.397186
-0.531802
-0.648348
-0.742596
-0.810857
-0.8499
-0.856722
-0.83953
-0.790046
-0.710924
-0.605517
-0.478041
-0.333533
-0.177859
-0.0171322
0.1401
0.287497
0.418154
0.525668
0.60458
0.650227
0.65911
0.637433
0.579075
0.487523
0.367796
0.226366
0.0709066
-0.0903012
-0.247126
-0.390915
-0.513179
-0.606621
-0.665592
-0.686473
-0.672493
-0.621413
-0.537749
-0.428404
-0.301845
-0.166936
-0.0370642
0.079047
0.172526
0.236467
0.266567
0.261206
0.222761
0.1561
0.0688799
-0.0293951
-0.128813
-0.217539
-0.287294
-0.331102
-0.345072
-0.328905
-0.285943
-0.222378
-0.146764
-0.0687717
0.00157305
0.0560098
0.088814
0.0975486
0.0822222
0.0477198
-0.000114929
-0.057413
-0.108161
-0.149502
-0.176495
-0.186851
-0.180764
-0.160181
-0.128719
-0.0956
-0.0645113
-0.0396721
-0.02398
-0.0183412
-0.022013
-0.0324925
-0.0463769
-0.0615755
-0.0715025
-0.075714
-0.0732527
-0.0648503
-0.0520602
-0.0382485
-0.0265354
-0.0197817
-0.482955
-0.496589
-0.524114
-0.565685
-0.621363
-0.691847
-0.776681
-0.875885
-0.983487
-1.0975
-1.21549
-1.33444
-1.45118
-1.56228
-1.66427
-1.75381
-1.82777
-1.88341
-1.91828
-1.93125
-1.92124
-1.888
-1.83184
-1.75364
-1.65484
-1.53741
-1.40391
-1.2572
-1.10047
-0.936905
-0.769819
-0.602469
-0.438055
-0.279319
-0.128462
0.0128205
0.14334
0.25884
0.359571
0.444956
0.514433
0.5675
0.603779
0.623041
0.625267
0.610594
0.579328
0.53192
0.468983
0.391296
0.299779
0.1955
0.079683
-0.0463546
-0.181149
-0.323112
-0.470523
-0.621576
-0.774361
-0.926897
-1.07721
-1.22317
-1.36268
-1.49362
-1.61392
-1.72156
-1.81466
-1.89136
-1.95005
-1.98918
-2.00748
-2.00386
-1.97747
-1.92918
-1.85804
-1.76419
-1.64838
-1.51174
-1.3558
-1.1825
-0.994115
-0.793317
-0.583156
-0.366979
-0.148433
0.0687665
0.280589
0.482979
0.672013
0.843758
0.994481
1.12084
1.21986
1.28895
1.32592
1.3294
1.29971
1.23697
1.14234
1.01792
0.866732
0.692601
0.500102
0.294534
0.0817076
-0.132128
-0.340179
-0.536005
-0.713165
-0.865627
-0.987904
-1.07524
-1.12416
-1.13217
-1.10272
-1.03259
-0.924063
-0.781245
-0.609716
-0.416185
-0.208342
0.00576662
0.214182
0.408528
0.579906
0.720108
0.822019
0.880188
0.890906
0.857395
0.77702
0.653811
0.494236
0.306895
0.101899
-0.110222
-0.314694
-0.500759
-0.657477
-0.775476
-0.847705
-0.870177
-0.844476
-0.770916
-0.655665
-0.50789
-0.338748
-0.15849
0.0117862
0.162107
0.281219
0.360351
0.394162
0.380846
0.323989
0.23069
0.111436
-0.0210327
-0.154314
-0.271022
-0.361259
-0.416143
-0.430962
-0.405862
-0.345498
-0.258776
-0.157358
-0.0540716
0.0372685
0.106484
0.146074
0.152941
0.129856
0.0819944
0.0192958
-0.06142
-0.125085
-0.177082
-0.209782
-0.220545
-0.210076
-0.181604
-0.138205
-0.0952443
-0.0559003
-0.025455
-0.0073972
-0.00262805
-0.00982722
-0.0255143
-0.0451615
-0.0652663
-0.0787568
-0.0844106
-0.0811374
-0.0697754
-0.0534328
-0.0355149
-0.0203278
-0.0115823
0.127955
0.0938362
0.0250282
-0.0783707
-0.21515
-0.382303
-0.574847
-0.785176
-1.01105
-1.24485
-1.48376
-1.71959
-1.94518
-2.1539
-2.34
-2.49853
-2.62552
-2.71789
-2.77333
-2.79021
-2.76742
-2.70447
-2.60186
-2.46082
-2.284
-2.07534
-1.8407
-1.58725
-1.32245
-1.05231
-0.783131
-0.520777
-0.269798
-0.033524
0.185574
0.386242
0.563615
0.721189
0.856638
0.968658
1.05653
1.12001
1.15914
1.17423
1.16575
1.13434
1.08076
1.00595
0.910979
0.797064
0.665548
0.517931
0.355863
0.181136
-0.00431365
-0.198412
-0.398895
-0.603427
-0.809489
-1.01468
-1.21632
-1.4117
-1.59812
-1.77287
-1.93331
-2.07692
-2.20119
-2.30387
-2.38276
-2.43603
-2.46215
-2.45987
-2.42816
-2.36769
-2.27751
-2.15805
-2.01036
-1.83589
-1.63669
-1.41533
-1.17477
-0.918534
-0.650609
-0.375297
-0.0973336
0.178429
0.446852
0.702667
0.940797
1.15628
1.34437
1.50071
1.62167
1.70424
1.74602
1.74272
1.69715
1.60941
1.48109
1.31494
1.11493
0.886009
0.634193
0.366367
0.0900534
-0.186452
-0.454765
-0.706398
-0.933069
-1.12711
-1.28166
-1.39085
-1.45044
-1.4575
-1.41376
-1.31808
-1.17361
-0.985722
-0.761702
-0.510415
-0.241762
0.0386587
0.306101
0.554849
0.773565
0.951551
1.07996
1.15191
1.16332
1.11538
1.00797
0.84647
0.639335
0.397732
0.13457
-0.138676
-0.39846
-0.633354
-0.829651
-0.97555
-1.0623
-1.08496
-1.04456
-0.943566
-0.790368
-0.597137
-0.378231
-0.142516
0.0741288
0.263582
0.411756
0.507565
0.544581
0.520548
0.440972
0.31544
0.158035
-0.0140161
-0.188812
-0.337054
-0.450595
-0.517593
-0.532349
-0.495588
-0.413911
-0.299361
-0.167312
-0.0342293
0.0814752
0.167294
0.214078
0.218701
0.184494
0.119464
0.0353503
-0.0635319
-0.145661
-0.210193
-0.249043
-0.259563
-0.243474
-0.205703
-0.14739
-0.0934143
-0.0448227
-0.00824227
0.0121552
0.0155186
0.00391576
-0.017993
-0.0443704
-0.0701344
-0.08763
-0.0948059
-0.0904901
-0.0760049
-0.0550609
-0.0323146
-0.0131021
-0.00204935
1.45283
1.39964
1.29305
1.13296
0.918851
0.649298
0.323754
-0.0533691
-0.460316
-0.886018
-1.31617
-1.7398
-2.14649
-2.52657
-2.8715
-3.17357
-3.42575
-3.62169
-3.75579
-3.82328
-3.82062
-3.74612
-3.60008
-3.38468
-3.10492
-2.76817
-2.38553
-1.97406
-1.54907
-1.12691
-0.717561
-0.32794
0.0357333
0.369376
0.670318
0.936098
1.16875
1.36662
1.52981
1.65881
1.75434
1.8172
1.84827
1.84852
1.81899
1.76079
1.67516
1.5634
1.42699
1.26752
1.08676
0.886624
0.669216
0.436804
0.191836
-0.0630924
-0.325191
-0.591541
-0.859064
-1.12461
-1.38489
-1.63656
-1.87627
-2.10064
-2.30641
-2.49037
-2.64952
-2.78102
-2.88228
-2.95106
-2.9854
-2.98377
-2.9451
-2.86955
-2.75665
-2.60711
-2.42224
-2.20393
-1.95481
-1.67812
-1.3777
-1.05798
-0.724002
-0.381249
-0.0356576
0.306629
0.639162
0.955381
1.24883
1.51338
1.74315
1.93279
2.07765
2.17431
2.22029
2.20875
2.14442
2.02765
1.86043
1.64624
1.39015
1.09854
0.778996
0.440245
0.0917782
-0.255851
-0.592233
-0.90675
-1.1891
-1.42963
-1.61991
-1.75287
-1.82316
-1.82783
-1.76698
-1.64129
-1.45498
-1.21487
-0.930381
-0.613245
-0.277953
0.0830951
0.414751
0.724692
0.996585
1.21688
1.37436
1.46085
1.47156
1.40657
1.26758
1.06168
0.79981
0.496609
0.169905
-0.178547
-0.497993
-0.787304
-1.02762
-1.20402
-1.30585
-1.32744
-1.26921
-1.13595
-0.938736
-0.693821
-0.422916
-0.114265
0.149654
0.382356
0.562558
0.676055
0.715529
0.677978
0.571572
0.408468
0.206736
-0.0126276
-0.228979
-0.414763
-0.554383
-0.6342
-0.64776
-0.59662
-0.489841
-0.343046
-0.175973
-0.00889754
0.133963
0.237813
0.291801
0.292701
0.245042
0.159746
0.0513672
-0.0680871
-0.170441
-0.248606
-0.293692
-0.303134
-0.28012
-0.232003
-0.155724
-0.0900203
-0.0313561
0.0117463
0.0343486
0.0357385
0.0188967
-0.0101613
-0.0441154
-0.0761762
-0.0980187
-0.106737
-0.101114
-0.0829922
-0.0568709
-0.0286929
-0.00497559
0.00865171
3.43427
3.32567
3.10596
2.77224
2.32366
1.76329
1.09551
0.351427
-0.445347
-1.26289
-2.08253
-2.86416
-3.58828
-4.23819
-4.8022
-5.27173
-5.64082
-5.90511
-6.06123
-6.10638
-6.03779
-5.85317
-5.55256
-5.13594
-4.60883
-3.98037
-3.26765
-2.50919
-1.76498
-1.07971
-0.459009
0.107869
0.599297
1.02407
1.3907
1.70605
1.97342
2.19402
2.3693
2.50104
2.59098
2.64081
2.65219
2.62666
2.56575
2.47096
2.3439
2.18627
1.99984
1.78656
1.54854
1.28808
1.0077
0.710107
0.398251
0.0752518
-0.255509
-0.590504
-0.92603
-1.25823
-1.58315
-1.89671
-2.19486
-2.4735
-2.72867
-2.95652
-3.15341
-3.31592
-3.44093
-3.52576
-3.56817
-3.56639
-3.51894
-3.42577
-3.28691
-3.10329
-2.87654
-2.60906
-2.30411
-1.96574
-1.59871
-1.20849
-0.801343
-0.383988
0.0362683
0.451932
0.854981
1.23745
1.59153
1.90955
2.18445
2.40973
2.5798
2.69042
2.73976
2.71834
2.63322
2.48406
2.27336
2.00559
1.68714
1.32589
0.931304
0.514165
0.0861199
-0.339808
-0.750941
-1.13428
-1.47727
-1.76826
-1.99698
-2.15492
-2.23592
-2.23634
-2.15584
-1.99616
-1.76271
-1.46404
-1.1117
-0.719656
-0.303443
0.126725
0.536218
0.914924
1.24538
1.51159
1.7003
1.80171
1.81034
1.72559
1.5509
1.29517
0.972002
0.599197
0.197619
-0.220642
-0.610277
-0.959978
-1.24818
-1.45717
-1.57429
-1.59322
-1.51423
-1.34425
-1.09719
-0.792864
-0.455202
-0.089976
0.234979
0.516375
0.731241
0.862868
0.90144
0.850132
0.713329
0.507985
0.256756
-0.0143718
-0.277541
-0.503601
-0.671144
-0.764081
-0.77519
-0.707085
-0.571669
-0.388706
-0.182954
0.0219847
0.19407
0.316943
0.377875
0.373585
0.310285
0.202133
0.067268
-0.075761
-0.199436
-0.291817
-0.342931
-0.350345
-0.31901
-0.259736
-0.16305
-0.0851929
-0.015724
0.0341616
0.0587565
0.0576074
0.0347717
-0.00223095
-0.0444506
-0.083315
-0.109744
-0.119975
-0.112785
-0.0905767
-0.058799
-0.0247066
0.00390405
0.0203179
6.59241
6.45016
6.16345
5.72105
5.1097
4.30768
3.30185
2.02869
0.478979
-0.969115
-2.25517
-3.43427
-4.48587
-5.40193
-6.1835
-6.83022
-7.34148
-7.71526
-7.9484
-8.03668
-7.97364
-7.75093
-7.36276
-6.79511
-6.04303
-5.10559
-3.93049
-2.59426
-1.47601
-0.608558
0.158272
0.816519
1.39552
1.89928
2.32903
2.68534
2.97108
3.19448
3.36184
3.4776
3.54528
3.56758
3.54668
3.48444
3.38258
3.24275
3.06663
2.85602
2.61289
2.33938
2.03789
1.71106
1.36178
0.99319
0.608738
0.212079
-0.192811
-0.601775
-1.0104
-1.41414
-1.80831
-2.18806
-2.54859
-2.88504
-3.19272
-3.46706
-3.70374
-3.89873
-4.04837
-4.14949
-4.19961
-4.19703
-4.13863
-4.02569
-3.85812
-3.63703
-3.36446
-3.04334
-2.67766
-2.27236
-1.83318
-1.36677
-0.880636
-0.382893
0.117697
0.612128
1.09082
1.5442
1.96294
2.33796
2.66071
2.92343
3.11917
3.24181
3.28488
3.26097
3.15478
2.97047
2.71238
2.38632
2.00019
1.56362
1.08808
0.586499
0.0728513
-0.43713
-0.928265
-1.38503
-1.79248
-2.13681
-2.40589
-2.58969
-2.68097
-2.67562
-2.57297
-2.37588
-2.09094
-1.72855
-1.30265
-0.829993
-0.329359
0.180967
0.671134
1.12299
1.51569
1.83047
2.05174
2.1681
2.17327
2.06642
1.85245
1.54236
1.15268
0.704685
0.222822
-0.270437
-0.734619
-1.14862
-1.48741
-1.73033
-1.86273
-1.87744
-1.77504
-1.56458
-1.26302
-0.894109
-0.485667
-0.0584191
0.33051
0.663668
0.914991
1.06542
1.10475
1.03451
0.863579
0.611948
0.307062
-0.0196271
-0.333556
-0.602146
-0.798839
-0.90487
-0.912237
-0.824823
-0.657675
-0.435302
-0.18847
0.0586044
0.26075
0.403255
0.47071
0.459855
0.378924
0.245678
0.0824556
-0.0863809
-0.232231
-0.33908
-0.395803
-0.400222
-0.359096
-0.28691
-0.170548
-0.0792071
0.00176963
0.0585671
0.0848798
0.0806728
0.0512025
0.00562023
-0.0453854
-0.0914161
-0.122574
-0.134249
-0.125253
-0.0986036
-0.0607916
-0.0204228
0.0133653
0.03272
10.7728
10.6002
10.2422
9.66351
8.81326
7.61398
5.89648
3.49426
0.549189
-1.98315
-4.09424
-5.87256
-7.37334
-8.631
-9.66686
-10.4953
-11.1261
-11.5648
-11.8134
-11.8709
-11.729
-11.3745
-10.7952
-9.96345
-8.84468
-7.3965
-5.44768
-2.99824
-1.12482
0.275082
1.31341
2.10333
2.71963
3.20634
3.59339
3.90108
4.14452
4.32988
4.46138
4.54192
4.57336
4.55753
4.49587
4.38986
4.24087
4.0504
3.8201
3.55179
3.24751
2.90955
2.54052
2.14333
1.72123
1.27779
0.816937
0.342866
-0.13988
-0.626392
-1.11158
-1.59017
-2.05672
-2.50558
-2.93115
-3.32777
-3.68997
-4.01245
-4.2902
-4.5185
-4.69311
-4.81029
-4.86695
-4.8604
-4.79167
-4.65771
-4.45931
-4.19807
-3.87657
-3.49835
-3.06818
-2.59195
-2.07646
-1.52957
-0.960141
-0.377734
0.207355
0.784489
1.34248
1.87009
2.35641
2.79084
3.16342
3.46513
3.68808
3.8259
3.87412
3.83407
3.70153
3.4785
3.16949
2.78138
2.32353
1.80737
1.2464
0.65588
0.0523279
-0.545839
-1.12069
-1.65412
-2.1287
-2.52835
-2.83894
-3.0489
-3.14993
-3.13738
-3.01061
-2.77325
-2.43336
-2.00336
-1.49968
-0.942253
-0.353458
0.243166
0.817232
1.34522
1.80263
2.1676
2.42216
2.55321
2.55362
2.42267
2.16662
1.7987
1.33849
0.811288
0.245972
-0.327859
-0.869162
-1.3499
-1.74095
-2.01848
-2.16579
-2.17483
-2.04683
-1.79289
-1.43333
-0.996355
-0.514604
-0.019405
0.435024
0.821659
1.11037
1.27951
1.318
1.22725
1.01942
0.718357
0.356697
-0.0284472
-0.395827
-0.708532
-0.935068
-1.05391
-1.05634
-0.947584
-0.746166
-0.481609
-0.190241
0.0981344
0.332551
0.495113
0.568556
0.549881
0.449649
0.28953
0.0964782
-0.0996649
-0.268209
-0.3895
-0.4513
-0.451825
-0.399544
-0.311472
-0.179593
-0.0722458
0.0207863
0.0844834
0.112202
0.104479
0.0678685
0.0132455
-0.0468896
-0.10031
-0.136241
-0.149265
-0.138263
-0.106912
-0.062804
-0.0159179
0.0232276
0.0456188
15.3513
15.2158
14.9683
14.551
13.9994
13.3111
12.6595
11.8196
1.97159
2.39
2.81648
3.3097
3.78315
4.22112
4.60018
4.92299
5.18017
5.37847
5.52086
5.61007
5.64806
5.63657
5.57665
5.46924
5.31528
5.11572
4.87173
4.58472
4.25637
3.88871
3.48413
3.04539
2.57569
2.07861
1.55816
1.01876
0.465205
-0.0976606
-0.663709
-1.22742
-1.78274
-2.32343
-2.84301
-3.33507
-3.79312
-4.21089
-4.58233
-4.90168
-5.1636
-5.36323
-5.49637
-5.55966
-5.55055
-5.46791
-5.31075
-5.07955
-4.7761
-4.40342
-3.9657
-3.46848
-2.91864
-2.32407
-1.69389
-1.03839
-0.368592
0.303585
0.965886
1.6054
2.20922
2.7648
3.25999
3.68341
4.0248
4.27528
4.42785
4.47771
4.42311
4.26277
3.99887
3.63659
3.18386
2.65157
2.05298
1.40378
0.721588
0.0250167
-0.663731
-1.32448
-1.93643
-2.47958
-2.93549
-3.28806
-3.52411
-3.63425
-3.61329
-3.46078
-3.18116
-2.78393
-2.2836
-1.69943
-1.05451
-0.374731
0.311581
0.971622
1.57747
2.1009
2.51684
2.80485
2.9501
2.94464
2.78801
2.48779
2.05961
1.52633
0.917459
0.266138
-0.391301
-1.01136
-1.56011
-2.00417
-2.31641
-2.47803
-2.48019
-2.32485
-2.02526
-1.60531
-1.09786
-0.541111
0.025497
0.546489
0.987388
1.31372
1.50111
1.53752
1.42481
1.17808
0.825367
0.404876
-0.0406119
-0.463023
-0.820689
-1.07726
-1.20843
-1.20482
-1.07315
-0.835591
-0.526877
-0.188552
0.140011
0.408153
0.590816
0.669614
0.642042
0.521198
0.332942
0.10906
-0.115248
-0.306641
-0.442122
-0.508417
-0.504275
-0.439863
-0.333962
-0.189143
-0.0643037
0.0409761
0.111414
0.140216
0.128593
0.0844837
0.0205325
-0.0489023
-0.109802
-0.150473
-0.164729
-0.151567
-0.115347
-0.064794
-0.0112718
0.0333121
0.0587827
20.4438
20.3971
20.3102
20.1817
20.0332
19.8838
19.7668
19.6471
4.91131
5.02538
5.26544
5.48107
5.71958
5.94984
6.16193
6.35345
6.51632
6.64246
6.72585
6.76392
6.75496
6.69807
6.59275
6.43882
6.23638
5.98585
5.68798
5.3439
4.95516
4.52374
4.05209
3.54317
3.00042
2.42779
1.82971
1.2111
0.577276
-0.0659645
-0.712291
-1.35516
-1.98779
-2.60313
-3.19386
-3.75275
-4.27247
-4.74595
-5.16636
-5.52721
-5.8225
-6.04678
-6.19538
-6.26456
-6.25151
-6.15462
-5.97328
-5.70809
-5.36119
-4.93605
-4.43746
-3.87181
-3.24695
-2.57191
-1.85709
-1.11421
-0.355795
0.404604
1.15307
1.87498
2.55569
3.18106
3.73735
4.21176
4.59276
4.87044
5.03701
5.08703
5.01778
4.82884
4.52293
4.10605
3.58731
2.97916
2.29678
1.55799
0.782854
-0.00796828
-0.788337
-1.53574
-2.22675
-2.83878
-3.35104
-3.7454
-4.0071
-4.12562
-4.09533
-3.91591
-3.59277
-3.13681
-2.56474
-1.89863
-1.16484
-0.392978
0.38445
1.13132
1.81558
2.40526
2.87214
3.19326
3.35206
3.33984
3.15642
2.81076
2.32098
1.71334
1.02131
0.283251
-0.459159
-1.15852
-1.77552
-2.27249
-2.61903
-2.79424
-2.78849
-2.60458
-2.25803
-1.77636
-1.19733
-0.564647
0.0748454
0.662678
1.15781
1.52142
1.72638
1.75966
1.62386
1.337
0.931391
0.450981
-0.0557352
-0.533747
-0.936511
-1.22287
-1.36573
-1.35515
-1.19947
-0.924582
-0.570624
-0.184914
0.184682
0.48629
0.688685
0.772163
0.734811
0.592444
0.375245
0.1201
-0.132705
-0.346761
-0.49599
-0.566193
-0.556768
-0.479675
-0.356079
-0.197163
-0.0553881
0.0619722
0.138877
0.168443
0.152627
0.1008
0.0274061
-0.0513477
-0.119694
-0.165001
-0.180367
-0.164932
-0.123767
-0.0667307
-0.00656261
0.043454
0.0719958
25.1585
25.1321
25.0821
25.0049
24.9075
24.7889
24.6768
24.522
6.29046
6.52835
6.73457
6.95497
7.16887
7.36902
7.5367
7.6764
7.7845
7.85811
7.8927
7.88502
7.83218
7.7322
7.58341
7.38471
7.13544
6.83544
6.48506
6.08516
5.63714
5.14297
4.60518
4.02691
3.41187
2.7644
2.08936
1.3922
0.678798
-0.0443461
-0.770289
-1.49171
-2.20103
-2.89039
-3.55166
-4.17676
-4.7575
-5.28603
-5.75473
-6.1564
-6.48437
-6.73261
-6.89597
-6.97032
-6.95256
-6.84089
-6.63481
-6.33513
-5.94429
-5.46626
-4.90646
-4.2721
-3.57203
-2.81641
-2.01691
-1.18671
-0.339823
0.508568
1.34289
2.14677
2.90393
3.59856
4.21538
4.74017
5.16013
5.46431
5.64413
5.69349
5.60923
5.39128
5.04292
4.57106
3.986
3.30177
2.53555
1.70734
0.839447
-0.0457424
-0.917184
-1.75065
-2.52011
-3.20036
-3.76826
-4.20368
-4.49022
-4.61642
-4.57606
-4.36915
-4.00187
-3.48678
-2.8427
-2.0945
-1.27185
-0.408125
0.460173
1.29348
2.05556
2.71083
3.22788
3.58134
3.75296
3.73328
3.52245
3.13087
2.57909
1.89684
1.12191
0.297129
-0.529984
-1.30805
-1.99256
-2.54165
-2.92163
-3.10958
-3.09514
-2.882
-2.48794
-1.94422
-1.29349
-0.585088
0.127328
0.781395
1.33003
1.73007
1.95175
1.98102
1.82145
1.4939
1.03507
0.49444
-0.0731846
-0.606606
-1.05397
-1.36946
-1.52332
-1.50504
-1.32469
-1.01195
-0.612413
-0.17959
0.231269
0.565656
0.787139
0.874601
0.826815
0.662403
0.415964
0.129558
-0.151583
-0.387815
-0.550203
-0.623739
-0.608574
-0.518552
-0.377664
-0.20359
-0.0456609
0.0834006
0.166421
0.196452
0.176241
0.116616
0.0338142
-0.0541374
-0.129793
-0.179579
-0.19593
-0.178157
-0.132049
-0.068589
-0.00186197
0.0535044
0.0850662
29.4208
29.404
29.3738
29.3253
29.2706
29.2064
29.1544
29.0937
8.2621
8.25638
8.34642
8.44377
8.56779
8.69518
8.80811
8.90225
8.96828
9.00118
8.99642
8.95038
8.85959
8.72126
8.53301
8.293
7.99997
7.65326
7.25287
6.79943
6.29426
5.73932
5.13729
4.49149
3.80595
3.08537
2.33508
1.56107
0.769767
-0.03164
-0.835546
-1.63388
-2.41829
-3.18013
-3.91043
-4.60026
-5.24064
-5.82288
-6.33862
-6.77996
-7.13956
-7.41083
-7.58815
-7.66701
-7.64399
-7.5172
-7.28623
-6.95206
-6.51749
-5.98696
-5.3665
-4.66415
-3.88974
-3.05455
-2.17154
-1.25526
-0.321262
0.613707
1.53241
2.41679
3.24891
4.01139
4.68741
5.26133
5.71914
6.04887
6.24114
6.2893
6.18978
5.94277
5.55218
5.02576
4.37502
3.61564
2.76657
1.85033
0.891532
-0.087366
-1.0479
-1.96572
-2.81202
-3.55898
-4.18114
-4.65637
-4.96679
-5.09993
-5.04901
-4.81443
-4.40321
-3.82937
-3.11402
-2.2848
-1.37463
-0.420235
0.537411
1.45554
2.29383
3.01321
3.57911
3.96378
4.14741
4.11976
3.88134
3.44398
2.83076
2.07483
1.21812
0.308064
-0.602359
-1.45754
-2.20803
-2.80781
-3.22004
-3.41984
-3.39611
-3.15357
-2.7122
-2.10699
-1.3854
-0.602606
0.181694
0.900613
1.50137
1.93665
2.17406
2.19867
2.01504
1.64686
1.13518
0.535047
-0.0924192
-0.6803
-1.17121
-1.51489
-1.67897
-1.65247
-1.44721
-1.09671
-0.651962
-0.172768
0.27885
0.645012
0.884743
0.975528
0.916878
0.730271
0.454701
0.137502
-0.17143
-0.429102
-0.603954
-0.680282
-0.659068
-0.556096
-0.398291
-0.20874
-0.0353531
0.104907
0.193645
0.223873
0.199156
0.131776
0.0397307
-0.0571827
-0.139924
-0.19399
-0.211203
-0.19107
-0.140091
-0.0703509
0.00276664
0.0633349
0.0978298
33.2415
33.2307
33.2127
33.1827
33.1527
33.1168
33.0912
33.0636
9.55215
9.57402
9.6513
9.72491
9.80798
9.89192
9.96654
10.0285
10.0627
10.0637
10.0272
9.94959
9.82683
9.6554
9.43228
9.15505
8.82194
8.43188
7.98457
7.48047
6.92088
6.30783
5.64416
4.93339
4.17985
3.38868
2.56566
1.71732
0.850649
-0.02652
-0.905901
-1.7787
-2.6358
-3.46779
-4.26487
-5.01732
-5.71531
-6.3494
-6.91049
-7.38995
-7.77985
-8.07304
-8.26346
-8.34625
-8.31758
-8.17554
-7.91987
-7.55173
-7.07422
-6.49226
-5.81247
-5.0437
-4.19673
-3.28394
-2.31955
-1.3195
-0.300679
0.718411
1.71905
2.68154
3.58633
4.4145
5.14777
5.76908
6.26325
6.61736
6.82129
6.86785
6.753
6.4773
6.04522
5.46537
4.75042
3.91766
2.98782
1.98586
0.939166
-0.131736
-1.17827
-2.17784
-3.09859
-3.91005
-4.58453
-5.098
-5.43113
-5.57049
-5.50875
-5.24669
-4.7923
-4.16097
-3.37599
-2.46767
-1.47214
-0.429705
0.614791
1.61522
2.52734
3.30864
3.92158
4.3361
4.53089
4.49495
4.22915
3.74682
3.07349
2.24572
1.30908
0.316376
-0.674974
-1.6049
-2.41914
-3.0677
-3.51075
-3.72146
-3.68811
-3.4164
-2.92855
-2.2632
-1.47253
-0.617237
0.236867
1.01856
1.66957
2.13856
2.39067
2.4101
2.2025
1.79435
1.23096
0.572737
-0.113019
-0.753666
-1.28662
-1.65728
-1.83078
-1.79575
-1.56573
-1.17806
-0.689054
-0.164744
0.326578
0.723255
0.980259
1.07376
1.00403
0.795409
0.491212
0.144023
-0.191815
-0.470001
-0.656552
-0.735174
-0.707737
-0.591982
-0.417718
-0.212839
-0.0247061
0.126173
0.220209
0.250404
0.221152
0.146165
0.0451505
-0.0603987
-0.149931
-0.208052
-0.22601
-0.203532
-0.147816
-0.0720048
0.00727004
0.0728411
0.110154
36.6488
36.6416
36.6306
36.6109
36.5932
36.5701
36.5562
36.5387
10.7189
10.7203
10.7849
10.8481
10.909
10.9606
11.0092
11.0569
11.0679
11.0434
10.9816
10.8784
10.7291
10.5296
10.2762
9.96588
9.59654
9.16668
8.67578
8.12422
7.51329
6.8452
6.12293
5.35027
4.53182
3.67314
2.78052
1.861
0.922138
-0.0276266
-0.979342
-1.92351
-2.85028
-3.74947
-4.61054
-5.42295
-6.17607
-6.85972
-7.46409
-7.97985
-8.39853
-8.71238
-8.91501
-9.00124
-8.96666
-8.80944
-8.52958
-8.12838
-7.60923
-6.97746
-6.2403
-5.40734
-4.49034
-3.50273
-2.4599
-1.37917
-0.278693
0.821287
1.90067
2.93814
3.91263
4.80376
5.59182
6.25841
6.78718
7.16434
7.37909
7.42384
7.29375
6.99007
6.51771
5.88613