#           v             n
     0.523599             0
     0.648652             0
     0.790112             0
     0.953116             0
      1.13449             0
      1.34047             0
      1.56672             0
      1.82069             0
      2.09677   3.03625e-10
      2.40376   1.03555e-08
      2.73462   1.89259e-07
      3.09966    1.7691e-06
      3.49026    1.2079e-05
      3.91837   5.49837e-05
      4.37366   0.000200538
      4.86986   0.000545048
       5.3948    0.00124322
      5.96412    0.00223908
      6.56366    0.00346837
      7.21112    0.00438403
      7.89023    0.00483636
      8.62085    0.00444964
      9.38447    0.00361343
      10.2033    0.00248898
      11.0564    0.00152871
      11.9684   0.000807788
      12.9159   0.000384206
      13.9262   0.000159139
      14.9731   0.000191853
