# Selection       : all 
# Volume          : 1.0000000000e-01
# Time            	maxMag(U)	location	cell
1                 	8.6294238980e+00	(0.0000000000e+00 0.0000000000e+00 0.0000000000e+00)	0
