/*--------------------------------*- C++ -*----------------------------------*\
  =========                 |
  \\      /  F ield         | OpenFOAM: The Open Source CFD Toolbox
   \\    /   O peration     | Website:  https://openfoam.org
    \\  /    A nd           | Version:  12
     \\/     M anipulation  |
\*---------------------------------------------------------------------------*/
FoamFile
{
    format      ascii;
    class       volVectorField;
    location    "15.34";
    object      U;
}
// * * * * * * * * * * * * * * * * * * * * * * * * * * * * * * * * * * * * * //

dimensions      [0 1 -1 0 0 0 0];

internalField   nonuniform List<vector> 
3829
(
(-5.93163e-06 -0.000376214 0)
(-1.93284e-05 -0.000399416 0)
(-3.15923e-05 -0.000398526 0)
(-4.51013e-05 -0.000396379 0)
(-5.86996e-05 -0.000393495 0)
(-7.3043e-05 -0.00038986 0)
(-8.80189e-05 -0.000385487 0)
(-0.000103805 -0.000380399 0)
(-0.000120426 -0.00037462 0)
(-0.000138023 -0.000368186 0)
(-0.000156612 -0.000361151 0)
(-0.000176229 -0.000353573 0)
(-0.000196951 -0.00034552 0)
(-0.000218732 -0.000337059 0)
(-0.000241561 -0.000328271 0)
(-0.000265383 -0.000319231 0)
(-0.000290142 -0.000310038 0)
(-0.000315747 -0.000300772 0)
(-0.00034207 -0.000291517 0)
(-0.00036896 -0.000282344 0)
(-0.000396278 -0.000273342 0)
(-0.000423805 -0.000264568 0)
(-0.000451381 -0.000256095 0)
(-0.000478755 -0.00024798 0)
(-0.000505711 -0.00024025 0)
(-0.000531973 -0.000232957 0)
(-0.00055736 -0.000226131 0)
(-0.000581762 -0.00021978 0)
(-0.000604693 -0.000213895 0)
(-0.000625908 -0.000208521 0)
(-0.000645393 -0.000203622 0)
(-0.000662814 -0.00019919 0)
(-0.000678279 -0.000195194 0)
(-0.00069119 -0.000191572 0)
(-0.000701412 -0.000188338 0)
(-0.000709227 -0.000185399 0)
(-0.000714247 -0.000182721 0)
(-0.000716515 -0.000180241 0)
(-0.000715703 -0.000177873 0)
(-0.000711592 -0.00017567 0)
(-0.000704227 -0.000173665 0)
(-0.000693754 -0.000171825 0)
(-0.000680219 -0.000170116 0)
(-0.000663708 -0.000168507 0)
(-0.000644389 -0.000166945 0)
(-0.000622365 -0.00016537 0)
(-0.000597816 -0.000163729 0)
(-0.000570774 -0.000161955 0)
(-0.000541487 -0.000160016 0)
(-0.000510136 -0.00015783 0)
(-0.000476935 -0.000155384 0)
(-0.000442132 -0.000152594 0)
(-0.000405911 -0.000149459 0)
(-0.000368387 -0.000145896 0)
(-0.000330058 -0.00014199 0)
(-0.000291497 -0.000137562 0)
(-0.000252793 -0.000132699 0)
(-0.000213958 -0.000127247 0)
(-0.0001756 -0.00012144 0)
(-0.000138244 -0.000115003 0)
(-0.0001019 -0.000108128 0)
(-6.71623e-05 -0.000100767 0)
(-3.44473e-05 -9.30076e-05 0)
(-3.98574e-06 -8.47807e-05 0)
(2.38681e-05 -7.61573e-05 0)
(4.89968e-05 -6.71777e-05 0)
(7.10718e-05 -5.7898e-05 0)
(8.9881e-05 -4.83855e-05 0)
(0.00010509 -3.8772e-05 0)
(0.000116315 -2.90747e-05 0)
(0.000123815 -1.94164e-05 0)
(0.000127104 -9.88353e-06 0)
(0.00012616 -6.16889e-07 0)
(0.000120889 8.29801e-06 0)
(0.000111591 1.67768e-05 0)
(9.84055e-05 2.46436e-05 0)
(8.19234e-05 3.19056e-05 0)
(6.16162e-05 3.82757e-05 0)
(3.8156e-05 4.395e-05 0)
(1.22862e-05 4.84903e-05 0)
(-1.61491e-05 5.20782e-05 0)
(-4.59961e-05 5.44925e-05 0)
(-7.68348e-05 5.57638e-05 0)
(-0.000108218 5.5784e-05 0)
(-0.00013953 5.45969e-05 0)
(-0.000169959 5.21486e-05 0)
(-0.000198959 4.85661e-05 0)
(-0.000225619 4.37813e-05 0)
(-0.000249516 3.79693e-05 0)
(-0.000269874 3.1211e-05 0)
(-0.000286079 2.36088e-05 0)
(-0.000297718 1.53356e-05 0)
(-0.000304344 6.58083e-06 0)
(-0.00030531 -2.46096e-06 0)
(-0.000300174 -1.15832e-05 0)
(-0.000289041 -2.05849e-05 0)
(-0.000272083 -2.92434e-05 0)
(-0.000249664 -3.73435e-05 0)
(-0.000222082 -4.46327e-05 0)
(-0.00018989 -5.09168e-05 0)
(-0.000153677 -5.59526e-05 0)
(-0.000114276 -5.96156e-05 0)
(-7.25996e-05 -6.17129e-05 0)
(-2.97002e-05 -6.21892e-05 0)
(1.32499e-05 -6.09425e-05 0)
(5.51236e-05 -5.79951e-05 0)
(9.45178e-05 -5.33772e-05 0)
(0.000130478 -4.71936e-05 0)
(0.000161623 -3.96106e-05 0)
(0.000187091 -3.07955e-05 0)
(0.000205766 -2.11291e-05 0)
(0.000217156 -1.0701e-05 0)
(0.000220648 -1.8142e-07 0)
(0.000215416 1.0384e-05 0)
(0.000201996 2.02926e-05 0)
(0.000180835 2.95237e-05 0)
(0.000152822 3.74322e-05 0)
(0.000118857 4.38382e-05 0)
(8.01442e-05 4.83164e-05 0)
(3.83744e-05 5.08301e-05 0)
(-4.88791e-06 5.09966e-05 0)
(-4.76695e-05 4.88797e-05 0)
(-8.78893e-05 4.45362e-05 0)
(-0.000123515 3.81545e-05 0)
(-0.000153088 2.98424e-05 0)
(-0.000174947 2.02576e-05 0)
(-0.000187779 9.52008e-06 0)
(-0.000190596 -1.54717e-06 0)
(-0.000182715 -1.26653e-05 0)
(-0.000164663 -2.29508e-05 0)
(-0.000137167 -3.21348e-05 0)
(-0.000101843 -3.94891e-05 0)
(-6.03748e-05 -4.46079e-05 0)
(-1.45111e-05 -4.72021e-05 0)
(3.29159e-05 -4.68379e-05 0)
(7.83722e-05 -4.37568e-05 0)
(0.000119458 -3.7788e-05 0)
(0.000153634 -2.9672e-05 0)
(0.00017845 -1.93623e-05 0)
(0.000192287 -8.06203e-06 0)
(0.000193464 4.00881e-06 0)
(0.000181389 1.5597e-05 0)
(0.000157144 2.63039e-05 0)
(0.000122196 3.50359e-05 0)
(7.88778e-05 4.14399e-05 0)
(3.00113e-05 4.46071e-05 0)
(-2.16822e-05 4.45993e-05 0)
(-7.14123e-05 4.11118e-05 0)
(-0.000115024 3.45588e-05 0)
(-0.000149613 2.53589e-05 0)
(-0.000172367 1.42798e-05 0)
(-0.000181429 2.20003e-06 0)
(-0.000175468 -9.80965e-06 0)
(-0.000154866 -2.07527e-05 0)
(-0.000121925 -2.97433e-05 0)
(-7.95116e-05 -3.58922e-05 0)
(-3.13698e-05 -3.86577e-05 0)
(1.85888e-05 -3.77107e-05 0)
(6.51336e-05 -3.31602e-05 0)
(0.000103305 -2.56588e-05 0)
(0.000130075 -1.5896e-05 0)
(0.000143095 -4.96009e-06 0)
(0.00014087 5.93319e-06 0)
(0.000124009 1.56985e-05 0)
(9.52512e-05 2.31995e-05 0)
(5.81145e-05 2.77176e-05 0)
(1.66399e-05 2.86499e-05 0)
(-2.34835e-05 2.59662e-05 0)
(-5.6805e-05 2.02042e-05 0)
(-7.99236e-05 1.21758e-05 0)
(-9.02702e-05 3.07322e-06 0)
(-8.65904e-05 -5.86378e-06 0)
(-7.00342e-05 -1.34278e-05 0)
(-4.38885e-05 -1.85771e-05 0)
(-1.15043e-05 -2.0595e-05 0)
(2.13206e-05 -1.91316e-05 0)
(4.8438e-05 -1.47008e-05 0)
(6.63588e-05 -8.1036e-06 0)
(7.25051e-05 -4.91859e-07 0)
(6.59253e-05 6.68735e-06 0)
(4.83353e-05 1.23987e-05 0)
(2.3342e-05 1.56046e-05 0)
(-5.39084e-06 1.57856e-05 0)
(-3.15064e-05 1.28234e-05 0)
(-4.915e-05 7.56627e-06 0)
(-5.61869e-05 1.02726e-06 0)
(-5.11324e-05 -5.39176e-06 0)
(-3.52016e-05 -1.05714e-05 0)
(-1.1259e-05 -1.35143e-05 0)
(1.577e-05 -1.36767e-05 0)
(3.95953e-05 -1.11464e-05 0)
(5.61589e-05 -6.75925e-06 0)
(6.32106e-05 -1.61316e-06 0)
(6.03166e-05 3.0276e-06 0)
(4.93681e-05 6.2333e-06 0)
(3.42965e-05 7.445e-06 0)
(1.93703e-05 6.72832e-06 0)
(7.9254e-06 4.69878e-06 0)
(1.6125e-06 2.37756e-06 0)
(-1.05353e-07 7.72933e-07 0)
(-5.68934e-07 0.000579262 0)
(-2.84281e-07 0.000597705 0)
(-2.14222e-07 0.000600174 0)
(-6.64216e-07 0.000603409 0)
(-1.86319e-06 0.000607635 0)
(-4.004e-06 0.000612781 0)
(-7.38225e-06 0.000618722 0)
(-1.22377e-05 0.000625296 0)
(-1.86814e-05 0.000632297 0)
(-2.71016e-05 0.000639541 0)
(-3.76252e-05 0.000646708 0)
(-5.03876e-05 0.000653588 0)
(-6.55276e-05 0.000659812 0)
(-8.30154e-05 0.000665207 0)
(-0.000102878 0.000669359 0)
(-0.000125161 0.000672102 0)
(-0.000149786 0.000673097 0)
(-0.0001765 0.000672161 0)
(-0.000205073 0.000669023 0)
(-0.000235354 0.000663526 0)
(-0.000267043 0.000655487 0)
(-0.000299786 0.000644807 0)
(-0.000333406 0.000631372 0)
(-0.000367283 0.000615197 0)
(-0.000401134 0.000596274 0)
(-0.000434715 0.000574659 0)
(-0.000467535 0.000550461 0)
(-0.000499194 0.000523839 0)
(-0.000529467 0.000494964 0)
(-0.000557944 0.000464066 0)
(-0.00058427 0.0004313 0)
(-0.000608153 0.000396981 0)
(-0.000629382 0.00036133 0)
(-0.000647691 0.000324605 0)
(-0.000662756 0.000287047 0)
(-0.00067458 0.000248855 0)
(-0.000682987 0.000210338 0)
(-0.000687668 0.000171685 0)
(-0.00068898 0.000133207 0)
(-0.000687402 9.53036e-05 0)
(-0.000682486 5.82865e-05 0)
(-0.000674004 2.24418e-05 0)
(-0.000662024 -1.20407e-05 0)
(-0.000646554 -4.49393e-05 0)
(-0.000627613 -7.60943e-05 0)
(-0.000605337 -0.00010532 0)
(-0.000579886 -0.000132475 0)
(-0.000551424 -0.000157405 0)
(-0.000520149 -0.000180006 0)
(-0.00048635 -0.000200104 0)
(-0.000450272 -0.000217639 0)
(-0.000412207 -0.000232445 0)
(-0.000372383 -0.000244588 0)
(-0.000331347 -0.000253824 0)
(-0.000289144 -0.000260363 0)
(-0.000246331 -0.000263886 0)
(-0.000203174 -0.000264696 0)
(-0.000160358 -0.000262425 0)
(-0.000117942 -0.000257599 0)
(-7.62285e-05 -0.000249824 0)
(-3.63178e-05 -0.00023961 0)
(1.72579e-06 -0.000226771 0)
(3.75735e-05 -0.000211626 0)
(7.10839e-05 -0.000194158 0)
(0.000101411 -0.000174717 0)
(0.000128516 -0.000153376 0)
(0.000151975 -0.000130533 0)
(0.000171291 -0.000106347 0)
(0.000186359 -8.12295e-05 0)
(0.000196845 -5.54081e-05 0)
(0.000202749 -2.9245e-05 0)
(0.000203544 -3.12817e-06 0)
(0.000199248 2.25934e-05 0)
(0.00019 4.75253e-05 0)
(0.000175791 7.14529e-05 0)
(0.000157148 9.3812e-05 0)
(0.000134248 0.000114436 0)
(0.000107309 0.000132601 0)
(7.64718e-05 0.00014849 0)
(4.24235e-05 0.000161302 0)
(5.85114e-06 0.000171168 0)
(-3.26414e-05 0.000177563 0)
(-7.22061e-05 0.000180442 0)
(-0.000112348 0.000179514 0)
(-0.000152248 0.000175017 0)
(-0.00019082 0.000166598 0)
(-0.00022757 0.000154718 0)
(-0.000261443 0.000139257 0)
(-0.000291522 0.000120641 0)
(-0.000317312 9.90609e-05 0)
(-0.000337919 7.50255e-05 0)
(-0.000352686 4.89083e-05 0)
(-0.000361136 2.13598e-05 0)
(-0.000362609 -7.09251e-06 0)
(-0.000356693 -3.57224e-05 0)
(-0.000343486 -6.39282e-05 0)
(-0.00032316 -9.10016e-05 0)
(-0.000296036 -0.000116252 0)
(-0.000262515 -0.000138936 0)
(-0.000223232 -0.00015841 0)
(-0.000179016 -0.000174012 0)
(-0.00013088 -0.000185249 0)
(-7.99582e-05 -0.000191639 0)
(-2.75826e-05 -0.000192898 0)
(2.48505e-05 -0.000188836 0)
(7.58448e-05 -0.000179464 0)
(0.000123784 -0.000164918 0)
(0.000167362 -0.000145462 0)
(0.000205062 -0.000121715 0)
(0.000235494 -9.41967e-05 0)
(0.000257791 -6.39587e-05 0)
(0.000270778 -3.16935e-05 0)
(0.000273998 1.33161e-06 0)
(0.000266637 3.39426e-05 0)
(0.00024933 6.50623e-05 0)
(0.000222739 9.34534e-05 0)
(0.000187416 0.000118119 0)
(0.000144867 0.00013775 0)
(9.66666e-05 0.000151607 0)
(4.46462e-05 0.000158974 0)
(-9.37287e-06 0.000159383 0)
(-6.23906e-05 0.000152573 0)
(-0.000112059 0.000138855 0)
(-0.000156251 0.000118626 0)
(-0.000192513 9.28139e-05 0)
(-0.000219202 6.2446e-05 0)
(-0.000234724 2.90361e-05 0)
(-0.000237814 -5.8921e-06 0)
(-0.000227754 -4.02981e-05 0)
(-0.000205164 -7.27397e-05 0)
(-0.000171188 -0.000101103 0)
(-0.000127219 -0.000123971 0)
(-7.59017e-05 -0.000139815 0)
(-1.898e-05 -0.000147526 0)
(3.96377e-05 -0.000146336 0)
(9.5886e-05 -0.000136274 0)
(0.000146434 -0.000117841 0)
(0.000188526 -9.19351e-05 0)
(0.000218917 -6.01319e-05 0)
(0.000235554 -2.43209e-05 0)
(0.000236774 1.29236e-05 0)
(0.000221735 4.93958e-05 0)
(0.000191926 8.23819e-05 0)
(0.000148974 0.000109729 0)
(9.56311e-05 0.000129022 0)
(3.54927e-05 0.000139089 0)
(-2.76262e-05 0.00013838 0)
(-8.83414e-05 0.000127401 0)
(-0.000141295 0.000106747 0)
(-0.000183056 7.79527e-05 0)
(-0.000210128 4.33264e-05 0)
(-0.000220264 5.73148e-06 0)
(-0.000212053 -3.15273e-05 0)
(-0.000186282 -6.55523e-05 0)
(-0.000145523 -9.31217e-05 0)
(-9.3263e-05 -0.000111964 0)
(-3.41707e-05 -0.00012016 0)
(2.68227e-05 -0.000116488 0)
(8.30211e-05 -0.000102171 0)
(0.000128651 -7.85479e-05 0)
(0.000160126 -4.80263e-05 0)
(0.000174433 -1.38963e-05 0)
(0.000170194 1.99217e-05 0)
(0.000148245 5.00761e-05 0)
(0.000111938 7.31064e-05 0)
(6.56089e-05 8.66444e-05 0)
(1.42892e-05 8.90852e-05 0)
(-3.4778e-05 8.02616e-05 0)
(-7.5052e-05 6.19336e-05 0)
(-0.000102341 3.67359e-05 0)
(-0.000113614 8.20494e-06 0)
(-0.000107705 -1.95722e-05 0)
(-8.61247e-05 -4.29295e-05 0)
(-5.28678e-05 -5.86211e-05 0)
(-1.2214e-05 -6.45454e-05 0)
(2.84971e-05 -5.96268e-05 0)
(6.17341e-05 -4.55297e-05 0)
(8.33041e-05 -2.48033e-05 0)
(8.9951e-05 -9.96678e-07 0)
(8.09619e-05 2.15064e-05 0)
(5.86264e-05 3.91926e-05 0)
(2.72182e-05 4.90299e-05 0)
(-8.50411e-06 4.92827e-05 0)
(-4.06423e-05 3.98692e-05 0)
(-6.21219e-05 2.32775e-05 0)
(-7.02813e-05 2.88624e-06 0)
(-6.36094e-05 -1.71807e-05 0)
(-4.38462e-05 -3.31597e-05 0)
(-1.45361e-05 -4.20631e-05 0)
(1.82148e-05 -4.22279e-05 0)
(4.6687e-05 -3.40801e-05 0)
(6.58291e-05 -2.0225e-05 0)
(7.30309e-05 -4.14153e-06 0)
(6.81051e-05 1.02384e-05 0)
(5.37087e-05 1.99499e-05 0)
(3.47863e-05 2.33133e-05 0)
(1.67469e-05 2.06052e-05 0)
(3.80764e-06 1.38044e-05 0)
(-2.06575e-06 6.08446e-06 0)
(-1.59849e-06 1.13171e-06 0)
(3.28534e-06 -0.000288212 0)
(1.00339e-05 -0.000316522 0)
(1.59424e-05 -0.00030963 0)
(2.04591e-05 -0.000298206 0)
(2.29797e-05 -0.000282779 0)
(2.2809e-05 -0.000263475 0)
(1.93994e-05 -0.000240237 0)
(1.20485e-05 -0.000213305 0)
(6.51861e-07 -0.000182835 0)
(-1.57206e-05 -0.000149351 0)
(-3.71434e-05 -0.000113371 0)
(-6.3901e-05 -7.56745e-05 0)
(-9.57156e-05 -3.69388e-05 0)
(-0.000132697 2.01419e-06 0)
(-0.000174625 4.04015e-05 0)
(-0.000220803 7.74195e-05 0)
(-0.000271169 0.000112323 0)
(-0.000325022 0.000144376 0)
(-0.000381962 0.000173 0)
(-0.000441154 0.000197561 0)
(-0.000501998 0.000217639 0)
(-0.000563755 0.000232816 0)
(-0.000625488 0.000242894 0)
(-0.000686233 0.00024767 0)
(-0.000745514 0.000247231 0)
(-0.000802364 0.000241366 0)
(-0.000855983 0.00023069 0)
(-0.000905903 0.000214929 0)
(-0.000951344 0.00019495 0)
(-0.000992193 0.000170766 0)
(-0.00102798 0.000143086 0)
(-0.00105811 0.000112087 0)
(-0.00108305 7.85046e-05 0)
(-0.00110223 4.2781e-05 0)
(-0.00111586 5.43121e-06 0)
(-0.00112394 -3.30991e-05 0)
(-0.00112636 -7.21717e-05 0)
(-0.00112333 -0.000111474 0)
(-0.00111367 -0.000150718 0)
(-0.00109738 -0.000189691 0)
(-0.00107512 -0.00022811 0)
(-0.00104766 -0.000265629 0)
(-0.00101541 -0.000301919 0)
(-0.000978653 -0.000336649 0)
(-0.000937765 -0.000369486 0)
(-0.000892979 -0.00040015 0)
(-0.000844673 -0.000428333 0)
(-0.00079309 -0.000453762 0)
(-0.000738421 -0.000476209 0)
(-0.000681101 -0.000495405 0)
(-0.000621408 -0.00051123 0)
(-0.000560173 -0.000523406 0)
(-0.000497278 -0.000531767 0)
(-0.000433493 -0.000536218 0)
(-0.000368989 -0.000536694 0)
(-0.000304679 -0.000532915 0)
(-0.000240531 -0.000525121 0)
(-0.000177494 -0.000513049 0)
(-0.000116058 -0.000496872 0)
(-5.65494e-05 -0.000476644 0)
(3.0079e-09 -0.000452402 0)
(5.39429e-05 -0.000424348 0)
(0.000104185 -0.000392531 0)
(0.000150468 -0.000357397 0)
(0.000192039 -0.000319099 0)
(0.000228696 -0.000278046 0)
(0.000259804 -0.000234618 0)
(0.000285172 -0.000189297 0)
(0.000304344 -0.000142512 0)
(0.000317158 -9.48633e-05 0)
(0.000323336 -4.68865e-05 0)
(0.000322574 7.19805e-07 0)
(0.000314901 4.75085e-05 0)
(0.000300769 9.26723e-05 0)
(0.000279978 0.000135714 0)
(0.000252965 0.000175869 0)
(0.000219797 0.000212576 0)
(0.000181283 0.000245222 0)
(0.000137902 0.000273118 0)
(9.02139e-05 0.00029577 0)
(3.91632e-05 0.000312877 0)
(-1.47016e-05 0.000323772 0)
(-7.01073e-05 0.000328328 0)
(-0.000125704 0.000326229 0)
(-0.000181022 0.000317458 0)
(-0.000234549 0.000302047 0)
(-0.000285053 0.000280095 0)
(-0.000331767 0.000251995 0)
(-0.000373313 0.00021806 0)
(-0.000408785 0.000179004 0)
(-0.000437081 0.000135522 0)
(-0.000457468 8.84236e-05 0)
(-0.000469149 3.87841e-05 0)
(-0.000471378 -1.23994e-05 0)
(-0.000463651 -6.38833e-05 0)
(-0.000446241 -0.000114536 0)
(-0.000419201 -0.000163074 0)
(-0.000382929 -0.000208235 0)
(-0.000337968 -0.000248666 0)
(-0.000285234 -0.00028329 0)
(-0.000225848 -0.000310943 0)
(-0.000161202 -0.00033065 0)
(-9.28376e-05 -0.000341771 0)
(-2.26265e-05 -0.000343597 0)
(4.74764e-05 -0.000335939 0)
(0.000115507 -0.000318677 0)
(0.000179452 -0.000292243 0)
(0.000237212 -0.000257123 0)
(0.000286867 -0.000214334 0)
(0.000326595 -0.000164865 0)
(0.000355045 -0.000110359 0)
(0.000371307 -5.24707e-05 0)
(0.000373855 6.63576e-06 0)
(0.000362487 6.5035e-05 0)
(0.000337773 0.000120747 0)
(0.000300517 0.000171383 0)
(0.000251603 0.000215159 0)
(0.000192712 0.000250001 0)
(0.00012646 0.00027437 0)
(5.52029e-05 0.000286828 0)
(-1.84457e-05 0.000286897 0)
(-9.07933e-05 0.000274049 0)
(-0.000158419 0.000248863 0)
(-0.000218126 0.000212094 0)
(-0.000267217 0.000165274 0)
(-0.000303041 0.000110418 0)
(-0.000323473 5.01425e-05 0)
(-0.000326723 -1.25418e-05 0)
(-0.000312467 -7.44085e-05 0)
(-0.000281353 -0.000132489 0)
(-0.000234417 -0.000183237 0)
(-0.000174515 -0.000223991 0)
(-0.000104168 -0.000251938 0)
(-2.66099e-05 -0.000265194 0)
(5.31226e-05 -0.000262549 0)
(0.000129223 -0.000243998 0)
(0.00019775 -0.000210413 0)
(0.000254426 -0.000163687 0)
(0.000295219 -0.000106396 0)
(0.000317039 -4.22696e-05 0)
(0.000317941 2.46045e-05 0)
(0.000297347 8.98527e-05 0)
(0.000256741 0.000148755 0)
(0.000198355 0.000197118 0)
(0.000126311 0.000231317 0)
(4.50313e-05 0.000248449 0)
(-3.9977e-05 0.000246608 0)
(-0.000120592 0.000226251 0)
(-0.000191075 0.000188681 0)
(-0.00024608 0.000136851 0)
(-0.000280997 7.46474e-05 0)
(-0.000292763 7.36803e-06 0)
(-0.000280299 -5.90195e-05 0)
(-0.000244455 -0.000119171 0)
(-0.000188709 -0.000167867 0)
(-0.000118039 -0.00020045 0)
(-3.78896e-05 -0.000214174 0)
(4.34001e-05 -0.000206664 0)
(0.000117054 -0.000180246 0)
(0.000176614 -0.000137102 0)
(0.000216654 -8.21029e-05 0)
(0.000233084 -2.10193e-05 0)
(0.000224661 3.93262e-05 0)
(0.000192914 9.27176e-05 0)
(0.000142139 0.000133099 0)
(7.84422e-05 0.000156108 0)
(8.77788e-06 0.000159423 0)
(-5.69349e-05 0.00014254 0)
(-0.000109903 0.000108783 0)
(-0.000144762 6.29233e-05 0)
(-0.000157481 1.14527e-05 0)
(-0.000146966 -3.81825e-05 0)
(-0.000115654 -7.95613e-05 0)
(-6.89077e-05 -0.000106893 0)
(-1.27566e-05 -0.000116574 0)
(4.26494e-05 -0.000106776 0)
(8.71473e-05 -8.06711e-05 0)
(0.000115339 -4.28982e-05 0)
(0.000122883 3.36962e-09 0)
(0.000109173 4.04866e-05 0)
(7.76509e-05 7.18851e-05 0)
(3.40191e-05 8.88362e-05 0)
(-1.48316e-05 8.85704e-05 0)
(-5.81533e-05 7.102e-05 0)
(-8.6658e-05 4.08339e-05 0)
(-9.67791e-05 4.10983e-06 0)
(-8.69097e-05 -3.17355e-05 0)
(-5.96518e-05 -5.99289e-05 0)
(-2.01179e-05 -7.51939e-05 0)
(2.33497e-05 -7.45852e-05 0)
(6.03836e-05 -5.93108e-05 0)
(8.4162e-05 -3.40414e-05 0)
(9.1408e-05 -5.06387e-06 0)
(8.23896e-05 2.03838e-05 0)
(6.12467e-05 3.70628e-05 0)
(3.49443e-05 4.20138e-05 0)
(1.10236e-05 3.59392e-05 0)
(-4.71734e-06 2.22292e-05 0)
(-9.3265e-06 7.58561e-06 0)
(-4.35834e-06 -1.62832e-06 0)
(2.60807e-05 0.000419825 0)
(8.09828e-05 0.000438343 0)
(0.00013518 0.000459725 0)
(0.000188147 0.000491315 0)
(0.000238584 0.000533392 0)
(0.000285881 0.000584566 0)
(0.000328978 0.000644771 0)
(0.000366518 0.000710795 0)
(0.000396841 0.00078279 0)
(0.000417323 0.000856805 0)
(0.00042663 0.000932233 0)
(0.000423859 0.00100623 0)
(0.000408885 0.00107772 0)
(0.000381366 0.00114453 0)
(0.000341773 0.00120536 0)
(0.000290676 0.0012585 0)
(0.000228833 0.00130287 0)
(0.000157773 0.00133693 0)
(7.84534e-05 0.00136055 0)
(-7.75116e-06 0.00137214 0)
(-9.88898e-05 0.00137151 0)
(-0.000193196 0.00135828 0)
(-0.000289162 0.00133291 0)
(-0.000384511 0.00129499 0)
(-0.00047899 0.00124605 0)
(-0.000569506 0.00118611 0)
(-0.000655863 0.00111725 0)
(-0.000736516 0.00103982 0)
(-0.00080981 0.000956353 0)
(-0.00087634 0.000867201 0)
(-0.000935154 0.000774448 0)
(-0.000986054 0.000678625 0)
(-0.00102774 0.000581069 0)
(-0.00106122 0.000482413 0)
(-0.00108648 0.000383548 0)
(-0.00110294 0.000285193 0)
(-0.001111 0.000187943 0)
(-0.00111201 9.26104e-05 0)
(-0.00110669 2.80454e-07 0)
(-0.00109558 -8.84746e-05 0)
(-0.00107795 -0.000173286 0)
(-0.00105365 -0.000253795 0)
(-0.00102295 -0.000329674 0)
(-0.00098602 -0.00040069 0)
(-0.000943232 -0.000466488 0)
(-0.000894963 -0.00052691 0)
(-0.000841492 -0.000581471 0)
(-0.000783408 -0.000630134 0)
(-0.000721013 -0.000672837 0)
(-0.000655089 -0.000709119 0)
(-0.00058592 -0.000739098 0)
(-0.000513713 -0.000762503 0)
(-0.00043943 -0.000779185 0)
(-0.00036407 -0.000788991 0)
(-0.00028698 -0.000792074 0)
(-0.000209959 -0.000788216 0)
(-0.00013331 -0.000777539 0)
(-5.74737e-05 -0.000760261 0)
(1.62602e-05 -0.000736093 0)
(8.81055e-05 -0.000705691 0)
(0.000156504 -0.000668681 0)
(0.000221402 -0.000625805 0)
(0.000281601 -0.00057718 0)
(0.000336617 -0.000523352 0)
(0.00038583 -0.000464732 0)
(0.000428468 -0.000401942 0)
(0.000463941 -0.000335583 0)
(0.000491761 -0.000266322 0)
(0.000511519 -0.000195035 0)
(0.000522634 -0.000122378 0)
(0.000524857 -4.93529e-05 0)
(0.000518178 2.32101e-05 0)
(0.000502388 9.42981e-05 0)
(0.000477554 0.000162971 0)
(0.000443999 0.000228195 0)
(0.000402186 0.000289096 0)
(0.000352807 0.0003444 0)
(0.000295918 0.000393435 0)
(0.000232186 0.000435145 0)
(0.000163486 0.000468921 0)
(9.01245e-05 0.000493783 0)
(1.32715e-05 0.00050933 0)
(-6.51252e-05 0.000515037 0)
(-0.000144133 0.000510667 0)
(-0.000221997 0.000495928 0)
(-0.000297294 0.000471124 0)
(-0.000368511 0.000436246 0)
(-0.000434105 0.000391984 0)
(-0.000492337 0.000338927 0)
(-0.000541779 0.000277988 0)
(-0.000581413 0.000210364 0)
(-0.000609766 0.000137383 0)
(-0.000626016 6.04679e-05 0)
(-0.000629244 -1.85967e-05 0)
(-0.000618919 -9.80745e-05 0)
(-0.000595257 -0.00017612 0)
(-0.0005583 -0.000250787 0)
(-0.000508426 -0.000320051 0)
(-0.000446657 -0.000382058 0)
(-0.000374328 -0.000434998 0)
(-0.000292704 -0.000477004 0)
(-0.000204149 -0.000506857 0)
(-0.000110568 -0.000523306 0)
(-1.44283e-05 -0.000525514 0)
(8.14688e-05 -0.000513152 0)
(0.000174237 -0.000486011 0)
(0.000260957 -0.000444757 0)
(0.000339081 -0.000390104 0)
(0.000406126 -0.0003236 0)
(0.000459529 -0.00024721 0)
(0.0004972 -0.000163061 0)
(0.000517209 -7.40572e-05 0)
(0.000518686 1.68799e-05 0)
(0.000501557 0.000106836 0)
(0.000465799 0.000192131 0)
(0.000412718 0.00026983 0)
(0.000343824 0.000336354 0)
(0.000261343 0.000389276 0)
(0.000168347 0.00042587 0)
(6.88363e-05 0.000444359 0)
(-3.34993e-05 0.000443583 0)
(-0.00013367 0.000422891 0)
(-0.000226936 0.000383026 0)
(-0.000309477 0.000325386 0)
(-0.000376819 0.000252497 0)
(-0.00042555 0.000167456 0)
(-0.000452617 7.43714e-05 0)
(-0.000456028 -2.24233e-05 0)
(-0.000435516 -0.000118098 0)
(-0.000391562 -0.000207239 0)
(-0.000326151 -0.000285398 0)
(-0.00024234 -0.000347445 0)
(-0.000144265 -0.000389897 0)
(-3.65917e-05 -0.000409593 0)
(7.36096e-05 -0.000404845 0)
(0.000178854 -0.000375509 0)
(0.000272963 -0.000323084 0)
(0.000350611 -0.000250452 0)
(0.000406023 -0.000161723 0)
(0.000435167 -6.26059e-05 0)
(0.000435815 4.02931e-05 0)
(0.000406676 0.000140395 0)
(0.000349931 0.000230532 0)
(0.000269241 0.000304334 0)
(0.000169637 0.000355759 0)
(5.74229e-05 0.000381307 0)
(-5.86829e-05 0.000377286 0)
(-0.000168672 0.000345111 0)
(-0.000263982 0.00028666 0)
(-0.000337828 0.000206188 0)
(-0.000383909 0.000110538 0)
(-0.000397655 7.15169e-06 0)
(-0.000378139 -9.44468e-05 0)
(-0.000327568 -0.000186296 0)
(-0.000249898 -0.000259611 0)
(-0.000152176 -0.000308165 0)
(-4.21861e-05 -0.000327561 0)
(6.85979e-05 -0.000314671 0)
(0.000167913 -0.000272453 0)
(0.000247192 -0.000205192 0)
(0.000298832 -0.000120055 0)
(0.000317927 -2.60624e-05 0)
(0.000303111 6.64239e-05 0)
(0.000256652 0.000147437 0)
(0.00018447 0.00020797 0)
(9.55018e-05 0.000241513 0)
(-6.56372e-07 0.00024465 0)
(-9.04471e-05 0.000216782 0)
(-0.000161696 0.000163395 0)
(-0.000207128 9.19148e-05 0)
(-0.000221293 1.23661e-05 0)
(-0.000203586 -6.38807e-05 0)
(-0.000157749 -0.000126723 0)
(-9.11029e-05 -0.00016753 0)
(-1.22783e-05 -0.000180772 0)
(6.44179e-05 -0.00016419 0)
(0.000125069 -0.000122605 0)
(0.00016246 -6.33929e-05 0)
(0.00017089 2.9791e-06 0)
(0.000149988 6.53301e-05 0)
(0.000104594 0.000113138 0)
(4.29949e-05 0.000138417 0)
(-2.48852e-05 0.000136685 0)
(-8.42785e-05 0.000108711 0)
(-0.000122666 6.14939e-05 0)
(-0.000135251 4.48789e-06 0)
(-0.000120338 -5.03765e-05 0)
(-8.19583e-05 -9.30442e-05 0)
(-2.73329e-05 -0.000115404 0)
(3.16735e-05 -0.000112983 0)
(8.08616e-05 -8.83441e-05 0)
(0.000111097 -4.87481e-05 0)
(0.000117982 -4.02367e-06 0)
(0.000102552 3.47826e-05 0)
(7.12563e-05 5.92415e-05 0)
(3.39981e-05 6.51079e-05 0)
(1.25864e-06 5.34276e-05 0)
(-1.8224e-05 3.0257e-05 0)
(-2.04378e-05 6.31765e-06 0)
(-8.64161e-06 -8.84918e-06 0)
(7.17119e-05 -0.000954327 0)
(0.000217983 -0.00098531 0)
(0.000361022 -0.000956393 0)
(0.000497868 -0.0009114 0)
(0.000622695 -0.000848323 0)
(0.000734274 -0.000771101 0)
(0.000823436 -0.000673564 0)
(0.000888386 -0.000563128 0)
(0.000922095 -0.000429676 0)
(0.000922918 -0.00028012 0)
(0.000896861 -0.000113787 0)
(0.000841917 5.71035e-05 0)
(0.000762402 0.000231056 0)
(0.000658005 0.000400493 0)
(0.000532305 0.000562849 0)
(0.000387813 0.000713215 0)
(0.000226541 0.000848567 0)
(5.41435e-05 0.000966381 0)
(-0.000129181 0.00106438 0)
(-0.000320264 0.00113925 0)
(-0.000513339 0.00119201 0)
(-0.000704466 0.00122152 0)
(-0.000892589 0.00122972 0)
(-0.0010713 0.00121412 0)
(-0.0012384 0.00118004 0)
(-0.00139017 0.00112375 0)
(-0.00152494 0.0010551 0)
(-0.00164014 0.000967512 0)
(-0.0017359 0.000875722 0)
(-0.00181386 0.000770389 0)
(-0.00187366 0.000663155 0)
(-0.00191792 0.000549749 0)
(-0.00194685 0.000435455 0)
(-0.00196218 0.000320104 0)
(-0.00196416 0.000205919 0)
(-0.00195466 9.35385e-05 0)
(-0.00193391 -1.6367e-05 0)
(-0.00190056 -0.000123262 0)
(-0.00185491 -0.000227133 0)
(-0.00179996 -0.000327369 0)
(-0.00173707 -0.000423385 0)
(-0.00166704 -0.000514747 0)
(-0.00159078 -0.000600961 0)
(-0.00150852 -0.000681648 0)
(-0.00142089 -0.000756371 0)
(-0.00132775 -0.000824886 0)
(-0.00122997 -0.000886786 0)
(-0.0011294 -0.000942015 0)
(-0.00102474 -0.000989732 0)
(-0.000917114 -0.00103011 0)
(-0.000807552 -0.00106239 0)
(-0.000695812 -0.00108697 0)
(-0.000582415 -0.00110299 0)
(-0.000469163 -0.00111056 0)
(-0.000355949 -0.00110926 0)
(-0.000243627 -0.00109935 0)
(-0.000133673 -0.00108031 0)
(-2.55815e-05 -0.00105254 0)
(7.86794e-05 -0.00101567 0)
(0.000179093 -0.000970267 0)
(0.00027444 -0.000916304 0)
(0.000363451 -0.000854267 0)
(0.000445816 -0.00078451 0)
(0.000520361 -0.000707579 0)
(0.000586246 -0.00062419 0)
(0.000642715 -0.00053498 0)
(0.000689154 -0.000440972 0)
(0.000724698 -0.000342959 0)
(0.000749129 -0.000242145 0)
(0.00076195 -0.00013966 0)
(0.000762529 -3.6642e-05 0)
(0.000750856 6.53348e-05 0)
(0.000726757 0.000165045 0)
(0.000690679 0.000261364 0)
(0.000642949 0.000352753 0)
(0.00058354 0.000437778 0)
(0.000513244 0.000514918 0)
(0.00043357 0.000583012 0)
(0.000345348 0.000640676 0)
(0.000249585 0.00068699 0)
(0.000147802 0.00072058 0)
(4.18886e-05 0.000740986 0)
(-6.63422e-05 0.000747331 0)
(-0.000174971 0.000739311 0)
(-0.000282041 0.000716704 0)
(-0.000385367 0.000679612 0)
(-0.000482862 0.000628472 0)
(-0.00057231 0.000563886 0)
(-0.000651873 0.000487115 0)
(-0.000719352 0.000398992 0)
(-0.000772886 0.000301695 0)
(-0.000811376 0.000196764 0)
(-0.00083324 8.65876e-05 0)
(-0.000837227 -2.66248e-05 0)
(-0.000823024 -0.000140307 0)
(-0.000790701 -0.000251781 0)
(-0.000740201 -0.000358119 0)
(-0.0006724 -0.000456656 0)
(-0.000588581 -0.000544621 0)
(-0.000489978 -0.000619355 0)
(-0.000379167 -0.000678756 0)
(-0.000259057 -0.000720486 0)
(-0.000132146 -0.000743037 0)
(-2.28407e-06 -0.000745306 0)
(0.00012719 -0.000726531 0)
(0.000252312 -0.000686956 0)
(0.000369263 -0.00062728 0)
(0.000474368 -0.000548512 0)
(0.000563502 -0.000453393 0)
(0.000633923 -0.000343905 0)
(0.000682812 -0.000223696 0)
(0.00070804 -9.63443e-05 0)
(0.000708481 3.32963e-05 0)
(0.000683045 0.000161479 0)
(0.000632535 0.000282825 0)
(0.00055836 0.000392943 0)
(0.000462741 0.000487401 0)
(0.000349185 0.000561824 0)
(0.000221674 0.000612964 0)
(8.55172e-05 0.000637969 0)
(-5.45776e-05 0.000635306 0)
(-0.000191687 0.000604426 0)
(-0.000319055 0.000546556 0)
(-0.000430789 0.000463223 0)
(-0.000521631 0.000358412 0)
(-0.000586764 0.000235955 0)
(-0.000622467 0.000102411 0)
(-0.000626339 -3.65665e-05 0)
(-0.00059694 -0.000173162 0)
(-0.000535958 -0.000300603 0)
(-0.000445475 -0.000411647 0)
(-0.000330137 -0.000499633 0)
(-0.000195818 -0.000559238 0)
(-4.86902e-05 -0.000586457 0)
(0.000101643 -0.000578386 0)
(0.000244844 -0.000535323 0)
(0.000372766 -0.00045962 0)
(0.000477793 -0.000354524 0)
(0.000552343 -0.000227556 0)
(0.000590485 -8.54373e-05 0)
(0.000589684 6.13486e-05 0)
(0.000549134 0.000203614 0)
(0.000471268 0.000331565 0)
(0.00036046 0.000435279 0)
(0.000224896 0.000507625 0)
(7.24359e-05 0.000542001 0)
(-8.49622e-05 0.000535153 0)
(-0.000232332 0.000487532 0)
(-0.000360479 0.000402723 0)
(-0.000458492 0.000287498 0)
(-0.000518382 0.000150886 0)
(-0.000534499 4.12401e-06 0)
(-0.000505857 -0.000140226 0)
(-0.000434953 -0.000269548 0)
(-0.000327802 -0.000372658 0)
(-0.000194864 -0.000439458 0)
(-4.55053e-05 -0.000464368 0)
(0.000103663 -0.000443789 0)
(0.0002358 -0.000381669 0)
(0.000340197 -0.000284228 0)
(0.000406819 -0.000161771 0)
(0.000428869 -2.76735e-05 0)
(0.000404829 0.00010317 0)
(0.000338328 0.000217095 0)
(0.000237795 0.000301137 0)
(0.00011549 0.000346299 0)
(-1.54493e-05 0.000348101 0)
(-0.000136307 0.000305895 0)
(-0.000230676 0.000227539 0)
(-0.000289274 0.000124406 0)
(-0.000304924 1.03863e-05 0)
(-0.000277173 -9.8212e-05 0)
(-0.000211677 -0.000186712 0)
(-0.000118548 -0.000242942 0)
(-9.99517e-06 -0.000259725 0)
(9.43739e-05 -0.000233781 0)
(0.000175957 -0.000172585 0)
(0.000224833 -8.67653e-05 0)
(0.000233908 8.75853e-06 0)
(0.00020317 9.78098e-05 0)
(0.000139375 0.00016512 0)
(5.38069e-05 0.000199685 0)
(-3.91207e-05 0.000195182 0)
(-0.000119238 0.000153827 0)
(-0.00017045 8.55335e-05 0)
(-0.000185769 4.04848e-06 0)
(-0.000163678 -7.41451e-05 0)
(-0.000110331 -0.000133926 0)
(-3.56099e-05 -0.000164263 0)
(4.37386e-05 -0.000158713 0)
(0.000108494 -0.00012196 0)
(0.00014669 -6.42595e-05 0)
(0.000152706 -3.56314e-07 0)
(0.000128354 5.44306e-05 0)
(8.31228e-05 8.76479e-05 0)
(3.09883e-05 9.36806e-05 0)
(-1.32481e-05 7.34553e-05 0)
(-3.72578e-05 3.79867e-05 0)
(-3.60683e-05 1.61255e-06 0)
(-1.46584e-05 -2.13779e-05 0)
(0.000118546 -0.00121823 0)
(0.000361854 -0.00119359 0)
(0.000600198 -0.00110352 0)
(0.000844433 -0.000967447 0)
(0.00107913 -0.000777944 0)
(0.00132085 -0.00054402 0)
(0.00154256 -0.000238725 0)
(0.00175837 9.81583e-05 0)
(0.00193959 0.000518316 0)
(0.00205807 0.00092146 0)
(0.00212802 0.00131472 0)
(0.00212919 0.00167481 0)
(0.0020763 0.00201075 0)
(0.00196449 0.00231292 0)
(0.00180689 0.00257847 0)
(0.00160375 0.00280227 0)
(0.00136544 0.00298156 0)
(0.00109912 0.00311437 0)
(0.000810084 0.00320039 0)
(0.000507589 0.00324016 0)