# Wall heat transfer coefficient
# Time            	patch             	min               	max               	average           
0.0000000000e+00	walls	6.9776544445e+00	6.9776544445e+00	6.9776544445e+00
1.0000000000e+00	walls	6.7732942569e+00	6.7739960291e+00	6.7736451430e+00
