/*--------------------------------*- C++ -*----------------------------------*\
  =========                 |
  \\      /  F ield         | OpenFOAM: The Open Source CFD Toolbox
   \\    /   O peration     | Website:  https://openfoam.org
    \\  /    A nd           | Version:  12
     \\/     M anipulation  |
\*---------------------------------------------------------------------------*/
FoamFile
{
    format      ascii;
    class       volVectorField;
    location    "900";
    object      U;
}
// * * * * * * * * * * * * * * * * * * * * * * * * * * * * * * * * * * * * * //

dimensions      [0 1 -1 0 0 0 0];

internalField   nonuniform List<vector> 
80
(
(0.00147567 0 0)
(0.00439938 0 0)
(0.00729467 0 0)
(0.0101607 0 0)
(0.0129968 0 0)
(0.0158022 0 0)
(0.018576 0 0)
(0.0213176 0 0)
(0.0240264 0 0)
(0.0267016 0 0)
(0.0293427 0 0)
(0.0319492 0 0)
(0.0345205 0 0)
(0.0370562 0 0)
(0.0395558 0 0)
(0.0420189 0 0)
(0.044445 0 0)
(0.0468338 0 0)
(0.0491848 0 0)
(0.0514976 0 0)
(0.0537718 0 0)
(0.0560067 0 0)
(0.0582018 0 0)
(0.0603565 0 0)
(0.0624699 0 0)
(0.064541 0 0)
(0.0665689 0 0)
(0.068552 0 0)
(0.0704889 0 0)
(0.0723776 0 0)
(0.0742158 0 0)
(0.0760005 0 0)
(0.0777281 0 0)
(0.0793943 0 0)
(0.0809928 0 0)
(0.0825172 0 0)
(0.0839521 0 0)
(0.085297 0 0)
(0.0864734 0 0)
(0.0876078 0 0)
(0.0878057 0 0)
(0.086649 0 0)
(0.0854984 0 0)
(0.0841594 0 0)
(0.0827329 0 0)
(0.0812138 0 0)
(0.0796197 0 0)
(0.0779568 0 0)
(0.0762314 0 0)
(0.0744482 0 0)
(0.0726107 0 0)
(0.0707219 0 0)
(0.0687841 0 0)
(0.0667994 0 0)
(0.0647694 0 0)
(0.0626954 0 0)
(0.0605785 0 0)
(0.0584198 0 0)
(0.0562199 0 0)
(0.0539797 0 0)
(0.0516996 0 0)
(0.0493804 0 0)
(0.0470223 0 0)
(0.044626 0 0)
(0.0421918 0 0)
(0.0397202 0 0)
(0.0372115 0 0)
(0.0346663 0 0)
(0.032085 0 0)
(0.0294681 0 0)
(0.0268161 0 0)
(0.0241298 0 0)
(0.0214095 0 0)
(0.0186562 0 0)
(0.0158703 0 0)
(0.0130528 0 0)
(0.0102044 0 0)
(0.00732587 0 0)
(0.00441808 0 0)
(0.00148189 0 0)
)
;

boundaryField
{
    lowerWall
    {
        type            noSlip;
    }
    upperWall
    {
        type            noSlip;
    }
    front
    {
        type            cyclic;
    }
    back
    {
        type            cyclic;
    }
    defaultFaces
    {
        type            empty;
    }
}


// ************************************************************************* //
