/*--------------------------------*- C++ -*----------------------------------*\
  =========                 |
  \\      /  F ield         | OpenFOAM: The Open Source CFD Toolbox
   \\    /   O peration     | Website:  https://openfoam.org
    \\  /    A nd           | Version:  12
     \\/     M anipulation  |
\*---------------------------------------------------------------------------*/
FoamFile
{
    format      ascii;
    class       surfaceScalarField;
    location    "1.02";
    object      phi;
}
// * * * * * * * * * * * * * * * * * * * * * * * * * * * * * * * * * * * * * //

dimensions      [1 0 -1 0 0 0 0];

internalField   nonuniform List<scalar> 
7429
(
4.48072e-05
-4.48072e-05
9.0265e-05
-4.54578e-05
0.000136135
-4.58703e-05
0.000182361
-4.62256e-05
0.000228882
-4.65215e-05
0.000275638
-4.67558e-05
0.000322565
-4.69263e-05
0.000369595
-4.70303e-05
0.000416665
-4.70701e-05
0.000463711
-4.70463e-05
0.000510659
-4.69474e-05
0.000557437
-4.67786e-05
0.00060398
-4.6542e-05
0.0006502
-4.62204e-05
0.00069602
-4.58201e-05
0.000741357
-4.53367e-05
0.000786125
-4.47681e-05
0.000830248
-4.41228e-05
0.000873648
-4.34e-05
0.000916252
-4.2604e-05
0.000957991
-4.17392e-05
0.000998801
-4.08102e-05
0.00103862
-3.98229e-05
0.00107741
-3.87822e-05
0.0011151
-3.76935e-05
0.00115165
-3.65534e-05
0.00118703
-3.53756e-05
0.00122119
-3.41601e-05
0.0012541
-3.29099e-05
0.00128573
-3.16268e-05
0.00131603
-3.03017e-05
0.00134502
-2.89899e-05
0.00137264
-2.76239e-05
0.00139879
-2.61447e-05
0.00142345
-2.4661e-05
0.00144663
-2.31852e-05
0.00146835
-2.17172e-05
0.0014886
-2.02526e-05
0.00150738
-1.87791e-05
0.00152466
-1.72788e-05
0.00154039
-1.57309e-05
0.00155453
-1.41354e-05
0.00156701
-1.24854e-05
0.00157779
-1.07772e-05
0.0015868
-9.00663e-06
0.00159394
-7.14809e-06
0.00159925
-5.30898e-06
0.00160252
-3.26768e-06
0.00160383
-1.31388e-06
0.00160245
1.38617e-06
0.00159872
3.72565e-06
0.0015927
6.02213e-06
0.0015844
8.30027e-06
0.00157384
1.05642e-05
0.00156102
1.28115e-05
0.00154598
1.50441e-05
0.00152873
1.72456e-05
0.0015093
1.94309e-05
0.00148773
2.15742e-05
0.00146403
2.36944e-05
0.00143828
2.57506e-05
0.00141053
2.77553e-05
0.00138084
2.96853e-05
0.00134932
3.15248e-05
0.00131604
3.32774e-05
0.00128112
3.49206e-05
0.00124466
3.64586e-05
0.00120679
3.78747e-05
0.00116763
3.91566e-05
0.00112733
4.02967e-05
0.00108602
4.13143e-05
0.00104385
4.21676e-05
0.00100097
4.28817e-05
0.000957492
4.34786e-05
0.000913563
4.39292e-05
0.000869365
4.41975e-05
0.000825005
4.43599e-05
0.000780631
4.43743e-05
0.000736389
4.42419e-05
0.00069241
4.39793e-05
0.000648798
4.3612e-05
0.000605692
4.31062e-05
0.000563199
4.24932e-05
0.00052144
4.17584e-05
0.000480499
4.09416e-05
0.000440461
4.00371e-05
0.000401409
3.90523e-05
0.000363423
3.79866e-05
0.000326575
3.68475e-05
0.000290911
3.56641e-05
0.00025649
3.44209e-05
0.000223359
3.31308e-05
0.000191553
3.18058e-05
0.000161092
3.04616e-05
0.000132019
2.90724e-05
0.000104328
2.76913e-05
7.80446e-05
2.62836e-05
5.31674e-05
2.48771e-05
2.96905e-05
2.34769e-05
7.59309e-06
2.20974e-05
-1.31278e-05
2.07209e-05
-3.24876e-05
1.93598e-05
-5.04916e-05
1.80041e-05
-6.71823e-05
1.66907e-05
-8.25762e-05
1.53939e-05
-9.6714e-05
1.41378e-05
-0.000109625
1.2911e-05
-0.000121347
1.17218e-05
-0.000131916
1.05693e-05
-0.000141371
9.45472e-06
-0.000149762
8.39158e-06
-0.000157126
7.36386e-06
-0.000163512
6.38553e-06
-0.000168962
5.45022e-06
-0.000173518
4.5562e-06
-0.000177232
3.71353e-06
-0.000180148
2.91584e-06
-0.000182306
2.15869e-06
-0.000183755
1.44892e-06
-0.000184545
7.89357e-07
-0.000184713
1.68323e-07
-0.000184329
-3.83452e-07
-0.000183416
-9.13157e-07
-0.000182011
-1.40494e-06
-0.000180154
-1.85697e-06
-0.000177884
-2.26997e-06
-0.000175239
-2.6453e-06
-0.000172257
-2.98247e-06
-0.000168973
-3.28402e-06
-0.000165422
-3.55068e-06
-0.00016164
-3.78237e-06
-0.000157657
-3.9823e-06
-0.000153506
-4.15135e-06
-0.000149216
-4.29033e-06
-0.000144813
-4.40231e-06
-0.000140326
-4.48756e-06
-0.000135778
-4.54782e-06
-0.000131192
-4.58636e-06
-0.000126587
-4.60419e-06
-0.000121985
-4.60227e-06
-0.000117402
-4.58294e-06
-0.000112854
-4.54769e-06
-0.000108356
-4.4986e-06
-0.000103921
-4.43493e-06
-9.95615e-05
-4.35937e-06
-9.52871e-05
-4.2744e-06
-9.11084e-05
-4.17874e-06
-8.70334e-05
-4.07496e-06
-8.30685e-05
-3.96491e-06
-7.92198e-05
-3.84877e-06
-7.54913e-05
-3.72845e-06
-7.18857e-05
-3.60566e-06
-6.84051e-05
-3.48051e-06
-6.50508e-05
-3.35437e-06
-6.18225e-05
-3.22828e-06
-5.87212e-05
-3.10132e-06
-5.57458e-05
-2.97534e-06
-5.28963e-05
-2.84953e-06
-5.0173e-05
-2.72331e-06
-4.75745e-05
-2.59854e-06
-4.51009e-05
-2.47353e-06
-4.27504e-05
-2.35056e-06
-4.05217e-05
-2.22864e-06
-3.84126e-05
-2.10918e-06
-3.64205e-05
-1.99204e-06
-3.45423e-05
-1.87818e-06
-3.27751e-05
-1.76726e-06
-3.11157e-05
-1.65937e-06
-2.95599e-05
-1.55578e-06
-2.81033e-05
-1.45665e-06
-2.67405e-05
-1.36274e-06
-2.54656e-05
-1.27489e-06
-2.42717e-05
-1.19395e-06
-2.31515e-05
-1.12015e-06
-2.20975e-05
-1.05406e-06
-2.11022e-05
-9.95312e-07
-2.01577e-05
-9.44521e-07
-1.92557e-05
-9.01925e-07
-1.83872e-05
-8.68503e-07
-1.75416e-05
-8.45592e-07
-1.67063e-05
-8.3536e-07
-1.58679e-05
-8.38366e-07
-1.50131e-05
-8.54795e-07
-1.41299e-05
-8.83258e-07
-1.32096e-05
-9.20255e-07
-1.22481e-05
-9.61454e-07
-1.12461e-05
-1.00207e-06
-1.02092e-05
-1.03686e-06
-9.14846e-06
-1.06076e-06
-8.07892e-06
-1.06954e-06
-7.01693e-06
-1.06199e-06
-5.98092e-06
-1.03601e-06
-4.99057e-06
-9.90348e-07
-4.0637e-06
-9.26871e-07
-3.21393e-06
-8.49771e-07
-2.44799e-06
-7.65938e-07
-1.76197e-06
-6.86025e-07
-1.14144e-06
-6.20533e-07
-5.61741e-07
-5.79694e-07
-5.61741e-07
4.44014e-05
-8.92087e-05
8.94142e-05
-9.04705e-05
0.000134782
-9.1238e-05
0.00018042
-9.18632e-05
0.00022624
-9.23415e-05
0.00027215
-9.26661e-05
0.000318064
-9.28399e-05
0.000363892
-9.28586e-05
0.000409556
-9.27344e-05
0.000454986
-9.24761e-05
0.000500088
-9.20494e-05
0.000544786
-9.14772e-05
0.000588987
-9.07423e-05
0.000632601
-8.98351e-05
0.000675541
-8.87597e-05
0.000717718
-8.75138e-05
0.000759049
-8.60988e-05
0.000799462
-8.45365e-05
0.000838896
-8.28337e-05
0.0008773
-8.10079e-05
0.000914636
-7.90746e-05
0.000950876
-7.70509e-05
0.000986009
-7.49559e-05
0.00102002
-7.27909e-05
0.00105289
-7.05673e-05
0.00108464
-6.82994e-05
0.00111524
-6.59755e-05
0.0011447
-6.3621e-05
0.00117303
-6.12371e-05
0.00120022
-5.88167e-05
0.00122633
-5.64121e-05
0.0012513
-5.39652e-05
0.00127499
-5.1316e-05
0.00129747
-4.86229e-05
0.00131878
-4.59687e-05
0.00133894
-4.33427e-05
0.00135795
-4.07312e-05
0.00137581
-3.81141e-05
0.00139248
-3.54444e-05
0.00140788
-3.26853e-05
0.00142196
-2.98077e-05
0.00143464
-2.68183e-05
0.00144582
-2.36619e-05
0.00145545
-2.0405e-05
0.0014634
-1.6961e-05
0.00146957
-1.33132e-05
0.00147383
-9.57392e-06
0.00147641
-5.8458e-06
0.00147641
-1.31001e-06
0.00147432
3.47041e-06
0.00147007
7.97379e-06
0.00146366
1.24318e-05
0.00145509
1.68747e-05
0.00144435
2.13073e-05
0.00143144
2.57229e-05
0.00141636
3.01224e-05
0.00139914
3.44667e-05
0.00137979
3.87739e-05
0.00135837
4.29951e-05
0.00133491
4.71607e-05
0.00130947
5.11853e-05
0.00128214
5.50839e-05
0.00125302
5.88098e-05
0.0012222
6.23459e-05
0.00118978
6.56933e-05
0.00115589
6.88085e-05
0.00112065
7.17013e-05
0.0010842
7.43275e-05
0.00104669
7.66613e-05
0.00100824
7.87531e-05
0.000968944
8.06069e-05
0.000928986
8.21259e-05
0.00088852
8.33473e-05
0.00084767
8.43292e-05
0.00080661
8.4989e-05
0.00076544
8.53668e-05
0.000724303
8.54977e-05
0.000683323
8.53543e-05
0.000642603
8.49617e-05
0.000602292
8.42902e-05
0.000562475
8.34284e-05
0.000523274
8.23073e-05
0.000484753
8.10142e-05
0.000446983
7.9529e-05
0.000410089
7.78353e-05
0.000374128
7.59974e-05
0.000339213
7.39673e-05
0.000305339
7.18611e-05
0.000272564
6.96222e-05
0.000240983
6.72459e-05
0.000210562
6.48416e-05
0.000181385
6.23074e-05
0.000153439
5.97519e-05
0.000126769
5.71321e-05
0.000101379
5.4462e-05
7.72653e-05
5.1805e-05
5.44109e-05
4.91381e-05
3.28587e-05
4.64293e-05
1.25671e-05
4.37685e-05
-6.4721e-06
4.11366e-05
-2.4267e-05
3.85158e-05
-4.08439e-05
3.59366e-05
-5.62137e-05
3.33739e-05
-7.04218e-05
3.08988e-05
-8.34799e-05
2.84519e-05
-9.54215e-05
2.60794e-05
-0.000106289
2.37789e-05
-0.000116112
2.15443e-05
-0.000124918
1.93753e-05
-0.000132772
1.73088e-05
-0.000139681
1.53009e-05
-0.000145699
1.33817e-05
-0.000150868
1.15541e-05
-0.000155223
9.80542e-06
-0.000158822
8.15498e-06
-0.000161692
6.58407e-06
-0.000163875
5.09815e-06
-0.000165412
3.69654e-06
-0.000166333
2.36938e-06
-0.000166693
1.1493e-06
-0.000166542
1.7246e-08
-0.000165896
-1.02884e-06
-0.000164798
-2.01121e-06
-0.000163283
-2.92043e-06
-0.000161385
-3.75471e-06
-0.000159139
-4.51595e-06
-0.000156577
-5.20686e-06
-0.000153734
-5.82644e-06
-0.000150638
-6.37955e-06
-0.000147321
-6.86747e-06
-0.000143814
-7.2899e-06
-0.000140143
-7.65298e-06
-0.000136336
-7.95828e-06
-0.000132419
-8.20732e-06
-0.000128415
-8.40601e-06
-0.000124348
-8.55487e-06
-0.000120239
-8.65729e-06
-0.000116105
-8.71953e-06
-0.000111966
-8.74356e-06
-0.000107837
-8.7312e-06
-0.000103733
-8.68688e-06
-9.96675e-05
-8.61336e-06
-9.56517e-05
-8.51443e-06
-9.1698e-05
-8.3886e-06
-8.78166e-05
-8.24081e-06
-8.40153e-05
-8.07568e-06
-8.03034e-05
-7.89065e-06
-7.66878e-05
-7.69054e-06
-7.31738e-05
-7.47888e-06
-6.97665e-05
-7.25607e-06
-6.64691e-05
-7.02586e-06
-6.32832e-05
-6.79163e-06
-6.021e-05
-6.55367e-06
-5.72498e-05
-6.31461e-06
-5.44017e-05
-6.07629e-06
-5.16662e-05
-5.83681e-06
-4.90422e-05
-5.5994e-06
-4.65294e-05
-5.36231e-06
-4.41284e-05
-5.1243e-06
-4.18381e-05
-4.88881e-06
-3.9659e-05
-4.65265e-06
-3.75892e-05
-4.42034e-06
-3.56278e-05
-4.19012e-06
-3.37722e-05
-3.96474e-06
-3.20207e-05
-3.74354e-06
-3.03701e-05
-3.52879e-06
-2.88178e-05
-3.31951e-06
-2.73615e-05
-3.11574e-06
-2.59974e-05
-2.9199e-06
-2.47216e-05
-2.7324e-06
-2.35296e-05
-2.55479e-06
-2.24156e-05
-2.38882e-06
-2.13733e-05
-2.23628e-06
-2.03959e-05
-2.09756e-06
-1.94765e-05
-1.97349e-06
-1.86086e-05
-1.86313e-06
-1.77858e-05
-1.76732e-06
-1.70014e-05
-1.68638e-06
-1.62477e-05
-1.62221e-06
-1.55153e-05
-1.57798e-06
-1.47923e-05
-1.55834e-06
-1.40657e-05
-1.56493e-06
-1.33221e-05
-1.59846e-06
-1.25488e-05
-1.65652e-06
-1.17372e-05
-1.73189e-06
-1.08831e-05
-1.81557e-06
-9.9874e-06
-1.89772e-06
-9.05648e-06
-1.96779e-06
-8.10112e-06
-2.01612e-06
-7.1364e-06
-2.03425e-06
-6.1779e-06
-2.02049e-06
-5.24327e-06
-1.97064e-06
-4.35184e-06
-1.88178e-06
-3.5216e-06
-1.75711e-06
-2.76713e-06
-1.60424e-06
-2.09617e-06
-1.4369e-06
-1.50442e-06
-1.27778e-06
-9.75673e-07
-1.14927e-06
-4.82479e-07
-1.07289e-06
-1.04422e-06
4.83102e-05
-0.000137519
9.71985e-05
-0.000139359
0.000146342
-0.000140382
0.000195576
-0.000141097
0.00024472
-0.000141486
0.000293637
-0.000141583
0.00034221
-0.000141413
0.000390255
-0.000140903
0.000437635
-0.000140114
0.000484259
-0.0001391
0.000530027
-0.000137817
0.000574829
-0.000136279
0.000618614
-0.000134528
0.000661235
-0.000132456
0.00070256
-0.000130084
0.00074247
-0.000127424
0.000780903
-0.000124532
0.000817822
-0.000121455
0.000853211
-0.000118223
0.000887083
-0.00011488
0.000919471
-0.000111463
0.000950423
-0.000108003
0.00098
-0.000104533
0.00100827
-0.000101057
0.00103531
-9.76139e-05
0.00106118
-9.41687e-05
0.00108598
-9.07773e-05
0.00110977
-8.74057e-05
0.00113258
-8.40477e-05
0.00115455
-8.07834e-05
0.00117566
-7.75239e-05
0.00119589
-7.41999e-05
0.00121529
-7.07136e-05
0.00123402
-6.73487e-05
0.00125214
-6.40886e-05
0.00126964
-6.08498e-05
0.0012865
-5.75856e-05
0.00130261
-5.42269e-05
0.00131785
-5.06875e-05
0.00133212
-4.69498e-05
0.0013453
-4.29903e-05
0.00135725
-3.87729e-05
0.00136787
-3.42791e-05
0.00137683
-2.93598e-05
0.00138411
-2.42456e-05
0.00138965
-1.88566e-05
0.00139355
-1.3466e-05
0.00139491
-7.206e-06
0.00139401
-4.09534e-07
0.00139103
6.44404e-06
0.00138589
1.31186e-05
0.00137854
1.97799e-05
0.00136896
2.64534e-05
0.00135713
3.31348e-05
0.00134306
3.97972e-05
0.00132674
4.64444e-05
0.00130819
5.30125e-05
0.00128744
5.95263e-05
0.00126457
6.58615e-05
0.00123966
7.20711e-05
0.00121281
7.80337e-05
0.00118414
8.37604e-05
0.00115376
8.91914e-05
0.0011218
9.43009e-05
0.00108842
9.90782e-05
0.00105377
0.000103454
0.00101796
0.000107516
0.000981128
0.000111156
0.000943446
0.000114343
0.000905096
0.000117103
0.000866224
0.000119479
0.000827002
0.000121348
0.000787545
0.000122803
0.000747963
0.000123911
0.000708359
0.000124594
0.000668926
0.0001248
0.000629753
0.00012467
0.000590974
0.000124133
0.000552715
0.000123221
0.000515076
0.000121929
0.000478148
0.000120357
0.000441993
0.000118462
0.000406702
0.000116306
0.000372324
0.000113907
0.000338882
0.000111277
0.000306474
0.000108406
0.000275155
0.000105286
0.000244959
0.000102057
0.000215895
9.86867e-05
0.000188002
9.51388e-05
0.000161295
9.15484e-05
0.000135795
8.78078e-05
0.000111498
8.40484e-05
8.83859e-05
8.02443e-05
6.64811e-05
7.63668e-05
4.57803e-05
7.25057e-05
2.62905e-05
6.86279e-05
7.95294e-06
6.47668e-05
-9.25128e-06
6.09728e-05
-2.52924e-05
5.71777e-05
-4.01845e-05
5.34079e-05
-5.39734e-05
4.97255e-05
-6.6728e-05
4.61284e-05
-7.84077e-05
4.25786e-05
-8.91082e-05
3.91524e-05
-9.88292e-05
3.58004e-05
-0.0001076
3.255e-05
-0.000115467
2.94109e-05
-0.000122452
2.63608e-05
-0.000128606
2.3462e-05
-0.000133959
2.06539e-05
-0.000138549
1.79716e-05
-0.000142415
1.54204e-05
-0.000145606
1.29962e-05
-0.000148127
1.06768e-05
-0.000150045
8.50171e-06
-0.000151388
6.44095e-06
-0.000152176
4.48482e-06
-0.000152469
2.66225e-06
-0.00015229
9.70153e-07
-0.000151693
-5.79706e-07
-0.000150681
-2.04085e-06
-0.000149293
-3.39909e-06
-0.000147561
-4.65254e-06
-0.000145516
-5.7999e-06
-0.000143187
-6.84472e-06
-0.000140603
-7.79121e-06
-0.000137791
-8.6378e-06
-0.000134779
-9.39154e-06
-0.000131593
-1.0054e-05
-0.000128258
-1.06245e-05
-0.000124799
-1.11119e-05
-0.000121239
-1.15181e-05
-0.000117601
-1.18455e-05
-0.000113905
-1.21025e-05
-0.00011017
-1.22901e-05
-0.000106414
-1.24132e-05
-0.000102652
-1.24811e-05
-9.88991e-05
-1.24966e-05
-9.5168e-05
-1.24623e-05
-9.14704e-05
-1.23845e-05
-8.78167e-05
-1.22671e-05
-8.42161e-05
-1.2115e-05
-8.06787e-05
-1.1926e-05
-7.72127e-05
-1.17068e-05
-7.38248e-05
-1.14637e-05
-7.05226e-05
-1.11928e-05
-6.73123e-05
-1.09008e-05
-6.41983e-05
-1.05929e-05
-6.11845e-05
-1.02698e-05
-5.82732e-05
-9.93718e-06
-5.54647e-05
-9.60015e-06
-5.27589e-05
-9.25944e-06
-5.01546e-05
-8.91886e-06
-4.76502e-05
-8.58077e-06
-4.5245e-05
-8.242e-06
-4.29378e-05
-7.90654e-06
-4.07287e-05
-7.57141e-06
-3.86186e-05
-7.23447e-06
-3.66069e-05
-6.9005e-06
-3.46944e-05
-6.56515e-06
-3.28797e-05
-6.23502e-06
-3.11613e-05
-5.9085e-06
-2.95371e-05
-5.58895e-06
-2.80049e-05
-5.27581e-06
-2.65622e-05
-4.97144e-06
-2.52068e-05
-4.67494e-06
-2.39366e-05
-4.38591e-06
-2.27489e-05
-4.10761e-06
-2.16404e-05
-3.84087e-06
-2.06071e-05
-3.58807e-06
-1.96437e-05
-3.35231e-06
-1.87434e-05
-3.1365e-06
-1.78998e-05
-2.94117e-06
-1.71064e-05
-2.76693e-06
-1.63577e-05
-2.61183e-06
-1.56488e-05
-2.47621e-06
-1.4975e-05
-2.36021e-06
-1.43305e-05
-2.26663e-06
-1.37071e-05
-2.20138e-06
-1.30932e-05
-2.17229e-06
-1.2475e-05
-2.18315e-06
-1.18377e-05
-2.23576e-06
-1.11673e-05
-2.32685e-06
-1.04539e-05
-2.44528e-06
-9.69336e-06
-2.57616e-06
-8.88716e-06
-2.70392e-06
-8.04304e-06
-2.81191e-06
-7.17242e-06
-2.88674e-06
-6.29126e-06
-2.9154e-06
-5.41484e-06
-2.89692e-06
-4.5605e-06
-2.82499e-06
-3.7481e-06
-2.69418e-06
-2.99715e-06
-2.50806e-06
-2.32563e-06
-2.27577e-06
-1.74371e-06
-2.01881e-06
-1.24586e-06
-1.77563e-06
-8.11311e-07
-1.58382e-06
-4.07127e-07
-1.47707e-06
-1.45135e-06
5.76659e-05
-0.000195185
0.000115832
-0.000197525
0.000174053
-0.000198603
0.000232045
-0.000199088
0.000289497
-0.000198939
0.00034603
-0.000198116
0.000401402
-0.000196785
0.000455231
-0.000194733
0.00050746
-0.000192343
0.000557751
-0.000189391
0.000606002
-0.000186068
0.000652205
-0.000182482
0.000696002
-0.000178325
0.000737233
-0.000173687
0.00077572
-0.000168571
0.000811455
-0.000163159
0.000844461
-0.000157538
0.000874823
-0.000151817
0.000902713
-0.000146113
0.000928343
-0.000140509
0.000951956
-0.000135076
0.000973816
-0.000129864
0.0009942
-0.000124916
0.00101338
-0.000120239
0.00103161
-0.000115839
0.00104911
-0.000111669
0.00106605
-0.000107718
0.00108258
-0.000103938
0.00109897
-0.000100434
0.00111521
-9.70273e-05
0.00113111
-9.34253e-05
0.00114665
-8.97363e-05
0.00116236
-8.6421e-05
0.00117834
-8.33293e-05
0.00119454
-8.02941e-05
0.00121087
-7.71748e-05
0.00122712
-7.38412e-05
0.00124308
-7.0187e-05
0.00125853
-6.61326e-05
0.00127323
-6.16519e-05
0.001287
-5.67595e-05
0.00129957
-5.13458e-05
0.00131074
-4.54437e-05
0.00132044
-3.90677e-05
0.00132802
-3.18205e-05
0.00133395
-2.47837e-05
0.00133703
-1.65515e-05
0.00133878
-8.9528e-06
0.00133727
1.09555e-06
0.00133354
1.01786e-05
0.00132745
1.9205e-05
0.00131896
2.82753e-05
0.001308
3.74111e-05
0.00129455
4.65891e-05
0.00127859
5.5755e-05
0.00126015
6.48779e-05
0.00123932
7.38431e-05
0.00121619
8.26599e-05
0.00119087
9.11798e-05
0.0011635
9.94474e-05
0.00113421
0.000107321
0.00110316
0.000114812
0.00107052
0.000121834
0.00103651
0.000128309
0.00100122
0.000134362
0.000964822
0.000139855
0.000927546
0.000144792
0.000889566
0.000149136
0.000851029
0.000152879
0.000812186
0.000155946
0.000773084
0.000158582
0.000733832
0.0001606
0.000694657
0.000161979
0.000655675
0.000162893
0.000617053
0.000163216
0.000578913
0.00016294
0.000541339
0.000162244
0.000504453
0.000161019
0.000468323
0.000159351
0.000433018
0.000157234
0.000398614
0.000154761
0.000365201
0.000151874
0.000332751
0.000148756
0.00030138
0.000145278
0.000271131
0.000141526
0.000242064
0.000137474
0.000214077
0.000133272
0.000187261
0.000128873
0.000161676
0.000124272
0.000137192
0.000119622
0.000113938
0.000114803
9.18053e-05
0.000109941
7.09098e-05
0.000104944
5.11445e-05
0.00010001
3.25084e-05
9.5003e-05
1.50185e-05
8.99957e-05
-1.39924e-06
8.50456e-05
-1.66927e-05
8.00603e-05
-3.09197e-05
7.51997e-05
-4.4129e-05
7.03871e-05
-5.63512e-05
6.56301e-05
-6.7572e-05
6.09464e-05
-7.7845e-05
5.64014e-05
-8.71987e-05
5.19323e-05
-9.5673e-05
4.76267e-05
-0.000103294
4.34215e-05
-0.000110098
3.93541e-05
-0.000116114
3.54268e-05
-0.000121383
3.16299e-05
-0.000125939
2.80183e-05
-0.00012983
2.45444e-05
-0.000133077
2.12185e-05
-0.000135722
1.80651e-05
-0.000137758
1.50325e-05
-0.000139286
1.22047e-05
-0.000140296
9.51209e-06
-0.000140829
6.97426e-06
-0.000140935
4.58995e-06
-0.000140609
2.33637e-06
-0.000139904
2.65553e-07
-0.000138856
-1.62732e-06
-0.000137474
-3.42342e-06
-0.000135789
-5.08364e-06
-0.00013383
-6.61184e-06
-0.000131622
-8.00747e-06
-0.000129191
-9.27588e-06
-0.00012656
-1.04226e-05
-0.000123752
-1.14453e-05
-0.000120791
-1.23529e-05
-0.000117698
-1.3147e-05
-0.000114496
-1.38261e-05
-0.000111207
-1.44014e-05
-0.00010785
-1.48753e-05
-0.000104445
-1.52507e-05
-0.000101008
-1.55387e-05
-9.75578e-05
-1.57407e-05
-9.41075e-05
-1.58636e-05
-9.06693e-05
-1.59193e-05
-8.72541e-05
-1.59117e-05
-8.38721e-05
-1.58443e-05
-8.05317e-05
-1.57249e-05
-7.72409e-05
-1.55579e-05
-7.40063e-05
-1.53496e-05
-7.08361e-05
-1.50962e-05
-6.77368e-05
-1.4806e-05
-6.4714e-05
-1.44864e-05
-6.17745e-05
-1.41323e-05
-5.89236e-05
-1.37518e-05
-5.6165e-05
-1.33514e-05
-5.35023e-05
-1.29326e-05
-5.09364e-05
-1.2503e-05
-4.84664e-05
-1.20701e-05
-4.60906e-05
-1.16353e-05
-4.38059e-05
-1.12036e-05
-4.16092e-05
-1.07774e-05
-3.94991e-05
-1.03521e-05
-3.74744e-05
-9.93125e-06
-3.55356e-05
-9.51022e-06
-3.36843e-05
-9.08577e-06
-3.19209e-05
-8.66388e-06
-3.02467e-05
-8.23939e-06
-2.86602e-05
-7.82148e-06
-2.71598e-05
-7.40895e-06
-2.57429e-05
-7.00586e-06
-2.44074e-05
-6.61123e-06
-2.31508e-05
-6.22802e-06
-2.19714e-05
-5.85441e-06
-2.08681e-05
-5.48923e-06
-1.98387e-05
-5.13701e-06
-1.88809e-05
-4.79857e-06
-1.79914e-05
-4.47765e-06
-1.71645e-05
-4.17914e-06
-1.63936e-05
-3.90746e-06
-1.56714e-05
-3.66338e-06
-1.49916e-05
-3.44666e-06
-1.43498e-05
-3.2537e-06
-1.37428e-05
-3.08316e-06
-1.31683e-05
-2.93471e-06
-1.26232e-05
-2.81172e-06
-1.21003e-05
-2.7243e-06
-1.15881e-05
-2.68449e-06
-1.10714e-05
-2.69987e-06
-1.05331e-05
-2.77401e-06
-9.95714e-06
-2.90286e-06
-9.33176e-06
-3.07065e-06
-8.65285e-06
-3.25507e-06
-7.92262e-06
-3.43416e-06
-7.15143e-06
-3.5831e-06
-6.35143e-06
-3.68674e-06
-5.53986e-06
-3.72697e-06
-4.7313e-06
-3.70547e-06
-3.94296e-06
-3.61333e-06
-3.19528e-06
-3.44186e-06
-2.51037e-06
-3.19296e-06
-1.9107e-06
-2.87543e-06
-1.41104e-06
-2.51848e-06
-1.00437e-06
-2.1823e-06
-6.60351e-07
-1.92784e-06
-3.39477e-07
-1.79795e-06
-1.79082e-06
7.40976e-05
-0.000269282
0.000148517
-0.000271944
0.000222551
-0.000272636
0.000295522
-0.000272059
0.000366807
-0.000270224
0.000435866
-0.000267174
0.000502056
-0.000262975
0.000565011
-0.000257688
0.000624047
-0.000251379
0.000679139
-0.000244483
0.000730306
-0.000237235
0.000777206
-0.000229382
0.000819516
-0.000220634
0.000856972
-0.000211143
0.000889623
-0.000201222
0.000917626
-0.000191162
0.000941242
-0.000181154
0.00096087
-0.000171445
0.000976956
-0.000162199
0.000990009
-0.000153562
0.00100058
-0.000145644
0.00100923
-0.000138521
0.00101654
-0.000132224
0.00102306
-0.000126757
0.00102928
-0.000122059
0.00103561
-0.000118003
0.00104225
-0.000114351
0.00104933
-0.000111019
0.00105697
-0.000108075
0.00106539
-0.000105447
0.00107511
-0.000103151
0.0010869
-0.00010152
0.0011006
-0.000100121
0.00111589
-9.86207e-05
0.00113244
-9.68469e-05
0.00114986
-9.45952e-05
0.00116777
-9.17511e-05
0.00118579
-8.82047e-05
0.00120356
-8.38973e-05
0.00122068
-7.87783e-05
0.00123689
-7.29674e-05
0.00125156
-6.60197e-05
0.00126455
-5.84279e-05
0.00127577
-5.02933e-05
0.00128513
-4.11819e-05
0.00129117
-3.08232e-05
0.00129552
-2.08953e-05
0.00129679
-1.02239e-05
0.00129521
2.67068e-06
0.00129103
1.43617e-05
0.00128406
2.61754e-05
0.00127421
3.81305e-05
0.00126143
5.01906e-05
0.00124575
6.22661e-05
0.00122725
7.4249e-05
0.00120605
8.60867e-05
0.00118229
9.7597e-05
0.00115614
0.000108817
0.00112775
0.000119569
0.00109728
0.000129908
0.001065
0.000139603
0.00103114
0.000148669
0.000995803
0.000157175
0.000959202
0.000164911
0.000921579
0.000171985
0.000883189
0.000178245
0.00084422
0.000183761
0.00080492
0.000188436
0.000765404
0.000192395
0.000725725
0.000195625
0.000686132
0.000198175
0.000646865
0.000199867
0.000608038
0.000200806
0.000569778
0.000201153
0.000532167
0.000200827
0.000495329
0.000199777
0.000459367
0.000198206
0.000424279
0.000196108
0.000390225
0.000193406
0.000357281
0.000190178
0.000325395
0.000186646
0.000294553
0.000182717
0.000264927
0.000178382
0.000236521
0.000173684
0.000209403
0.000168643
0.000183325
0.000163552
0.000158539
0.000158059
0.000134988
0.000152424
0.000112536
0.000146723
9.13477e-05
0.000140811
7.12504e-05
0.0001349
5.2388e-05
0.000128803
3.45626e-05
0.000122769
1.78582e-05
0.000116714
2.25303e-06
0.000110608
-1.23194e-05
0.000104568
-2.58571e-05
9.85833e-05
-3.84168e-05
9.262e-05
-5.00088e-05
8.67917e-05
-6.06709e-05
8.10492e-05
-7.04396e-05
7.53988e-05
-7.93366e-05
6.98434e-05
-8.74073e-05
6.4472e-05
-9.46767e-05
5.92017e-05
-0.000101155
5.41052e-05
-0.000106913
4.91798e-05
-0.000111954
4.43945e-05
-0.00011633
3.98026e-05
-0.000120111
3.54111e-05
-0.000123266
3.11738e-05
-0.000125842
2.71196e-05
-0.000127878
2.3255e-05
-0.000129428
1.96147e-05
-0.000130516
1.61205e-05
-0.000131152
1.28411e-05
-0.000131372
9.73206e-06
-0.000131206
6.80803e-06
-0.000130681
4.06543e-06
-0.000129841
1.49572e-06
-0.000128714
-8.60941e-07
-0.000127272
-3.06979e-06
-0.000125573
-5.12209e-06
-0.000123641
-7.01618e-06
-0.000121495
-8.75715e-06
-0.000119159
-1.03441e-05
-0.000116651
-1.17838e-05
-0.00011399
-1.3083e-05
-0.000111198
-1.42381e-05
-0.000108291
-1.52595e-05
-0.00010529
-1.61484e-05
-0.000102214
-1.69022e-05
-9.9081e-05
-1.75339e-05
-9.59101e-05
-1.80462e-05
-9.27181e-05
-1.84427e-05
-8.95196e-05
-1.87371e-05
-8.63284e-05
-1.89319e-05
-8.31562e-05
-1.90358e-05
-8.00118e-05
-1.90637e-05
-7.69029e-05
-1.90206e-05
-7.38366e-05
-1.89107e-05
-7.08183e-05
-1.87431e-05
-6.78535e-05
-1.85227e-05
-6.49469e-05
-1.82562e-05
-6.21048e-05
-1.79384e-05
-5.93324e-05
-1.75784e-05
-5.66345e-05
-1.71844e-05
-5.40171e-05
-1.67496e-05
-5.14854e-05
-1.62835e-05
-4.90432e-05
-1.57937e-05
-4.66934e-05
-1.52824e-05
-4.44362e-05
-1.47602e-05
-4.22694e-05
-1.4237e-05
-4.0189e-05
-1.37157e-05
-3.819e-05
-1.32026e-05
-3.62674e-05
-1.27001e-05
-3.44188e-05
-1.22006e-05
-3.26433e-05
-1.17068e-05
-3.09424e-05
-1.12111e-05
-2.93191e-05
-1.07091e-05
-2.77749e-05
-1.02081e-05
-2.63115e-05
-9.7028e-06
-2.49273e-05
-9.20561e-06
-2.36204e-05
-8.71592e-06
-2.23875e-05
-8.23871e-06
-2.12259e-05
-7.77287e-06
-2.01337e-05
-7.3202e-06
-1.91095e-05
-6.87857e-06
-1.8153e-05
-6.44575e-06
-1.72631e-05
-6.02691e-06
-1.64387e-05
-5.62304e-06
-1.56768e-05
-5.2395e-06
-1.49719e-05
-4.88405e-06
-1.43163e-05
-4.563e-06
-1.3702e-05
-4.27773e-06
-1.31225e-05
-4.02618e-06
-1.25736e-05
-3.80259e-06
-1.20549e-05
-3.6018e-06
-1.15666e-05
-3.42304e-06
-1.11089e-05
-3.26941e-06
-1.06761e-05
-3.15715e-06
-1.02565e-05
-3.10406e-06
-9.83293e-06
-3.12347e-06
-9.38528e-06
-3.22165e-06
-8.89475e-06
-3.39339e-06
-8.34758e-06
-3.61783e-06
-7.73999e-06
-3.86266e-06
-7.07446e-06
-4.09969e-06
-6.36572e-06
-4.29184e-06
-5.62615e-06
-4.42631e-06
-4.87531e-06
-4.47781e-06
-4.1257e-06
-4.45508e-06
-3.39391e-06
-4.34512e-06
-2.70022e-06
-4.13555e-06
-2.06999e-06
-3.82319e-06
-1.53189e-06
-3.41354e-06
-1.1078e-06
-2.94257e-06
-7.8913e-07
-2.50097e-06
-5.2843e-07
-2.18854e-06
-2.81898e-07
-2.04448e-06
-2.07272e-06
0.000103353
-0.000372635
0.000206693
-0.000375284
0.000308824
-0.000374768
0.000408505
-0.000371741
0.000504497
-0.000366215
0.000595597
-0.000358274
0.000680735
-0.000348113
0.000759
-0.000335953
0.000829977
-0.000322356
0.000892358
-0.000306864
0.00094508
-0.000289957
0.000988221
-0.000272523
0.0010224
-0.000254812
0.00104781
-0.000236553
0.00106482
-0.000218235
0.00107408
-0.000200424
0.0010765
-0.000183571
0.0010731
-0.000168045
0.00106503
-0.000154128
0.00105352
-0.000142053
0.00103983
-0.000131956
0.00102521
-0.0001239
0.00101083
-0.000117837
0.000997666
-0.000113598
0.000986465
-0.000110858
0.000977724
-0.000109262
0.000971973
-0.0001086
0.000969657
-0.000108704
0.000970092
-0.00010851
0.000974312
-0.000109667
0.000982923
-0.000111763
0.000995528
-0.000114125
0.00101162
-0.000116216
0.00103066
-0.000117655
0.00105194
-0.000118132
0.00107475
-0.0001174
0.00109848
-0.000115484
0.00112247
-0.000112192
0.00114603
-0.000107456
0.0011687
-0.000101453
0.00118928
-9.35478e-05
0.00120856
-8.5303e-05
0.00122557
-7.54373e-05
0.00123924
-6.39573e-05
0.00124984
-5.17833e-05
0.00125803
-3.90124e-05
0.00126314
-2.60013e-05
0.00126426
-1.1353e-05
0.00126272
4.21541e-06
0.00125782
1.92569e-05
0.00124945
3.45466e-05
0.0012376
4.99853e-05
0.00122236
6.54247e-05
0.00120388
8.07548e-05
0.00118235
9.57774e-05
0.00115788
0.000110558
0.0011307
0.000124772
0.00110109
0.000138427
0.00106928
0.000151379
0.00103558
0.000163614
0.00100008
0.000175102
0.000963033
0.000185713
0.000924832
0.000195376
0.00088572
0.000204023
0.000845938
0.000211767
0.000805709
0.000218474
0.000765249
0.000224221
0.000724683
0.000229003
0.000684201
0.000232876
0.000644088
0.000235738
0.00060447
0.000237793
0.000565502
0.000238834
0.000527303
0.000239005
0.000489928
0.000238528
0.000453546
0.000237209
0.000418232
0.000235091
0.000383977
0.000232462
0.00035101
0.000229075
0.000319218
0.000225198
0.000288579
0.000220816
0.00025917
0.000216056
0.000231114
0.000210773
0.000204352
0.000205144
0.000178959
0.000199077
0.000154638
0.000192964
0.000131671
0.000186519
0.000109927
0.000179802
8.93538e-05
0.000172998
7.00385e-05
0.000166039
5.18121e-05
0.000159037
3.48025e-05
0.00015191
1.8749e-05
0.000144856
3.81265e-06
0.000137706
-1.00747e-05
0.000130601
-2.29809e-05
0.000123514
-3.49467e-05
0.000116534
-4.59805e-05
0.000109617
-5.61052e-05
0.000102745
-6.53494e-05
9.60359e-05
-7.37803e-05
8.94801e-05
-8.14082e-05
8.30267e-05
-8.82756e-05
7.67107e-05
-9.44067e-05
7.06032e-05
-9.98712e-05
6.46661e-05
-0.000104665
5.88989e-05
-0.00010881
5.33245e-05
-0.000112381
4.7966e-05
-0.000115392
4.28137e-05
-0.000117845
3.78643e-05
-0.000119793
3.31214e-05
-0.000121298
2.86251e-05
-0.000122355
2.43112e-05
-0.000122997
2.02573e-05
-0.000123265
1.63888e-05
-0.000123174
1.27499e-05
-0.000122751
9.30923e-06
-0.000122022
6.0782e-06
-0.000121011
3.05465e-06
-0.000119758
2.42701e-07
-0.000118255
-2.36384e-06
-0.000116525
-4.79927e-06
-0.000114596
-7.051e-06
-0.000112489
-9.12403e-06
-0.00011022
-1.10262e-05
-0.000107807
-1.27567e-05
-0.000105267
-1.43242e-05
-0.000102613
-1.57363e-05
-9.98631e-05
-1.69881e-05
-9.70316e-05
-1.80911e-05
-9.41349e-05
-1.9045e-05
-9.11912e-05
-1.98459e-05
-8.82172e-05
-2.0508e-05
-8.52292e-05
-2.10342e-05
-8.22431e-05
-2.14288e-05
-7.92715e-05
-2.17087e-05
-7.63258e-05
-2.18776e-05
-7.34149e-05
-2.19467e-05
-7.05446e-05
-2.19339e-05
-6.77196e-05
-2.18455e-05
-6.49439e-05
-2.16864e-05
-6.22205e-05
-2.14665e-05
-5.95523e-05
-2.11909e-05
-5.69424e-05
-2.08661e-05
-5.43956e-05
-2.04852e-05
-5.19162e-05
-2.00578e-05
-4.95084e-05
-1.95922e-05
-4.71779e-05
-1.90801e-05
-4.493e-05
-1.85314e-05
-4.27689e-05
-1.79548e-05
-4.06977e-05
-1.73537e-05
-3.87161e-05
-1.67418e-05
-3.68204e-05
-1.61327e-05
-3.50044e-05
-1.55316e-05
-3.32601e-05
-1.49469e-05
-3.15806e-05
-1.43796e-05
-2.99622e-05
-1.3819e-05
-2.84048e-05
-1.32642e-05
-2.69116e-05
-1.27043e-05
-2.54875e-05
-1.21331e-05
-2.41356e-05
-1.156e-05
-2.28578e-05
-1.09806e-05
-2.16523e-05
-1.0411e-05
-2.05162e-05
-9.85207e-06
-1.94449e-05
-9.30996e-06
-1.84363e-05
-8.78155e-06
-1.74881e-05
-8.26836e-06
-1.65991e-05
-7.76756e-06
-1.57703e-05
-7.27455e-06
-1.50017e-05
-6.79554e-06
-1.42936e-05
-6.33114e-06
-1.36438e-05
-5.88929e-06
-1.30464e-05
-5.48146e-06
-1.24927e-05
-5.11665e-06
-1.1973e-05
-4.79747e-06
-1.14805e-05
-4.51864e-06
-1.10107e-05
-4.2724e-06
-1.05668e-05
-4.04577e-06
-1.0151e-05
-3.8388e-06
-9.76843e-06
-3.65198e-06
-9.41475e-06
-3.51083e-06
-9.07827e-06
-3.44054e-06
-8.73894e-06
-3.46279e-06
-8.37328e-06
-3.58732e-06
-7.95931e-06
-3.80737e-06
-7.48108e-06
-4.09606e-06
-6.93589e-06
-4.40785e-06
-6.32557e-06
-4.71e-06
-5.67135e-06
-4.94607e-06
-4.98525e-06
-5.1124e-06