#              y        d.bubbles                p       alpha.air1       alpha.air2       alpha.air3    alpha.bubbles
           0.015    0.00305600394       107385.471    2.3837919e-51   1.29385934e-50   2.32737908e-68            3e-06
           0.025    0.00305600394       107284.722   6.70350352e-40   1.65808785e-38    3.3324097e-56            3e-06
           0.035    0.00305600394       107183.972   2.27128033e-16    1.1003303e-25   2.46064554e-31            3e-06
           0.045    0.00300031702       107100.369      0.340964575   1.52199186e-10   3.69392077e-16      0.340966575
           0.055    0.00300095519       107032.814      0.319039424   1.67830698e-08   1.46280211e-15      0.319041424
           0.065    0.00300159807       106964.273      0.321157207   1.09668133e-07   1.27117077e-14      0.321159207
           0.075    0.00300224112       106895.818      0.320704611   4.12463958e-07   1.01347311e-13      0.320706611
           0.085    0.00300288463       106827.349      0.320872571   1.17143597e-06   5.84138405e-13      0.320874742
           0.095    0.00300352857       106758.897       0.32106472   2.77754074e-06   2.58912893e-12      0.321068498
           0.105    0.00300417281       106690.467      0.321278322   5.80029323e-06   9.42097659e-12      0.321285123
           0.115    0.00300481731       106622.059      0.321494999   1.10156918e-05   2.94479397e-11      0.321507015
           0.125    0.00300546207       106553.673      0.321710873   1.94300872e-05   8.16007001e-11      0.321731304
           0.135    0.00300610705       106485.309      0.321923197   3.22981969e-05   2.05014738e-10      0.321956495
           0.145    0.00300675222       106416.969      0.322130082   5.11355251e-05   4.74842251e-10      0.322182217
           0.155    0.00300739756       106348.651      0.322329603   7.77249414e-05   1.02679564e-09      0.322408328
           0.165    0.00300804307       106280.356      0.322519674    0.00011411756   2.09361606e-09      0.322634792
           0.175    0.00300868871       106212.084      0.322697976   0.000162628398   4.05721428e-09      0.322861605
           0.185    0.00300933446       106143.834      0.322861938   0.000225827021   7.52063485e-09      0.323088765
           0.195    0.00300998032       106075.608      0.323009056   0.000306524561   1.34045516e-08      0.323316581
           0.205     0.0030106263       106007.404      0.323134664   0.000407749783   2.30731449e-08      0.323543414
           0.215    0.00301127235       105939.224      0.323238177   0.000532760532   3.84969518e-08      0.323771937
           0.225    0.00301191848       105871.068      0.323360993   0.000684955923   6.24510211e-08      0.324046949
           0.235    0.00301256471       105802.937      0.323377899    0.00086785886   9.87614888e-08      0.324246758
           0.245    0.00301321104       105734.826      0.323371794    0.00108520151   1.52616703e-07      0.324457995
           0.255    0.00301385741       105666.738      0.323342532    0.00134079249   2.30916522e-07      0.324684325
           0.265     0.0030145039       105598.672      0.323274295    0.00163845984   3.42684108e-07      0.324913755
           0.275    0.00301515038        105530.63      0.323160384    0.00198208953   4.99560949e-07      0.325143473
           0.285    0.00301579695       105462.611      0.322996817    0.00237557494   7.16359848e-07      0.325373392
           0.295     0.0030164436       105394.614      0.322779805    0.00282278559   1.01169422e-06      0.325603603
           0.305    0.00301709041       105326.642      0.322505379    0.00332753593   1.40868258e-06      0.325834323
           0.315    0.00301773732       105258.692      0.322169938    0.00389356282   1.93573324e-06      0.326065437
           0.325    0.00301838432       105190.766      0.321769668    0.00452449148   2.62740054e-06      0.326296787
           0.335    0.00301903143       105122.863      0.321301206    0.00522381937   3.52532637e-06      0.326528551
           0.345    0.00301967867       105054.983       0.32076102    0.00599488083   4.67924422e-06       0.32676058
           0.355    0.00302032607       104987.127       0.32014603    0.00684083689   6.14807022e-06      0.326993015
           0.365    0.00302097365       104919.294      0.319453072    0.00776464285   8.00104424e-06      0.327225716
           0.375    0.00302162145       104851.485      0.318679435    0.00876904275   1.03189545e-05      0.327458796
           0.385    0.00302226946       104783.699      0.317822478    0.00985654414   1.31954008e-05      0.327692217
           0.395    0.00302291772       104715.937      0.316879814     0.0110294059   1.67381134e-05      0.327925958
           0.405    0.00302356623       104648.198      0.315849313     0.0122896275   2.10703165e-05      0.328160011
           0.415    0.00302421501       104580.483      0.314729107     0.0136389374   2.63321199e-05      0.328394377
           0.425    0.00302486406       104512.791      0.313517587     0.0150787847   3.26819325e-05      0.328629054
           0.435    0.00302551341       104445.123      0.312213413     0.0166103323   4.02978902e-05      0.328864044
           0.445    0.00302616307       104377.479      0.310815516     0.0182344519   4.93792822e-05      0.329099347
           0.455    0.00302681304       104309.859      0.309323097     0.0199517211   6.01479668e-05      0.329334966
           0.465    0.00302746333       104242.262      0.307735629     0.0217624216   7.28497655e-05        0.3295709
           0.475    0.00302811396       104174.689      0.306052855     0.0236665391   8.77558212e-05       0.32980715
           0.485    0.00302876495        104107.14      0.304274786     0.0256637654    0.00010516391      0.330043715
           0.495    0.00302941629       104039.615      0.302401696     0.0277535011   0.000125399694      0.330280596
           0.505      0.003030068       103972.113      0.300434115     0.0299348599   0.000148817905      0.330517793
           0.515    0.00303072009       103904.636      0.298372827     0.0322066745    0.00017580344      0.330755305
           0.525    0.00303137258       103837.182      0.296218858      0.034567503    0.00020677237      0.330993134
           0.535    0.00303202545       103769.753      0.293973468     0.0370156366   0.000242172841      0.331231278
           0.545    0.00303267874       103702.347      0.291638145     0.0395491083   0.000282485856      0.331469739
           0.555    0.00303333243       103634.966      0.289214589     0.0421657028   0.000328225941      0.331708517
           0.565    0.00303398654       103567.608      0.286704707     0.0448629658   0.000379941669      0.331947614
           0.575    0.00303464107       103500.275      0.284110598     0.0476382158   0.000438216048       0.33218703
           0.585    0.00303529604       103432.966      0.281434544     0.0504885549    0.00050366676      0.332426766
           0.595    0.00303595143       103365.681      0.278678994     0.0534108813   0.000576946245      0.332666821
           0.605    0.00303660727        103298.42      0.275846554     0.0564019014    0.00065874163      0.332907197
           0.615    0.00303726355       103231.183      0.272939977     0.0594581425   0.000749774492      0.333147894
           0.625    0.00303792028       103163.971      0.269962145     0.0625759663   0.000850800456      0.333388911
           0.635    0.00303857745       103096.783       0.26691606     0.0657515817   0.000962608632       0.33363025
           0.645    0.00303923507       103029.619      0.263804832     0.0689810586    0.00108602087      0.333871911
           0.655    0.00303989314        102962.48      0.260631664     0.0722603406    0.00122189086      0.334113895
           0.665    0.00304055166       102895.365      0.257399841      0.075585259    0.00137110305      0.334356203
           0.675    0.00304121063       102828.274      0.254112718     0.0789515458    0.00153457142      0.334598835
           0.685    0.00304187005       102761.208      0.250773707     0.0823548469    0.00171323806      0.334841792
           0.695    0.00304252991       102694.167      0.247386267     0.0857907356    0.00190807164      0.335085074
           0.705    0.00304319022        102627.15      0.243953892      0.089254725     0.0021200657      0.335328682
           0.715    0.00304385097       102560.157      0.240480099     0.0927422813    0.00235023678      0.335572617
           0.725    0.00304451216       102493.189       0.23696842     0.0962488363    0.00259962245      0.335816879
           0.735    0.00304517379       102426.246       0.23342239     0.0997697991     0.0028692792      0.336061469
           0.745    0.00304583584       102359.327      0.229845539      0.103300568    0.00316028016      0.336306387
           0.755    0.00304649832       102292.433      0.226241379      0.106836544    0.00347371279      0.336551635
           0.765    0.00304716123       102225.564        0.2226134      0.110373137    0.00381067638      0.336797214
           0.775    0.00304782455        102158.72      0.218965061      0.113905783    0.00417227955      0.337043124
           0.785    0.00304848829         102091.9      0.215299779       0.11742995    0.00455963755      0.337289366
           0.795    0.00304915243       102025.105      0.211620924      0.120941148    0.00497386962      0.337535941
           0.805    0.00304981697       101958.335      0.207931813      0.124434941    0.00541609618      0.337782851
           0.815    0.00305048191        101891.59      0.204235703      0.127906956    0.00588743603      0.338030095
           0.825    0.00305114724        101824.87      0.200535783      0.131352889    0.00638900353      0.338277675
           0.835    0.00305181294       101758.174      0.196835173      0.134768513    0.00692190566      0.338525592
           0.845    0.00305247902       101691.504      0.193136916      0.138149692    0.00748723918      0.338773846
           0.855    0.00305314547       101624.859      0.189443973      0.141492378    0.00808608774      0.339022439
           0.865    0.00305381227       101558.239      0.185759224      0.144792629    0.00871951895      0.339271371
           0.875    0.00305447942       101491.644      0.182085457      0.148046605    0.00938858158      0.339520644
           0.885    0.00305514692       101425.074      0.178425372      0.151250582     0.0100943027      0.339770257
           0.895    0.00305581474       101358.529      0.174781575      0.154400953     0.0108376848      0.340020213
           0.905    0.00305648289       101292.009      0.171156574      0.157494234     0.0116197033      0.340270511
           0.915    0.00305715135       101225.515      0.167552783      0.160527067     0.0124413036      0.340521154
           0.925    0.00305782011       101159.046      0.163972514      0.163496229     0.0133033985      0.340772141
           0.935    0.00305848916       101092.602      0.160417979      0.166398629     0.0142068662      0.341023474
           0.945    0.00305915849       101026.184       0.15689129      0.169231318     0.0151525469      0.341275155
           0.955    0.00305982809       100959.791      0.153394457      0.171991485     0.0161412415      0.341527184
           0.965    0.00306049794       100893.423       0.14992939      0.174676465     0.0171737086      0.341779563
           0.975    0.00306116803       100827.081      0.146497894      0.177283736     0.0182506627      0.342032293
           0.985    0.00306183835       100760.764      0.143101675      0.179810928     0.0193727726      0.342285376
           0.995    0.00306250888       100694.473      0.139742342      0.182255813     0.0205406574      0.342538812
