# vtk DataFile Version 2.0
tracks
ASCII
DATASET POLYDATA
POINTS 1100 float
-0.5 -0.189972 -0.0352625 -0.5 -0.189972 -0.0352625 -0.5 -0.189972 -0.0352625 -0.5 -0.189972
-0.0352625 -0.5 -0.189972 -0.0352625 -0.5 -0.189972 -0.0352625 -0.3 -0.189972 -0.0352625
-0.1 -0.189972 -0.0352625 0.1 -0.189972 -0.0352625 0.3 -0.189972 -0.0352625 0.5
-0.189972 -0.0352625 -0.5 -0.311408 0.0407339 -0.5 -0.311408 0.0407339 -0.5 -0.311408
0.0407339 -0.5 -0.311408 0.0407339 -0.5 -0.311408 0.0407339 -0.5 -0.311408 0.0407339
-0.3 -0.311408 0.0407339 -0.1 -0.311408 0.0407339 0.1 -0.311408 0.0407339 0.3
-0.311408 0.0407339 0.5 -0.311408 0.0407339 -0.5 -0.394599 0.048131 -0.5 -0.394599
0.048131 -0.5 -0.394599 0.048131 -0.5 -0.394599 0.048131 -0.5 -0.394599 0.048131
-0.5 -0.394599 0.048131 -0.3 -0.394599 0.048131 -0.1 -0.394599 0.048131 0.1
-0.394599 0.048131 0.3 -0.394599 0.048131 0.5 -0.394599 0.048131 -0.5 0.0787885
0.0305379 -0.5 0.0787885 0.0305379 -0.5 0.0787885 0.0305379 -0.5 0.0787885 0.0305379
-0.5 0.0787885 0.0305379 -0.5 0.0787885 0.0305379 -0.3 0.0787885 0.0305379 -0.1
0.0787885 0.0305379 0.1 0.0787885 0.0305379 0.3 0.0787885 0.0305379 0.5 0.0787885
0.0305379 -0.5 -0.137608 0.00861092 -0.5 -0.137608 0.00861092 -0.5 -0.137608 0.00861092
-0.5 -0.137608 0.00861092 -0.5 -0.137608 0.00861092 -0.5 -0.137608 0.00861092 -0.3
-0.137608 0.00861092 -0.1 -0.137608 0.00861092 0.1 -0.137608 0.00861092 0.3 -0.137608
0.00861092 0.5 -0.137608 0.00861092 -0.5 -0.0662189 -0.013454 -0.5 -0.0662189 -0.013454
-0.5 -0.0662189 -0.013454 -0.5 -0.0662189 -0.013454 -0.5 -0.0662189 -0.013454 -0.5
-0.0662189 -0.013454 -0.3 -0.0662189 -0.013454 -0.1 -0.0662189 -0.013454 0.1 -0.0662189
-0.013454 0.3 -0.0662189 -0.013454 0.5 -0.0662189 -0.013454 -0.5 0.229636 -0.00019387
-0.5 0.229636 -0.00019387 -0.5 0.229636 -0.00019387 -0.5 0.229636 -0.00019387 -0.5
0.229636 -0.00019387 -0.5 0.229636 -0.00019387 -0.3 0.229636 -0.00019387 -0.1 0.229636
-0.00019387 0.1 0.229636 -0.00019387 0.3 0.229636 -0.00019387 0.5 0.229636 -0.00019387
-0.5 -0.306116 0.0180773 -0.5 -0.306116 0.0180773 -0.5 -0.306116 0.0180773 -0.5
-0.306116 0.0180773 -0.5 -0.306116 0.0180773 -0.5 -0.306116 0.0180773 -0.3 -0.306116
0.0180773 -0.1 -0.306116 0.0180773 0.1 -0.306116 0.0180773 0.3 -0.306116 0.0180773
0.5 -0.306116 0.0180773 -0.5 0.434905 -0.0224249 -0.5 0.434905 -0.0224249 -0.5
0.434905 -0.0224249 -0.5 0.434905 -0.0224249 -0.5 0.434905 -0.0224249 -0.5 0.434905
-0.0224249 -0.3 0.434905 -0.0224249 -0.1 0.434905 -0.0224249 0.1 0.434905 -0.0224249
0.3 0.434905 -0.0224249 0.5 0.434905 -0.0224249 -0.5 0.389732 0.0266011 -0.5
0.389732 0.0266011 -0.5 0.389732 0.0266011 -0.5 0.389732 0.0266011 -0.5 0.389732
0.0266011 -0.5 0.389732 0.0266011 -0.3 0.389732 0.0266011 -0.1 0.389732 0.0266011
0.1 0.389732 0.0266011 0.3 0.389732 0.0266011 0.5 0.389732 0.0266011 -0.5
-0.130349 0.0109152 -0.5 -0.130349 0.0109152 -0.5 -0.130349 0.0109152 -0.5 -0.130349
0.0109152 -0.5 -0.130349 0.0109152 -0.5 -0.130349 0.0109152 -0.3 -0.130349 0.0109152
-0.1 -0.130349 0.0109152 0.1 -0.130349 0.0109152 0.3 -0.130349 0.0109152 0.5
-0.130349 0.0109152 -0.5 -0.158636 0.00487096 -0.5 -0.158636 0.00487096 -0.5 -0.158636
0.00487096 -0.5 -0.158636 0.00487096 -0.5 -0.158636 0.00487096 -0.5 -0.158636 0.00487096
-0.3 -0.158636 0.00487096 -0.1 -0.158636 0.00487096 0.1 -0.158636 0.00487096 0.3
-0.158636 0.00487096 0.5 -0.158636 0.00487096 -0.5 0.255085 0.00824315 -0.5 0.255085
0.00824315 -0.5 0.255085 0.00824315 -0.5 0.255085 0.00824315 -0.5 0.255085 0.00824315
-0.5 0.255085 0.00824315 -0.3 0.255085 0.00824315 -0.1 0.255085 0.00824315 0.1
0.255085 0.00824315 0.3 0.255085 0.00824315 0.5 0.255085 0.00824315 -0.5 -0.258471
-0.0471 -0.5 -0.258471 -0.0471 -0.5 -0.258471 -0.0471 -0.5 -0.258471 -0.0471
-0.5 -0.258471 -0.0471 -0.5 -0.258471 -0.0471 -0.3 -0.258471 -0.0471 -0.1
-0.258471 -0.0471 0.1 -0.258471 -0.0471 0.3 -0.258471 -0.0471 0.5 -0.258471
-0.0471 -0.5 -0.399434 -0.0432172 -0.5 -0.399434 -0.0432172 -0.5 -0.399434 -0.0432172
-0.5 -0.399434 -0.0432172 -0.5 -0.399434 -0.0432172 -0.5 -0.399434 -0.0432172 -0.3
-0.399434 -0.0432172 -0.1 -0.399434 -0.0432172 0.1 -0.399434 -0.0432172 0.3 -0.399434
-0.0432172 0.5 -0.399434 -0.0432172 -0.5 -0.382991 -0.0448543 -0.5 -0.382991 -0.0448543
-0.5 -0.382991 -0.0448543 -0.5 -0.382991 -0.0448543 -0.5 -0.382991 -0.0448543 -0.5
-0.382991 -0.0448543 -0.3 -0.382991 -0.0448543 -0.1 -0.382991 -0.0448543 0.1 -0.382991
-0.0448543 0.3 -0.382991 -0.0448543 0.5 -0.382991 -0.0448543 -0.5 -0.247931 -0.0323432
-0.5 -0.247931 -0.0323432 -0.5 -0.247931 -0.0323432 -0.5 -0.247931 -0.0323432 -0.5
-0.247931 -0.0323432 -0.5 -0.247931 -0.0323432 -0.3 -0.247931 -0.0323432 -0.1 -0.247931
-0.0323432 0.1 -0.247931 -0.0323432 0.3 -0.247931 -0.0323432 0.5 -0.247931 -0.0323432
-0.5 -0.0309219 -0.037949 -0.5 -0.0309219 -0.037949 -0.5 -0.0309219 -0.037949 -0.5
-0.0309219 -0.037949 -0.5 -0.0309219 -0.037949 -0.5 -0.0309219 -0.037949 -0.3 -0.0309219
-0.037949 -0.1 -0.0309219 -0.037949 0.1 -0.0309219 -0.037949 0.3 -0.0309219 -0.037949
0.5 -0.0309219 -0.037949 -0.5 -0.0344928 0.046765 -0.5 -0.0344928 0.046765 -0.5
-0.0344928 0.046765 -0.5 -0.0344928 0.046765 -0.5 -0.0344928 0.046765 -0.5 -0.0344928
0.046765 -0.3 -0.0344928 0.046765 -0.1 -0.0344928 0.046765 0.1 -0.0344928 0.046765
0.3 -0.0344928 0.046765 0.5 -0.0344928 0.046765 -0.5 -0.288132 -0.038824 -0.5
-0.288132 -0.038824 -0.5 -0.288132 -0.038824 -0.5 -0.288132 -0.038824 -0.5 -0.288132
-0.038824 -0.5 -0.288132 -0.038824 -0.3 -0.288132 -0.038824 -0.1 -0.288132 -0.038824
0.1 -0.288132 -0.038824 0.3 -0.288132 -0.038824 0.5 -0.288132 -0.038824 -0.5
-0.398513 0.0244622 -0.5 -0.398513 0.0244622 -0.5 -0.398513 0.0244622 -0.5 -0.398513
0.0244622 -0.5 -0.398513 0.0244622 -0.5 -0.398513 0.0244622 -0.3 -0.398513 0.0244622
-0.1 -0.398513 0.0244622 0.1 -0.398513 0.0244622 0.3 -0.398513 0.0244622 0.5
-0.398513 0.0244622 -0.5 0.30208 -0.00294058 -0.5 0.30208 -0.00294058 -0.5 0.30208
-0.00294058 -0.5 0.30208 -0.00294058 -0.5 0.30208 -0.00294058 -0.5 0.30208 -0.00294058
-0.3 0.30208 -0.00294058 -0.1 0.30208 -0.00294058 0.1 0.30208 -0.00294058 0.3
0.30208 -0.00294058 0.5 0.30208 -0.00294058 -0.5 0.117703 -0.0147248 -0.5 0.117703
-0.0147248 -0.5 0.117703 -0.0147248 -0.5 0.117703 -0.0147248 -0.5 0.117703 -0.0147248
-0.5 0.117703 -0.0147248 -0.3 0.117703 -0.0147248 -0.1 0.117703 -0.0147248 0.1
0.117703 -0.0147248 0.3 0.117703 -0.0147248 0.5 0.117703 -0.0147248 -0.5 -0.127487
0.0376027 -0.5 -0.127487 0.0376027 -0.5 -0.127487 0.0376027 -0.5 -0.127487 0.0376027
-0.5 -0.127487 0.0376027 -0.5 -0.127487 0.0376027 -0.3 -0.127487 0.0376027 -0.1
-0.127487 0.0376027 0.1 -0.127487 0.0376027 0.3 -0.127487 0.0376027 0.5 -0.127487
0.0376027 -0.5 -0.368987 -0.028997 -0.5 -0.368987 -0.028997 -0.5 -0.368987 -0.028997
-0.5 -0.368987 -0.028997 -0.5 -0.368987 -0.028997 -0.5 -0.368987 -0.028997 -0.3
-0.368987 -0.028997 -0.1 -0.368987 -0.028997 0.1 -0.368987 -0.028997 0.3 -0.368987
-0.028997 0.5 -0.368987 -0.028997 -0.5 -0.231916 -0.0422718 -0.5 -0.231916 -0.0422718
-0.5 -0.231916 -0.0422718 -0.5 -0.231916 -0.0422718 -0.5 -0.231916 -0.0422718 -0.5
-0.231916 -0.0422718 -0.3 -0.231916 -0.0422718 -0.1 -0.231916 -0.0422718 0.1 -0.231916
-0.0422718 0.3 -0.231916 -0.0422718 0.5 -0.231916 -0.0422718 -0.5 0.0662113 0.0490083
-0.5 0.0662113 0.0490083 -0.5 0.0662113 0.0490083 -0.5 0.0662113 0.0490083 -0.5
0.0662113 0.0490083 -0.5 0.0662113 0.0490083 -0.3 0.0662113 0.0490083 -0.1 0.0662113
0.0490083 0.1 0.0662113 0.0490083 0.3 0.0662113 0.0490083 0.5 0.0662113 0.0490083
-0.5 0.320022 0.0102047 -0.5 0.320022 0.0102047 -0.5 0.320022 0.0102047 -0.5
0.320022 0.0102047 -0.5 0.320022 0.0102047 -0.5 0.320022 0.0102047 -0.3 0.320022
0.0102047 -0.1 0.320022 0.0102047 0.1 0.320022 0.0102047 0.3 0.320022 0.0102047
0.5 0.320022 0.0102047 -0.5 -0.246047 0.0188817 -0.5 -0.246047 0.0188817 -0.5
-0.246047 0.0188817 -0.5 -0.246047 0.0188817 -0.5 -0.246047 0.0188817 -0.5 -0.246047
0.0188817 -0.3 -0.246047 0.0188817 -0.1 -0.246047 0.0188817 0.1 -0.246047 0.0188817
0.3 -0.246047 0.0188817 0.5 -0.246047 0.0188817 -0.5 -0.391727 0.011292 -0.5
-0.391727 0.011292 -0.5 -0.391727 0.011292 -0.5 -0.391727 0.011292 -0.5 -0.391727
0.011292 -0.5 -0.391727 0.011292 -0.3 -0.391727 0.011292 -0.1 -0.391727 0.011292
0.1 -0.391727 0.011292 0.3 -0.391727 0.011292 0.5 -0.391727 0.011292 -0.5
0.176341 -0.0447677 -0.5 0.176341 -0.0447677 -0.5 0.176341 -0.0447677 -0.5 0.176341
-0.0447677 -0.5 0.176341 -0.0447677 -0.5 0.176341 -0.0447677 -0.3 0.176341 -0.0447677
-0.1 0.176341 -0.0447677 0.1 0.176341 -0.0447677 0.3 0.176341 -0.0447677 0.5
0.176341 -0.0447677 -0.5 -0.45402 -0.0451537 -0.5 -0.45402 -0.0451537 -0.5 -0.45402
-0.0451537 -0.5 -0.45402 -0.0451537 -0.5 -0.45402 -0.0451537 -0.5 -0.45402 -0.0451537
-0.3 -0.45402 -0.0451537 -0.1 -0.45402 -0.0451537 0.1 -0.45402 -0.0451537 0.3
-0.45402 -0.0451537 0.5 -0.45402 -0.0451537 -0.5 -0.297722 0.0445895 -0.5 -0.297722
0.0445895 -0.5 -0.297722 0.0445895 -0.5 -0.297722 0.0445895 -0.5 -0.297722 0.0445895
-0.5 -0.297722 0.0445895 -0.3 -0.297722 0.0445895 -0.1 -0.297722 0.0445895 0.1
-0.297722 0.0445895 0.3 -0.297722 0.0445895 0.5 -0.297722 0.0445895 -0.5 0.489687
-0.0408618 -0.5 0.489687 -0.0408618 -0.5 0.489687 -0.0408618 -0.5 0.489687 -0.0408618
-0.5 0.489687 -0.0408618 -0.5 0.489687 -0.0408618 -0.3 0.489687 -0.0408618 -0.1
0.489687 -0.0408618 0.1 0.489687 -0.0408618 0.3 0.489687 -0.0408618 0.5 0.489687
-0.0408618 -0.5 -0.241787 0.0440961 -0.5 -0.241787 0.0440961 -0.5 -0.241787 0.0440961
-0.5 -0.241787 0.0440961 -0.5 -0.241787 0.0440961 -0.5 -0.241787 0.0440961 -0.3
-0.241787 0.0440961 -0.1 -0.241787 0.0440961 0.1 -0.241787 0.0440961 0.3 -0.241787
0.0440961 0.5 -0.241787 0.0440961 -0.5 -0.1515 0.00971065 -0.5 -0.1515 0.00971065
-0.5 -0.1515 0.00971065 -0.5 -0.1515 0.00971065 -0.5 -0.1515 0.00971065 -0.5
-0.1515 0.00971065 -0.3 -0.1515 0.00971065 -0.1 -0.1515 0.00971065 0.1 -0.1515
0.00971065 0.3 -0.1515 0.00971065 0.5 -0.1515 0.00971065 -0.5 0.449251 -0.0148932
[...]
POINT_DATA 1100
FIELD attributes 3
age 1 1100 float
-1.86265e-09 -1.49012e-09 -1.11759e-09 -7.45058e-10 -3.72529e-10 0 0.05 0.0886175 0.127235 0.165853 0.20447
-1.86265e-09 -1.49012e-09 -1.11759e-09 -7.45058e-10 -3.72529e-10 0 0.05 0.0921826 0.134365 0.176548
0.218731 -1.86265e-09 -1.49012e-09 -1.11759e-09 -7.45058e-10 -3.72529e-10 0 0.05 0.0981984 0.146397
0.194595 0.242793 -1.86265e-09 -1.49012e-09 -1.11759e-09 -7.45058e-10 -3.72529e-10 0 0.05 0.0859908
0.121982 0.157973 0.193963 -1.86265e-09 -1.49012e-09 -1.11759e-09 -7.45058e-10 -3.72529e-10 0 0.05
0.0857143 0.114703 0.143693 0.179407 -1.86265e-09 -1.49012e-09 -1.11759e-09 -7.45058e-10 -3.72529e-10 0
0.05 0.0857143 0.114601 0.143487 0.179201 -1.86265e-09 -1.49012e-09 -1.11759e-09 -7.45058e-10 -3.72529e-10
0 0.05 0.0857143 0.118166 0.150619 0.186333 -1.86265e-09 -1.49012e-09 -1.11759e-09 -7.45058e-10
-3.72529e-10 0 0.05 0.0860291 0.122058 0.158087 0.194116 -1.86265e-09 -1.49012e-09 -1.11759e-09
-7.45058e-10 -3.72529e-10 0 0.05 0.0942403 0.138481 0.182721 0.226961 -1.86265e-09 -1.49012e-09
-1.11759e-09 -7.45058e-10 -3.72529e-10 0 0.05 0.0909656 0.131931 0.172897 0.213863 -1.86265e-09
-1.49012e-09 -1.11759e-09 -7.45058e-10 -3.72529e-10 0 0.05 0.0857143 0.114461 0.143209 0.178923
-1.86265e-09 -1.49012e-09 -1.11759e-09 -7.45058e-10 -3.72529e-10 0 0.05 0.0857143 0.115428 0.145142
0.180856 -1.86265e-09 -1.49012e-09 -1.11759e-09 -7.45058e-10 -3.72529e-10 0 0.05 0.0857143 0.119275
0.152836 0.18855 -1.86265e-09 -1.49012e-09 -1.11759e-09 -7.45058e-10 -3.72529e-10 0 0.05 0.097259
0.144518 0.191777 0.239036 -1.86265e-09 -1.49012e-09 -1.11759e-09 -7.45058e-10 -3.72529e-10 0 0.05
0.0940274 0.138055 0.182082 0.22611 -1.86265e-09 -1.49012e-09 -1.11759e-09 -7.45058e-10 -3.72529e-10 0
0.05 0.0953345 0.140669 0.186003 0.231338 -1.86265e-09 -1.49012e-09 -1.11759e-09 -7.45058e-10 -3.72529e-10
0 0.05 0.0869512 0.123902 0.160854 0.197805 -1.86265e-09 -1.49012e-09 -1.11759e-09 -7.45058e-10
-3.72529e-10 0 0.05 0.0902894 0.130579 0.170868 0.211158 -1.86265e-09 -1.49012e-09 -1.11759e-09
-7.45058e-10 -3.72529e-10 0 0.05 0.0969616 0.143923 0.190885 0.237846 -1.86265e-09 -1.49012e-09
-1.11759e-09 -7.45058e-10 -3.72529e-10 0 0.05 0.0908657 0.131731 0.172597 0.213463 -1.86265e-09
-1.49012e-09 -1.11759e-09 -7.45058e-10 -3.72529e-10 0 0.05 0.0915636 0.133127 0.174691 0.216255
-1.86265e-09 -1.49012e-09 -1.11759e-09 -7.45058e-10 -3.72529e-10 0 0.05 0.0858207 0.121641 0.157462
0.193283 -1.86265e-09 -1.49012e-09 -1.11759e-09 -7.45058e-10 -3.72529e-10 0 0.05 0.0857143 0.115031
0.144348 0.180062 -1.86265e-09 -1.49012e-09 -1.11759e-09 -7.45058e-10 -3.72529e-10 0 0.05 0.0900659
0.130132 0.170198 0.210263 -1.86265e-09 -1.49012e-09 -1.11759e-09 -7.45058e-10 -3.72529e-10 0 0.05
0.0896188 0.129238 0.168856 0.208475 -1.86265e-09 -1.49012e-09 -1.11759e-09 -7.45058e-10 -3.72529e-10 0
0.05 0.0933064 0.136613 0.179919 0.223226 -1.86265e-09 -1.49012e-09 -1.11759e-09 -7.45058e-10 -3.72529e-10
0 0.05 0.0990276 0.148055 0.197083 0.24611 -1.86265e-09 -1.49012e-09 -1.11759e-09 -7.45058e-10
-3.72529e-10 0 0.05 0.0867659 0.123532 0.160298 0.197064 -1.86265e-09 -1.49012e-09 -1.11759e-09
-7.45058e-10 -3.72529e-10 0 0.05 0.0857143 0.118873 0.152031 0.187746 -1.86265e-09 -1.49012e-09
-1.11759e-09 -7.45058e-10 -3.72529e-10 0 0.05 0.0911 0.1322 0.1733 0.2144 -1.86265e-09
-1.49012e-09 -1.11759e-09 -7.45058e-10 -3.72529e-10 0 0.05 0.0952634 0.140527 0.18579 0.231054
-1.86265e-09 -1.49012e-09 -1.11759e-09 -7.45058e-10 -3.72529e-10 0 0.05 0.0957892 0.141578 0.187368
0.233157 -1.86265e-09 -1.49012e-09 -1.11759e-09 -7.45058e-10 -3.72529e-10 0 0.05 0.0951178 0.140236
0.185353 0.230471 -1.86265e-09 -1.49012e-09 -1.11759e-09 -7.45058e-10 -3.72529e-10 0 0.05 0.0989895
0.147979 0.196969 0.245958 -1.86265e-09 -1.49012e-09 -1.11759e-09 -7.45058e-10 -3.72529e-10 0 0.05
0.0947196 0.139439 0.184159 0.228878 -1.86265e-09 -1.49012e-09 -1.11759e-09 -7.45058e-10 -3.72529e-10 0
0.05 0.0857143 0.115178 0.144642 0.180356 -1.86265e-09 -1.49012e-09 -1.11759e-09 -7.45058e-10 -3.72529e-10
0 0.05 0.0953927 0.140785 0.186178 0.231571 -1.86265e-09 -1.49012e-09 -1.11759e-09 -7.45058e-10
-3.72529e-10 0 0.05 0.0857143 0.116212 0.14671 0.182424 -1.86265e-09 -1.49012e-09 -1.11759e-09
-7.45058e-10 -3.72529e-10 0 0.05 0.0857143 0.116931 0.148148 0.183862 -1.86265e-09 -1.49012e-09
-1.11759e-09 -7.45058e-10 -3.72529e-10 0 0.05 0.097906 0.145812 0.193718 0.241624 -1.86265e-09
-1.49012e-09 -1.11759e-09 -7.45058e-10 -3.72529e-10 0 0.05 0.0857143 0.115137 0.14456 0.180274
-1.86265e-09 -1.49012e-09 -1.11759e-09 -7.45058e-10 -3.72529e-10 0 0.05 0.0857143 0.117739 0.149764
0.185478 -1.86265e-09 -1.49012e-09 -1.11759e-09 -7.45058e-10 -3.72529e-10 0 0.05 0.0907468 0.131494
0.17224 0.212987 -1.86265e-09 -1.49012e-09 -1.11759e-09 -7.45058e-10 -3.72529e-10 0 0.05 0.0857143
0.116389 0.147065 0.182779 -1.86265e-09 -1.49012e-09 -1.11759e-09 -7.45058e-10 -3.72529e-10 0 0.05
0.0871306 0.124261 0.161392 0.198522 -1.86265e-09 -1.49012e-09 -1.11759e-09 -7.45058e-10 -3.72529e-10 0
0.05 0.088273 0.126546 0.164819 0.203092 -1.86265e-09 -1.49012e-09 -1.11759e-09 -7.45058e-10 -3.72529e-10
0 0.05 0.0857143 0.116348 0.146983 0.182697 -1.86265e-09 -1.49012e-09 -1.11759e-09 -7.45058e-10
-3.72529e-10 0 0.05 0.0892711 0.128542 0.167813 0.207084 -1.86265e-09 -1.49012e-09 -1.11759e-09
-7.45058e-10 -3.72529e-10 0 0.05 0.0857143 0.117104 0.148494 0.184208 -1.86265e-09 -1.49012e-09
-1.11759e-09 -7.45058e-10 -3.72529e-10 0 0.05 0.0886175 0.127235 0.165852 0.20447 -1.86265e-09
-1.49012e-09 -1.11759e-09 -7.45058e-10 -3.72529e-10 0 0.05 0.0909177 0.131835 0.172753 0.213671
-1.86265e-09 -1.49012e-09 -1.11759e-09 -7.45058e-10 -3.72529e-10 0 0.05 0.0857143 0.121265 0.156815
0.19253 -1.86265e-09 -1.49012e-09 -1.11759e-09 -7.45058e-10 -3.72529e-10 0 0.05 0.0964927 0.142985
0.189478 0.235971 -1.86265e-09 -1.49012e-09 -1.11759e-09 -7.45058e-10 -3.72529e-10 0 0.05 0.0857143
0.113492 0.14127 0.176984 -1.86265e-09 -1.49012e-09 -1.11759e-09 -7.45058e-10 -3.72529e-10 0 0.05
0.0932269 0.136454 0.179681 0.222908 -1.86265e-09 -1.49012e-09 -1.11759e-09 -7.45058e-10 -3.72529e-10 0
0.05 0.0857143 0.120731 0.155748 0.191462 -1.86265e-09 -1.49012e-09 -1.11759e-09 -7.45058e-10 -3.72529e-10
0 0.05 0.0857143 0.118375 0.151036 0.18675 -1.86265e-09 -1.49012e-09 -1.11759e-09 -7.45058e-10
-3.72529e-10 0 0.05 0.0900178 0.130036 0.170053 0.210071 -1.86265e-09 -1.49012e-09 -1.11759e-09
-7.45058e-10 -3.72529e-10 0 0.05 0.094134 0.138268 0.182402 0.226536 -1.86265e-09 -1.49012e-09
-1.11759e-09 -7.45058e-10 -3.72529e-10 0 0.05 0.0857143 0.121284 0.156853 0.192567 -1.86265e-09
-1.49012e-09 -1.11759e-09 -7.45058e-10 -3.72529e-10 0 0.05 0.0864775 0.122955 0.159433 0.19591
-1.86265e-09 -1.49012e-09 -1.11759e-09 -7.45058e-10 -3.72529e-10 0 0.05 0.0915623 0.133125 0.174687
0.216249 -1.86265e-09 -1.49012e-09 -1.11759e-09 -7.45058e-10 -3.72529e-10 0 0.05 0.0857143 0.115809
0.145903 0.181617 -1.86265e-09 -1.49012e-09 -1.11759e-09 -7.45058e-10 -3.72529e-10 0 0.05 0.0975678
0.145136 0.192703 0.240271 -1.86265e-09 -1.49012e-09 -1.11759e-09 -7.45058e-10 -3.72529e-10 0 0.05
0.0857143 0.120189 0.154664 0.190378 -1.86265e-09 -1.49012e-09 -1.11759e-09 -7.45058e-10 -3.72529e-10 0
0.05 0.0861297 0.122259 0.158389 0.194519 -1.86265e-09 -1.49012e-09 -1.11759e-09 -7.45058e-10 -3.72529e-10
0 0.05 0.0857143 0.114518 0.143321 0.179036 -1.86265e-09 -1.49012e-09 -1.11759e-09 -7.45058e-10
-3.72529e-10 0 0.05 0.0857143 0.113492 0.14127 0.176984 -1.86265e-09 -1.49012e-09 -1.11759e-09
-7.45058e-10 -3.72529e-10 0 0.05 0.0857143 0.121255 0.156796 0.19251 -1.86265e-09 -1.49012e-09
-1.11759e-09 -7.45058e-10 -3.72529e-10 0 0.05 0.0924302 0.13486 0.177291 0.219721 -1.86265e-09
-1.49012e-09 -1.11759e-09 -7.45058e-10 -3.72529e-10 0 0.05 0.0981868 0.146374 0.19456 0.242747
-1.86265e-09 -1.49012e-09 -1.11759e-09 -7.45058e-10 -3.72529e-10 0 0.05 0.0954493 0.140899 0.186348
0.231797 -1.86265e-09 -1.49012e-09 -1.11759e-09 -7.45058e-10 -3.72529e-10 0 0.05 0.0891979 0.128396
0.167594 0.206791 -1.86265e-09 -1.49012e-09 -1.11759e-09 -7.45058e-10 -3.72529e-10 0 0.05 0.0857143
0.120384 0.155053 0.190768 -1.86265e-09 -1.49012e-09 -1.11759e-09 -7.45058e-10 -3.72529e-10 0 0.05
0.0920741 0.134148 0.176222 0.218296 -1.86265e-09 -1.49012e-09 -1.11759e-09 -7.45058e-10 -3.72529e-10 0
0.05 0.0857143 0.121003 0.156291 0.192006 -1.86265e-09 -1.49012e-09 -1.11759e-09 -7.45058e-10 -3.72529e-10
0 0.05 0.0985928 0.147186 0.195778 0.244371 -1.86265e-09 -1.49012e-09 -1.11759e-09 -7.45058e-10
-3.72529e-10 0 0.05 0.0857143 0.116274 0.146833 0.182547 -1.86265e-09 -1.49012e-09 -1.11759e-09
-7.45058e-10 -3.72529e-10 0 0.05 0.0857143 0.113492 0.14127 0.176984 -1.86265e-09 -1.49012e-09
-1.11759e-09 -7.45058e-10 -3.72529e-10 0 0.05 0.0871392 0.124278 0.161418 0.198557 -1.86265e-09
-1.49012e-09 -1.11759e-09 -7.45058e-10 -3.72529e-10 0 0.05 0.0857143 0.121055 0.156395 0.19211
-1.86265e-09 -1.49012e-09 -1.11759e-09 -7.45058e-10 -3.72529e-10 0 0.05 0.0893081 0.128616 0.167924
0.207232 -1.86265e-09 -1.49012e-09 -1.11759e-09 -7.45058e-10 -3.72529e-10 0 0.05 0.0963408 0.142682
0.189022 0.235363 -1.86265e-09 -1.49012e-09 -1.11759e-09 -7.45058e-10 -3.72529e-10 0 0.05 0.0857143
0.117957 0.1502 0.185914 -1.86265e-09 -1.49012e-09 -1.11759e-09 -7.45058e-10 -3.72529e-10 0 0.05
0.0972375 0.144475 0.191712 0.23895 -1.86265e-09 -1.49012e-09 -1.11759e-09 -7.45058e-10 -3.72529e-10 0
0.05 0.0926855 0.135371 0.178057 0.220742 -1.86265e-09 -1.49012e-09 -1.11759e-09 -7.45058e-10 -3.72529e-10
0 0.05 0.087984 0.125968 0.163952 0.201936 -1.86265e-09 -1.49012e-09 -1.11759e-09 -7.45058e-10
-3.72529e-10 0 0.05 0.0975627 0.145125 0.192688 0.240251 -1.86265e-09 -1.49012e-09 -1.11759e-09
-7.45058e-10 -3.72529e-10 0 0.05 0.0857143 0.119194 0.152673 0.188387 -1.86265e-09 -1.49012e-09
-1.11759e-09 -7.45058e-10 -3.72529e-10 0 0.05 0.0869089 0.123818 0.160727 0.197636 -1.86265e-09
-1.49012e-09 -1.11759e-09 -7.45058e-10 -3.72529e-10 0 0.05 0.0857143 0.118025 0.150336 0.18605
-1.86265e-09 -1.49012e-09 -1.11759e-09 -7.45058e-10 -3.72529e-10 0 0.05 0.0886736 0.127347 0.166021
0.204694 -1.86265e-09 -1.49012e-09 -1.11759e-09 -7.45058e-10 -3.72529e-10 0 0.05 0.0984294 0.146859
0.195288 0.243718 -1.86265e-09 -1.49012e-09 -1.11759e-09 -7.45058e-10 -3.72529e-10 0 0.05 0.0857143
0.119232 0.152749 0.188464 -1.86265e-09 -1.49012e-09 -1.11759e-09 -7.45058e-10 -3.72529e-10 0 0.05
0.0859442 0.121888 0.157833 0.193777 -1.86265e-09 -1.49012e-09 -1.11759e-09 -7.45058e-10 -3.72529e-10 0
0.05 0.0902537 0.130507 0.170761 0.211015 -1.86265e-09 -1.49012e-09 -1.11759e-09 -7.45058e-10 -3.72529e-10
0 0.05 0.0879892 0.125978 0.163968 0.201957 -1.86265e-09 -1.49012e-09 -1.11759e-09 -7.45058e-10
-3.72529e-10 0 0.05 0.0996903 0.149381 0.199071 0.248761 -1.86265e-09 -1.49012e-09 -1.11759e-09
-7.45058e-10 -3.72529e-10 0 0.05 0.0857143 0.120866 0.156017 0.191731 -1.86265e-09 -1.49012e-09
-1.11759e-09 -7.45058e-10 -3.72529e-10 0 0.05 0.0857143 0.116929 0.148143 0.183857 
p 1 1100 float
100000 100000 100000 100000 100000 100000 100000 100000 100000 100000 100000
100000 100000 100000 100000 100000 100000 100000 100000 100000 100000
100000 100000 100000 100000 100000 100000 100000 100000 100000 100000
100000 100000 100000 100000 100000 100000 100000 100000 100000 100000
100000 100000 100000 100000 100000 100000 100000 100000 100000 100000
100000 100000 100000 100000 100000 100000 100000 100000 100000 100000
100000 100000 100000 100000 100000 100000 100000 100000 100000 100000
100000 100000 100000 100000 100000 100000 100000 100000 100000 100000
100000 100000 100000 100000 100000 100000 100000 100000 100000 100000
100000 100000 100000 100000 100000 100000 100000 100000 100000 100000
100000 100000 100000 100000 100000 100000 100000 100000 100000 100000
100000 100000 100000 100000 100000 100000 100000 100000 100000 100000
100000 100000 100000 100000 100000 100000 100000 100000 100000 100000
100000 100000 100000 100000 100000 100000 100000 100000 100000 100000
100000 100000 100000 100000 100000 100000 100000 100000 100000 100000
100000 100000 100000 100000 100000 100000 100000 100000 100000 100000
100000 100000 100000 100000 100000 100000 100000 100000 100000 100000
100000 100000 100000 100000 100000 100000 100000 100000 100000 100000
100000 100000 100000 100000 100000 100000 100000 100000 100000 100000
100000 100000 100000 100000 100000 100000 100000 100000 100000 100000
100000 100000 100000 100000 100000 100000 100000 100000 100000 100000
100000 100000 100000 100000 100000 100000 100000 100000 100000 100000
100000 100000 100000 100000 100000 100000 100000 100000 100000 100000
100000 100000 100000 100000 100000 100000 100000 100000 100000 100000
100000 100000 100000 100000 100000 100000 100000 100000 100000 100000
100000 100000 100000 100000 100000 100000 100000 100000 100000 100000
100000 100000 100000 100000 100000 100000 100000 100000 100000 100000
100000 100000 100000 100000 100000 100000 100000 100000 100000 100000
100000 100000 100000 100000 100000 100000 100000 100000 100000 100000
100000 100000 100000 100000 100000 100000 100000 100000 100000 100000
100000 100000 100000 100000 100000 100000 100000 100000 100000 100000
100000 100000 100000 100000 100000 100000 100000 100000 100000 100000
100000 100000 100000 100000 100000 100000 100000 100000 100000 100000
100000 100000 100000 100000 100000 100000 100000 100000 100000 100000
100000 100000 100000 100000 100000 100000 100000 100000 100000 100000
100000 100000 100000 100000 100000 100000 100000 100000 100000 100000
100000 100000 100000 100000 100000 100000 100000 100000 100000 100000
100000 100000 100000 100000 100000 100000 100000 100000 100000 100000
100000 100000 100000 100000 100000 100000 100000 100000 100000 100000
100000 100000 100000 100000 100000 100000 100000 100000 100000 100000
100000 100000 100000 100000 100000 100000 100000 100000 100000 100000
100000 100000 100000 100000 100000 100000 100000 100000 100000 100000
100000 100000 100000 100000 100000 100000 100000 100000 100000 100000
100000 100000 100000 100000 100000 100000 100000 100000 100000 100000
100000 100000 100000 100000 100000 100000 100000 100000 100000 100000
100000 100000 100000 100000 100000 100000 100000 100000 100000 100000
100000 100000 100000 100000 100000 100000 100000 100000 100000 100000
100000 100000 100000 100000 100000 100000 100000 100000 100000 100000
100000 100000 100000 100000 100000 100000 100000 100000 100000 100000
100000 100000 100000 100000 100000 100000 100000 100000 100000 100000
100000 100000 100000 100000 100000 100000 100000 100000 100000 100000
100000 100000 100000 100000 100000 100000 100000 100000 100000 100000
100000 100000 100000 100000 100000 100000 100000 100000 100000 100000
100000 100000 100000 100000 100000 100000 100000 100000 100000 100000
100000 100000 100000 100000 100000 100000 100000 100000 100000 100000
100000 100000 100000 100000 100000 100000 100000 100000 100000 100000
100000 100000 100000 100000 100000 100000 100000 100000 100000 100000
100000 100000 100000 100000 100000 100000 100000 100000 100000 100000
100000 100000 100000 100000 100000 100000 100000 100000 100000 100000
100000 100000 100000 100000 100000 100000 100000 100000 100000 100000
100000 100000 100000 100000 100000 100000 100000 100000 100000 100000
100000 100000 100000 100000 100000 100000 100000 100000 100000 100000
100000 100000 100000 100000 100000 100000 100000 100000 100000 100000
100000 100000 100000 100000 100000 100000 100000 100000 100000 100000
100000 100000 100000 100000 100000 100000 100000 100000 100000 100000
100000 100000 100000 100000 100000 100000 100000 100000 100000 100000
100000 100000 100000 100000 100000 100000 100000 100000 100000 100000
100000 100000 100000 100000 100000 100000 100000 100000 100000 100000
100000 100000 100000 100000 100000 100000 100000 100000 100000 100000
100000 100000 100000 100000 100000 100000 100000 100000 100000 100000
100000 100000 100000 100000 100000 100000 100000 100000 100000 100000
100000 100000 100000 100000 100000 100000 100000 100000 100000 100000
100000 100000 100000 100000 100000 100000 100000 100000 100000 100000
100000 100000 100000 100000 100000 100000 100000 100000 100000 100000
100000 100000 100000 100000 100000 100000 100000 100000 100000 100000
100000 100000 100000 100000 100000 100000 100000 100000 100000 100000
100000 100000 100000 100000 100000 100000 100000 100000 100000 100000
100000 100000 100000 100000 100000 100000 100000 100000 100000 100000
100000 100000 100000 100000 100000 100000 100000 100000 100000 100000
100000 100000 100000 100000 100000 100000 100000 100000 100000 100000
100000 100000 100000 100000 100000 100000 100000 100000 100000 100000
100000 100000 100000 100000 100000 100000 100000 100000 100000 100000
100000 100000 100000 100000 100000 100000 100000 100000 100000 100000
100000 100000 100000 100000 100000 100000 100000 100000 100000 100000
100000 100000 100000 100000 100000 100000 100000 100000 100000 100000
100000 100000 100000 100000 100000 100000 100000 100000 100000 100000
100000 100000 100000 100000 100000 100000 100000 100000 100000 100000
100000 100000 100000 100000 100000 100000 100000 100000 100000 100000
100000 100000 100000 100000 100000 100000 100000 100000 100000 100000
100000 100000 100000 100000 100000 100000 100000 100000 100000 100000
100000 100000 100000 100000 100000 100000 100000 100000 100000 100000
100000 100000 100000 100000 100000 100000 100000 100000 100000 100000
100000 100000 100000 100000 100000 100000 100000 100000 100000 100000
100000 100000 100000 100000 100000 100000 100000 100000 100000 100000
100000 100000 100000 100000 100000 100000 100000 100000 100000 100000
100000 100000 100000 100000 100000 100000 100000 100000 100000 100000
100000 100000 100000 100000 100000 100000 100000 100000 100000 100000
100000 100000 100000 100000 100000 100000 100000 100000 100000 100000
100000 100000 100000 100000 100000 100000 100000 100000 100000 100000
100000 100000 100000 100000 100000 100000 100000 100000 100000 100000
100000 100000 100000 100000 100000 100000 100000 100000 100000 100000
100000 100000 100000 100000 100000 100000 100000 100000 100000 100000
100000 100000 100000 100000 100000 100000 100000 100000 100000 100000
100000 100000 100000 100000 100000 100000 100000 100000 100000 100000
100000 100000 100000 100000 100000 100000 100000 100000 100000 100000
100000 100000 100000 100000 100000 100000 100000 100000 100000 100000
100000 100000 100000 100000 100000 100000 100000 100000 100000 100000
100000 100000 100000 100000 100000 100000 100000 100000 100000 100000
100000 100000 100000 100000 100000 100000 100000 100000 100000 100000
100000 100000 100000 100000 100000 100000 100000 100000 100000 
U 3 1100 float
4 0 0 4 0 0 4 0 0 4 0
0 4 0 0 4 0 0 5.179 0 0
5.179 0 0 5.179 0 0 5.179 0 0 4
0 0 4 0 0 4 0 0 4 0
0 4 0 0 4 0 0 4 0 0
4.74129 0 0 4.74129 0 0 4.74129 0 0 4.74129
0 0 4 0 0 4 0 0 4 0
0 4 0 0 4 0 0 4 0 0
4 0 0 4.14952 0 0 4.14952 0 0 4.14952
0 0 4.14952 0 0 4 0 0 4 0
0 4 0 0 4 0 0 4 0 0
4 0 0 4 0 0 5.55697 0 0 5.55697
0 0 5.55697 0 0 5.55697 0 0 4 0
0 4 0 0 4 0 0 4 0 0
4 0 0 4 0 0 4 0 0 5.6
0 0 6.89914 0 0 6.89914 0 0 5.6 0
0 4 0 0 4 0 0 4 0 0
4 0 0 4 0 0 4 0 0 4
0 0 5.6 0 0 6.92368 0 0 6.92368 0
0 5.6 0 0 4 0 0 4 0 0
4 0 0 4 0 0 4 0 0 4
0 0 4 0 0 5.6 0 0 6.16291 0
0 6.16291 0 0 5.6 0 0 4 0 0
4 0 0 4 0 0 4 0 0 4
0 0 4 0 0 4 0 0 5.55107 0
0 5.55107 0 0 5.55107 0 0 5.55107 0 0
4 0 0 4 0 0 4 0 0 4
0 0 4 0 0 4 0 0 4 0
0 4.52076 0 0 4.52076 0 0 4.52076 0 0
4.52076 0 0 4 0 0 4 0 0 4
0 0 4 0 0 4 0 0 4 0
0 4 0 0 4.88214 0 0 4.88214 0 0
4.88214 0 0 4.88214 0 0 4 0 0 4
0 0 4 0 0 4 0 0 4 0
0 4 0 0 4 0 0 5.6 0 0
6.95721 0 0 6.95721 0 0 5.6 0 0 4
0 0 4 0 0 4 0 0 4 0
0 4 0 0 4 0 0 4 0 0
5.6 0 0 6.73091 0 0 6.73091 0 0 5.6
0 0 4 0 0 4 0 0 4 0
0 4 0 0 4 0 0 4 0 0
4 0 0 5.6 0 0 5.95932 0 0 5.95932
0 0 5.6 0 0 4 0 0 4 0
0 4 0 0 4 0 0 4 0 0
4 0 0 4 0 0 4.232 0 0 4.232
0 0 4.232 0 0 4.232 0 0 4 0
0 4 0 0 4 0 0 4 0 0
4 0 0 4 0 0 4 0 0 4.54263
0 0 4.54263 0 0 4.54263 0 0 4.54263 0
0 4 0 0 4 0 0 4 0 0
4 0 0 4 0 0 4 0 0 4