/*--------------------------------*- C++ -*----------------------------------*\
  =========                 |
  \\      /  F ield         | OpenFOAM: The Open Source CFD Toolbox
   \\    /   O peration     | Website:  https://openfoam.org
    \\  /    A nd           | Version:  12
     \\/     M anipulation  |
\*---------------------------------------------------------------------------*/
FoamFile
{
    format      ascii;
    class       volSymmTensorField;
    location    "800";
    object      R;
}
// * * * * * * * * * * * * * * * * * * * * * * * * * * * * * * * * * * * * * //

dimensions      [0 2 -2 0 0 0 0];

internalField   nonuniform List<symmTensor> 
80
(
(0.587395 -0.79591 -0 0.587395 -0 0.587395)
(0.638791 -0.273999 -0 0.638791 -0 0.638791)
(0.686388 -0.268101 -0 0.686388 -0 0.686388)
(0.735239 -0.26711 -0 0.735239 -0 0.735239)
(0.781751 -0.269555 -0 0.781751 -0 0.781751)
(0.825233 -0.275065 -0 0.825233 -0 0.825233)
(0.865811 -0.283206 -0 0.865811 -0 0.865811)
(0.903764 -0.293573 -0 0.903764 -0 0.903764)
(0.939348 -0.305774 -0 0.939348 -0 0.939348)
(0.972764 -0.319411 -0 0.972764 -0 0.972764)
(1.00415 -0.334081 -0 1.00415 -0 1.00415)
(1.03362 -0.349374 -0 1.03362 -0 1.03362)
(1.06122 -0.364885 -0 1.06122 -0 1.06122)
(1.08699 -0.380215 -0 1.08699 -0 1.08699)
(1.11097 -0.394976 -0 1.11097 -0 1.11097)
(1.13317 -0.408798 -0 1.13317 -0 1.13317)
(1.1536 -0.421331 -0 1.1536 -0 1.1536)
(1.17227 -0.432249 -0 1.17227 -0 1.17227)
(1.1892 -0.441256 -0 1.1892 -0 1.1892)
(1.20442 -0.44808 -0 1.20442 -0 1.20442)
(1.21795 -0.452487 -0 1.21795 -0 1.21795)
(1.22985 -0.454271 -0 1.22985 -0 1.22985)
(1.24016 -0.453264 -0 1.24016 -0 1.24016)
(1.24897 -0.449335 -0 1.24897 -0 1.24897)
(1.25635 -0.442386 -0 1.25635 -0 1.25635)
(1.2624 -0.432361 -0 1.2624 -0 1.2624)
(1.26723 -0.419237 -0 1.26723 -0 1.26723)
(1.27095 -0.403032 -0 1.27095 -0 1.27095)
(1.27368 -0.383799 -0 1.27368 -0 1.27368)
(1.27557 -0.361627 -0 1.27557 -0 1.27557)
(1.27673 -0.33664 -0 1.27673 -0 1.27673)
(1.27731 -0.308995 -0 1.27731 -0 1.27731)
(1.27744 -0.278879 -0 1.27744 -0 1.27744)
(1.27723 -0.24651 -0 1.27723 -0 1.27723)
(1.27682 -0.212133 -0 1.27682 -0 1.27682)
(1.27629 -0.176013 -0 1.27629 -0 1.27629)
(1.27576 -0.138438 -0 1.27576 -0 1.27576)
(1.27529 -0.0997145 -0 1.27529 -0 1.27529)
(1.27494 -0.06016 -0 1.27494 -0 1.27494)
(1.27476 -0.0201029 -0 1.27476 -0 1.27476)
(1.27476 0.0201222 -0 1.27476 -0 1.27476)
(1.27494 0.0601792 -0 1.27494 -0 1.27494)
(1.27529 0.0997337 -0 1.27529 -0 1.27529)
(1.27576 0.138457 -0 1.27576 -0 1.27576)
(1.2763 0.176031 -0 1.2763 -0 1.2763)
(1.27682 0.212151 -0 1.27682 -0 1.27682)
(1.27724 0.246528 -0 1.27724 -0 1.27724)
(1.27744 0.278896 -0 1.27744 -0 1.27744)
(1.27732 0.309012 -0 1.27732 -0 1.27732)
(1.27674 0.336656 -0 1.27674 -0 1.27674)
(1.27558 0.361643 -0 1.27558 -0 1.27558)
(1.27369 0.383814 -0 1.27369 -0 1.27369)
(1.27096 0.403047 -0 1.27096 -0 1.27096)
(1.26724 0.419251 -0 1.26724 -0 1.26724)
(1.26241 0.432374 -0 1.26241 -0 1.26241)
(1.25636 0.442399 -0 1.25636 -0 1.25636)
(1.24898 0.449347 -0 1.24898 -0 1.24898)
(1.24017 0.453275 -0 1.24017 -0 1.24017)
(1.22986 0.454281 -0 1.22986 -0 1.22986)
(1.21796 0.452496 -0 1.21796 -0 1.21796)
(1.20443 0.448089 -0 1.20443 -0 1.20443)
(1.18921 0.441264 -0 1.18921 -0 1.18921)
(1.17228 0.432257 -0 1.17228 -0 1.17228)
(1.15361 0.421337 -0 1.15361 -0 1.15361)
(1.13318 0.408803 -0 1.13318 -0 1.13318)
(1.11098 0.394981 -0 1.11098 -0 1.11098)
(1.087 0.380219 -0 1.087 -0 1.087)
(1.06122 0.364889 -0 1.06122 -0 1.06122)
(1.03362 0.349377 -0 1.03362 -0 1.03362)
(1.00416 0.334083 -0 1.00416 -0 1.00416)
(0.972771 0.319413 -0 0.972771 -0 0.972771)
(0.939355 0.305776 -0 0.939355 -0 0.939355)
(0.90377 0.293574 -0 0.90377 -0 0.90377)
(0.865817 0.283206 -0 0.865817 -0 0.865817)
(0.825238 0.275065 -0 0.825238 -0 0.825238)
(0.781755 0.269554 -0 0.781755 -0 0.781755)
(0.735242 0.26711 -0 0.735242 -0 0.735242)
(0.68639 0.268101 -0 0.68639 -0 0.68639)
(0.638791 0.273998 -0 0.638791 -0 0.638791)
(0.587393 0.795907 -0 0.587393 -0 0.587393)
)
;

boundaryField
{
    lowerWall
    {
        type            calculated;
        value           uniform (0.587395 -0.144766 -0 0.587395 -0 0.587395);
    }
    upperWall
    {
        type            calculated;
        value           uniform (0.587393 0.144765 -0 0.587393 -0 0.587393);
    }
    front
    {
        type            cyclic;
    }
    back
    {
        type            cyclic;
    }
    defaultFaces
    {
        type            empty;
    }
}


// ************************************************************************* //
