/*--------------------------------*- C++ -*----------------------------------*\
  =========                 |
  \\      /  F ield         | OpenFOAM: The Open Source CFD Toolbox
   \\    /   O peration     | Website:  https://openfoam.org
    \\  /    A nd           | Version:  12
     \\/     M anipulation  |
\*---------------------------------------------------------------------------*/
FoamFile
{
    format      ascii;
    class       volVectorField;
    location    "800";
    object      U;
}
// * * * * * * * * * * * * * * * * * * * * * * * * * * * * * * * * * * * * * //

dimensions      [0 1 -1 0 0 0 0];

internalField   nonuniform List<vector> 
80
(
(7.0121 0 0)
(8.10037 0 0)
(8.5741 0 0)
(8.84519 0 0)
(9.02813 0 0)
(9.16575 0 0)
(9.27731 0 0)
(9.37273 0 0)
(9.45761 0 0)
(9.53535 0 0)
(9.60812 0 0)
(9.67735 0 0)
(9.744 0 0)
(9.80871 0 0)
(9.87193 0 0)
(9.93391 0 0)
(9.99483 0 0)
(10.0548 0 0)
(10.1137 0 0)
(10.1716 0 0)
(10.2284 0 0)
(10.2839 0 0)
(10.3381 0 0)
(10.3907 0 0)
(10.4415 0 0)
(10.4905 0 0)
(10.5373 0 0)
(10.5818 0 0)
(10.6237 0 0)
(10.663 0 0)
(10.6994 0 0)
(10.7327 0 0)
(10.7627 0 0)
(10.7893 0 0)
(10.8125 0 0)
(10.8319 0 0)
(10.8476 0 0)
(10.8594 0 0)
(10.8673 0 0)
(10.8713 0 0)
(10.8713 0 0)
(10.8673 0 0)
(10.8594 0 0)
(10.8476 0 0)
(10.8319 0 0)
(10.8124 0 0)
(10.7893 0 0)
(10.7627 0 0)
(10.7326 0 0)
(10.6994 0 0)
(10.663 0 0)
(10.6237 0 0)
(10.5818 0 0)
(10.5373 0 0)
(10.4904 0 0)
(10.4415 0 0)
(10.3906 0 0)
(10.338 0 0)
(10.2839 0 0)
(10.2284 0 0)
(10.1716 0 0)
(10.1137 0 0)
(10.0547 0 0)
(9.9948 0 0)
(9.93388 0 0)
(9.87189 0 0)
(9.80868 0 0)
(9.74396 0 0)
(9.67732 0 0)
(9.60809 0 0)
(9.53532 0 0)
(9.45757 0 0)
(9.37269 0 0)
(9.27728 0 0)
(9.16571 0 0)
(9.0281 0 0)
(8.84516 0 0)
(8.57407 0 0)
(8.10034 0 0)
(7.01208 0 0)
)
;

boundaryField
{
    lowerWall
    {
        type            noSlip;
    }
    upperWall
    {
        type            noSlip;
    }
    front
    {
        type            cyclic;
    }
    back
    {
        type            cyclic;
    }
    defaultFaces
    {
        type            empty;
    }
}


// ************************************************************************* //
