/*--------------------------------*- C++ -*----------------------------------*\
  =========                 |
  \\      /  F ield         | OpenFOAM: The Open Source CFD Toolbox
   \\    /   O peration     | Website:  https://openfoam.org
    \\  /    A nd           | Version:  12
     \\/     M anipulation  |
\*---------------------------------------------------------------------------*/
FoamFile
{
    format      ascii;
    class       volVectorField;
    location    "4.6";
    object      U;
}
// * * * * * * * * * * * * * * * * * * * * * * * * * * * * * * * * * * * * * //

dimensions      [0 1 -1 0 0 0 0];

internalField   nonuniform List<vector> 
3829
(
(-5.04479e-07 -5.50847e-06 0)
(-1.52903e-06 -5.57729e-06 0)
(-2.53422e-06 -5.70794e-06 0)
(-3.50172e-06 -5.90688e-06 0)
(-4.404e-06 -6.17733e-06 0)
(-5.22671e-06 -6.51736e-06 0)
(-5.96813e-06 -6.92355e-06 0)
(-6.58055e-06 -7.39269e-06 0)
(-7.05359e-06 -7.90601e-06 0)
(-7.39391e-06 -8.46503e-06 0)
(-7.55794e-06 -9.04307e-06 0)
(-7.62672e-06 -9.62724e-06 0)
(-7.56087e-06 -1.01696e-05 0)
(-7.29947e-06 -1.06623e-05 0)
(-6.85659e-06 -1.10797e-05 0)
(-6.21668e-06 -1.14259e-05 0)
(-5.41299e-06 -1.16826e-05 0)
(-4.46643e-06 -1.1832e-05 0)
(-3.41139e-06 -1.18627e-05 0)
(-2.2691e-06 -1.17634e-05 0)
(-1.07217e-06 -1.15257e-05 0)
(1.2889e-07 -1.11412e-05 0)
(1.28546e-06 -1.06034e-05 0)
(2.35421e-06 -9.9091e-06 0)
(3.29631e-06 -9.0563e-06 0)
(4.06964e-06 -8.05085e-06 0)
(4.6064e-06 -6.89758e-06 0)
(4.90677e-06 -5.61022e-06 0)
(4.91438e-06 -4.1982e-06 0)
(4.59774e-06 -2.67484e-06 0)
(3.89442e-06 -1.08709e-06 0)
(2.77189e-06 5.36342e-07 0)
(1.28421e-06 2.15702e-06 0)
(-6.59226e-07 3.74193e-06 0)
(-2.99907e-06 5.26498e-06 0)
(-5.75264e-06 6.69837e-06 0)
(-8.99822e-06 8.04131e-06 0)
(-1.26343e-05 9.28276e-06 0)
(-1.66135e-05 1.03976e-05 0)
(-2.0939e-05 1.13652e-05 0)
(-2.55955e-05 1.21789e-05 0)
(-3.04744e-05 1.28148e-05 0)
(-3.55553e-05 1.3262e-05 0)
(-4.07816e-05 1.35155e-05 0)
(-4.6045e-05 1.35628e-05 0)
(-5.1311e-05 1.3401e-05 0)
(-5.64887e-05 1.30282e-05 0)
(-6.15065e-05 1.24466e-05 0)
(-6.62808e-05 1.16624e-05 0)
(-7.07416e-05 1.06836e-05 0)
(-7.48127e-05 9.52304e-06 0)
(-7.84172e-05 8.1953e-06 0)
(-8.1495e-05 6.71553e-06 0)
(-8.39559e-05 5.11699e-06 0)
(-8.57323e-05 3.38964e-06 0)
(-8.67994e-05 1.57152e-06 0)
(-8.70214e-05 -3.10284e-07 0)
(-8.63334e-05 -2.23565e-06 0)
(-8.48638e-05 -4.17344e-06 0)
(-8.25238e-05 -6.08025e-06 0)
(-7.9313e-05 -7.9602e-06 0)
(-7.53225e-05 -9.74859e-06 0)
(-7.05414e-05 -1.14797e-05 0)
(-6.49192e-05 -1.305e-05 0)
(-5.87326e-05 -1.45094e-05 0)
(-5.18971e-05 -1.57474e-05 0)
(-4.43823e-05 -1.68118e-05 0)
(-3.64827e-05 -1.76349e-05 0)
(-2.81693e-05 -1.82313e-05 0)
(-1.95484e-05 -1.85591e-05 0)
(-1.07996e-05 -1.8648e-05 0)
(-1.99663e-06 -1.84399e-05 0)
(6.7813e-06 -1.79793e-05 0)
(1.53878e-05 -1.72356e-05 0)
(2.35991e-05 -1.62526e-05 0)
(3.12876e-05 -1.50213e-05 0)
(3.83758e-05 -1.35732e-05 0)
(4.46891e-05 -1.19139e-05 0)
(5.01949e-05 -1.00599e-05 0)
(5.47238e-05 -8.08442e-06 0)
(5.81957e-05 -5.96899e-06 0)
(6.05472e-05 -3.78568e-06 0)
(6.18057e-05 -1.54277e-06 0)
(6.18487e-05 6.77444e-07 0)
(6.05398e-05 2.84043e-06 0)
(5.79744e-05 4.91853e-06 0)
(5.42527e-05 6.88306e-06 0)
(4.94879e-05 8.66316e-06 0)
(4.37549e-05 1.02403e-05 0)
(3.71068e-05 1.15525e-05 0)
(2.96878e-05 1.25977e-05 0)
(2.17264e-05 1.33488e-05 0)
(1.33689e-05 1.37679e-05 0)
(4.78826e-06 1.38542e-05 0)
(-3.79698e-06 1.36029e-05 0)
(-1.21805e-05 1.30199e-05 0)
(-2.0154e-05 1.21147e-05 0)
(-2.75082e-05 1.09147e-05 0)
(-3.40533e-05 9.44361e-06 0)
(-3.96086e-05 7.74311e-06 0)
(-4.40214e-05 5.85781e-06 0)
(-4.7164e-05 3.84128e-06 0)
(-4.89399e-05 1.74214e-06 0)
(-4.92495e-05 -3.78732e-07 0)
(-4.80114e-05 -2.4568e-06 0)
(-4.53226e-05 -4.4485e-06 0)
(-4.12827e-05 -6.29052e-06 0)
(-3.59605e-05 -7.93402e-06 0)
(-2.95291e-05 -9.3265e-06 0)
(-2.21303e-05 -1.04278e-05 0)
(-1.39786e-05 -1.12122e-05 0)
(-5.31475e-06 -1.16581e-05 0)
(3.63933e-06 -1.17649e-05 0)
(1.2596e-05 -1.15159e-05 0)
(2.12771e-05 -1.09398e-05 0)
(2.94492e-05 -1.00516e-05 0)
(3.68658e-05 -8.89127e-06 0)
(4.33219e-05 -7.49633e-06 0)
(4.86273e-05 -5.92301e-06 0)
(5.26325e-05 -4.2151e-06 0)
(5.5244e-05 -2.44536e-06 0)
(5.64068e-05 -6.55997e-07 0)
(5.60564e-05 1.06918e-06 0)
(5.42227e-05 2.71066e-06 0)
(5.10417e-05 4.20414e-06 0)
(4.66164e-05 5.51583e-06 0)
(4.11168e-05 6.60605e-06 0)
(3.47116e-05 7.44805e-06 0)
(2.76253e-05 8.03384e-06 0)
(2.00846e-05 8.3464e-06 0)
(1.23167e-05 8.39709e-06 0)
(4.56854e-06 8.1956e-06 0)
(-2.94035e-06 7.75469e-06 0)
(-9.99343e-06 7.11403e-06 0)
(-1.6396e-05 6.29137e-06 0)
(-2.19866e-05 5.33041e-06 0)
(-2.66254e-05 4.26462e-06 0)
(-3.02137e-05 3.1321e-06 0)
(-3.26852e-05 1.97513e-06 0)
(-3.40073e-05 8.26477e-07 0)
(-3.41814e-05 -2.77201e-07 0)
(-3.3243e-05 -1.31235e-06 0)
(-3.12712e-05 -2.24886e-06 0)
(-2.83515e-05 -3.06523e-06 0)
(-2.45998e-05 -3.74864e-06 0)
(-2.01583e-05 -4.28756e-06 0)
(-1.51693e-05 -4.67494e-06 0)
(-9.78879e-06 -4.90957e-06 0)
(-4.18388e-06 -5.00219e-06 0)
(1.49992e-06 -4.94593e-06 0)
(7.10054e-06 -4.77104e-06 0)
(1.24768e-05 -4.47115e-06 0)
(1.74981e-05 -4.08286e-06 0)
(2.2051e-05 -3.60144e-06 0)
(2.6042e-05 -3.0687e-06 0)
(2.93842e-05 -2.48167e-06 0)
(3.2031e-05 -1.87332e-06 0)
(3.39364e-05 -1.25693e-06 0)
(3.50843e-05 -6.45881e-07 0)
(3.54871e-05 -5.36815e-08 0)
(3.51618e-05 4.97805e-07 0)
(3.41313e-05 1.00464e-06 0)
(3.24671e-05 1.46012e-06 0)
(3.02288e-05 1.8487e-06 0)
(2.74803e-05 2.1744e-06 0)
(2.43121e-05 2.42624e-06 0)
(2.08085e-05 2.60948e-06 0)
(1.70602e-05 2.72715e-06 0)
(1.3158e-05 2.77522e-06 0)
(9.18833e-06 2.76358e-06 0)
(5.23712e-06 2.69318e-06 0)
(1.38591e-06 2.57332e-06 0)
(-2.29823e-06 2.41023e-06 0)
(-5.74979e-06 2.21014e-06 0)
(-8.91295e-06 1.98203e-06 0)
(-1.17444e-05 1.73171e-06 0)
(-1.42111e-05 1.46809e-06 0)
(-1.62845e-05 1.19845e-06 0)
(-1.79551e-05 9.29628e-07 0)
(-1.92195e-05 6.68147e-07 0)
(-2.00813e-05 4.18883e-07 0)
(-2.05608e-05 1.87566e-07 0)
(-2.06782e-05 -2.35181e-08 0)
(-2.04654e-05 -2.10089e-07 0)
(-1.9955e-05 -3.72528e-07 0)
(-1.91859e-05 -5.06062e-07 0)
(-1.81976e-05 -6.13266e-07 0)
(-1.70357e-05 -6.95927e-07 0)
(-1.57387e-05 -7.52744e-07 0)
(-1.43435e-05 -7.85688e-07 0)
(-1.28888e-05 -8.01472e-07 0)
(-1.14085e-05 -7.98596e-07 0)
(-9.93544e-06 -7.85558e-07 0)
(-8.48212e-06 -7.60124e-07 0)
(-7.06395e-06 -7.29423e-07 0)
(-5.68912e-06 -6.96588e-07 0)
(-4.36653e-06 -6.66556e-07 0)
(-3.08926e-06 -6.39354e-07 0)
(-1.84146e-06 -6.19412e-07 0)
(-6.13239e-07 -6.08907e-07 0)
(-1.109e-06 2.84552e-05 0)
(-3.31397e-06 2.83641e-05 0)
(-5.51009e-06 2.7699e-05 0)
(-7.69562e-06 2.66995e-05 0)
(-9.79602e-06 2.53882e-05 0)
(-1.17421e-05 2.37733e-05 0)
(-1.3523e-05 2.18921e-05 0)
(-1.49636e-05 1.9771e-05 0)
(-1.60982e-05 1.74475e-05 0)
(-1.68751e-05 1.49671e-05 0)
(-1.71383e-05 1.23748e-05 0)
(-1.68088e-05 9.71829e-06 0)
(-1.5902e-05 7.04591e-06 0)
(-1.45514e-05 4.41648e-06 0)
(-1.28726e-05 1.90606e-06 0)
(-1.09159e-05 -4.01232e-07 0)
(-8.54633e-06 -2.46031e-06 0)
(-5.84648e-06 -4.22595e-06 0)
(-2.90845e-06 -5.60584e-06 0)
(2.19493e-07 -6.59061e-06 0)
(3.48048e-06 -7.11494e-06 0)
(6.8054e-06 -7.15995e-06 0)
(1.01066e-05 -6.69996e-06 0)
(1.33069e-05 -5.73356e-06 0)
(1.63029e-05 -4.26861e-06 0)
(1.90078e-05 -2.30767e-06 0)
(2.13034e-05 9.7802e-08 0)
(2.31629e-05 2.92545e-06 0)
(2.45392e-05 6.11046e-06 0)
(2.51605e-05 9.56719e-06 0)
(2.48758e-05 1.32676e-05 0)
(2.37257e-05 1.7174e-05 0)
(2.1752e-05 2.12162e-05 0)
(1.89575e-05 2.52891e-05 0)
(1.54469e-05 2.93349e-05 0)
(1.13698e-05 3.32458e-05 0)
(6.75703e-06 3.69341e-05 0)
(1.5651e-06 4.03046e-05 0)
(-4.20864e-06 4.32856e-05 0)
(-1.04506e-05 4.57988e-05 0)
(-1.71579e-05 4.77963e-05 0)
(-2.42431e-05 4.92351e-05 0)
(-3.15708e-05 5.00631e-05 0)
(-3.90913e-05 5.02636e-05 0)
(-4.66827e-05 4.98097e-05 0)
(-5.42496e-05 4.86956e-05 0)
(-6.16735e-05 4.69222e-05 0)
(-6.88406e-05 4.45065e-05 0)
(-7.56397e-05 4.14598e-05 0)
(-8.19676e-05 3.78158e-05 0)
(-8.77193e-05 3.36206e-05 0)
(-9.28126e-05 2.89153e-05 0)
(-9.70983e-05 2.37599e-05 0)
(-0.000100619 1.82492e-05 0)
(-0.000103292 1.24017e-05 0)
(-0.000104914 6.32854e-06 0)
(-0.000105448 7.53942e-08 0)
(-0.000104817 -6.22183e-06 0)
(-0.000103048 -1.2562e-05 0)
(-0.000100227 -1.87755e-05 0)
(-9.62663e-05 -2.48469e-05 0)
(-9.14e-05 -3.06605e-05 0)
(-8.54527e-05 -3.61235e-05 0)
(-7.84454e-05 -4.11415e-05 0)
(-7.06408e-05 -4.56899e-05 0)
(-6.19439e-05 -4.95832e-05 0)
(-5.25258e-05 -5.28629e-05 0)
(-4.25383e-05 -5.54116e-05 0)
(-3.20709e-05 -5.72019e-05 0)
(-2.12912e-05 -5.81805e-05 0)
(-1.03181e-05 -5.83488e-05 0)
(7.16169e-07 -5.76515e-05 0)
(1.16163e-05 -5.61146e-05 0)
(2.22435e-05 -5.37258e-05 0)
(3.22914e-05 -5.05626e-05 0)
(4.16877e-05 -4.66148e-05 0)
(5.0299e-05 -4.19585e-05 0)
(5.80151e-05 -3.66655e-05 0)
(6.45562e-05 -3.08187e-05 0)
(6.98895e-05 -2.45155e-05 0)
(7.39491e-05 -1.7866e-05 0)
(7.65813e-05 -1.09716e-05 0)
(7.779e-05 -3.9779e-06 0)
(7.73673e-05 2.96996e-06 0)
(7.5382e-05 9.74356e-06 0)
(7.19589e-05 1.62222e-05 0)
(6.70593e-05 2.22922e-05 0)
(6.08388e-05 2.77975e-05 0)
(5.34124e-05 3.2623e-05 0)
(4.48959e-05 3.66603e-05 0)
(3.55558e-05 3.98276e-05 0)
(2.5507e-05 4.20399e-05 0)
(1.49853e-05 4.32332e-05 0)
(4.27188e-06 4.33883e-05 0)
(-6.39391e-06 4.24857e-05 0)
(-1.67622e-05 4.05542e-05 0)
(-2.65628e-05 3.76293e-05 0)
(-3.55479e-05 3.37896e-05 0)
(-4.349e-05 2.91242e-05 0)
(-5.01557e-05 2.37646e-05 0)
(-5.53674e-05 1.78261e-05 0)
(-5.89949e-05 1.1502e-05 0)
(-6.09321e-05 4.95054e-06 0)
(-6.10449e-05 -1.63405e-06 0)
(-5.93127e-05 -8.08048e-06 0)
(-5.58475e-05 -1.42264e-05 0)
(-5.07424e-05 -1.9888e-05 0)
(-4.41063e-05 -2.49019e-05 0)
(-3.61442e-05 -2.91296e-05 0)
(-2.70759e-05 -3.24389e-05 0)
(-1.71696e-05 -3.47595e-05 0)
(-6.73409e-06 -3.60163e-05 0)
(3.99506e-06 -3.62107e-05 0)
(1.46567e-05 -3.53274e-05 0)
(2.48951e-05 -3.34309e-05 0)
(3.44541e-05 -3.05935e-05 0)
(4.30379e-05 -2.69299e-05 0)
(5.04106e-05 -2.25715e-05 0)
(5.63744e-05 -1.76833e-05 0)
(6.07493e-05 -1.2421e-05 0)
(6.34555e-05 -6.97864e-06 0)
(6.44236e-05 -1.5206e-06 0)
(6.36476e-05 3.73561e-06 0)
(6.12104e-05 8.69204e-06 0)
(5.72229e-05 1.31844e-05 0)
(5.18488e-05 1.70918e-05 0)
(4.5278e-05 2.03116e-05 0)
(3.77517e-05 2.27657e-05 0)
(2.95169e-05 2.44262e-05 0)
(2.08416e-05 2.52725e-05 0)
(1.20083e-05 2.53174e-05 0)
(3.26486e-06 2.46056e-05 0)
(-5.11139e-06 2.32027e-05 0)
(-1.28974e-05 2.11836e-05 0)
(-1.98953e-05 1.86527e-05 0)
(-2.59176e-05 1.57129e-05 0)
(-3.08406e-05 1.24826e-05 0)
(-3.45535e-05 9.07267e-06 0)
(-3.70053e-05 5.60197e-06 0)
(-3.81793e-05 2.17206e-06 0)
(-3.80977e-05 -1.11175e-06 0)
(-3.68119e-05 -4.16852e-06 0)
(-3.44075e-05 -6.92346e-06 0)
(-3.10043e-05 -9.31432e-06 0)
(-2.67371e-05 -1.12991e-05 0)
(-2.17594e-05 -1.28496e-05 0)
(-1.62322e-05 -1.39489e-05 0)
(-1.03417e-05 -1.46014e-05 0)
(-4.24493e-06 -1.48172e-05 0)
(1.8812e-06 -1.46221e-05 0)
(7.87469e-06 -1.40545e-05 0)
(1.35864e-05 -1.31476e-05 0)
(1.8884e-05 -1.19593e-05 0)
(2.36489e-05 -1.05322e-05 0)
(2.77858e-05 -8.92738e-06 0)
(3.12246e-05 -7.20162e-06 0)
(3.38949e-05 -5.39673e-06 0)
(3.57829e-05 -3.57591e-06 0)
(3.68736e-05 -1.78379e-06 0)
(3.71683e-05 -5.77512e-08 0)
(3.66996e-05 1.55812e-06 0)
(3.55135e-05 3.03494e-06 0)
(3.36656e-05 4.34808e-06 0)
(3.12313e-05 5.47775e-06 0)
(2.82817e-05 6.40879e-06 0)
(2.49089e-05 7.13928e-06 0)
(2.12164e-05 7.66392e-06 0)
(1.72825e-05 7.98579e-06 0)
(1.32064e-05 8.11695e-06 0)
(9.08107e-06 8.06558e-06 0)
(4.99104e-06 7.85159e-06 0)
(1.0241e-06 7.48911e-06 0)
(-2.75732e-06 7.00301e-06 0)
(-6.28485e-06 6.41286e-06 0)
(-9.50385e-06 5.73914e-06 0)
(-1.23718e-05 5.00636e-06 0)
(-1.48546e-05 4.23485e-06 0)
(-1.69267e-05 3.44966e-06 0)
(-1.85803e-05 2.66573e-06 0)
(-1.98146e-05 1.90628e-06 0)
(-2.06348e-05 1.18095e-06 0)
(-2.10643e-05 5.08752e-07 0)
(-2.11254e-05 -1.03164e-07 0)
(-2.08533e-05 -6.42612e-07 0)
(-2.028e-05 -1.10825e-06 0)
(-1.94469e-05 -1.49535e-06 0)
(-1.84009e-05 -1.80326e-06 0)
(-1.71831e-05 -2.03476e-06 0)
(-1.58321e-05 -2.19567e-06 0)
(-1.43932e-05 -2.29143e-06 0)
(-1.29012e-05 -2.32741e-06 0)
(-1.13915e-05 -2.31887e-06 0)
(-9.89605e-06 -2.27327e-06 0)
(-8.42571e-06 -2.19812e-06 0)
(-7.00102e-06 -2.10441e-06 0)
(-5.62764e-06 -2.00615e-06 0)
(-4.31128e-06 -1.91655e-06 0)
(-3.04431e-06 -1.83675e-06 0)
(-1.81281e-06 -1.77999e-06 0)
(-6.03494e-07 -1.74878e-06 0)
(-3.28509e-06 2.9718e-05 0)
(-9.79814e-06 2.88764e-05 0)
(-1.61908e-05 2.71085e-05 0)
(-2.22612e-05 2.44723e-05 0)
(-2.79035e-05 2.09901e-05 0)
(-3.2999e-05 1.67217e-05 0)
(-3.74185e-05 1.17345e-05 0)
(-4.11172e-05 6.13557e-06 0)
(-4.39633e-05 1.69724e-08 0)
(-4.59248e-05 -6.48125e-06 0)
(-4.69571e-05 -1.32233e-05 0)
(-4.71202e-05 -2.00949e-05 0)
(-4.63247e-05 -2.69482e-05 0)
(-4.43654e-05 -3.35957e-05 0)
(-4.11239e-05 -3.98494e-05 0)
(-3.68416e-05 -4.5531e-05 0)
(-3.18284e-05 -5.04491e-05 0)
(-2.58154e-05 -5.44775e-05 0)
(-1.91079e-05 -5.74534e-05 0)
(-1.19348e-05 -5.92491e-05 0)
(-4.28072e-06 -5.97951e-05 0)
(3.52891e-06 -5.89985e-05 0)
(1.13235e-05 -5.68318e-05 0)
(1.88411e-05 -5.32786e-05 0)
(2.60146e-05 -4.83973e-05 0)
(3.25358e-05 -4.22532e-05 0)
(3.82226e-05 -3.49835e-05 0)
(4.30111e-05 -2.66513e-05 0)
(4.6491e-05 -1.74342e-05 0)
(4.88485e-05 -7.55539e-06 0)
(5.03159e-05 2.81897e-06 0)
(5.06431e-05 1.34063e-05 0)
(4.95228e-05 2.40219e-05 0)
(4.69761e-05 3.44543e-05 0)
(4.30876e-05 4.44955e-05 0)
(3.77267e-05 5.40742e-05 0)
(3.09329e-05 6.29308e-05 0)
(2.29073e-05 7.09677e-05 0)
(1.38112e-05 7.8028e-05 0)
(3.80349e-06 8.39719e-05 0)
(-6.89831e-06 8.87023e-05 0)
(-1.81942e-05 9.21602e-05 0)
(-2.99047e-05 9.42848e-05 0)
(-4.18381e-05 9.50495e-05 0)
(-5.38266e-05 9.44409e-05 0)
(-6.56904e-05 9.24664e-05 0)
(-7.72277e-05 8.91508e-05 0)
(-8.83159e-05 8.4549e-05 0)
(-9.87995e-05 7.87191e-05 0)
(-0.000108452 7.17458e-05 0)
(-0.000117173 6.37171e-05 0)
(-0.00012484 5.47408e-05 0)
(-0.000131159 4.49386e-05 0)
(-0.000136262 3.43978e-05 0)
(-0.000140031 2.3341e-05 0)
(-0.000142319 1.19332e-05 0)
(-0.000142929 2.67211e-07 0)
(-0.000141999 -1.15165e-05 0)
(-0.000139532 -2.32457e-05 0)
(-0.000135416 -3.47911e-05 0)
(-0.000129899 -4.59521e-05 0)
(-0.00012279 -5.6608e-05 0)
(-0.000114172 -6.65381e-05 0)
(-0.000104298 -7.56126e-05 0)
(-9.3101e-05 -8.37278e-05 0)
(-8.07702e-05 -9.07114e-05 0)
(-6.75863e-05 -9.64634e-05 0)
(-5.35705e-05 -0.000100911 0)
(-3.89672e-05 -0.000103916 0)
(-2.39995e-05 -0.000105466 0)
(-8.83999e-06 -0.000105475 0)
(6.34147e-06 -0.000103951 0)
(2.12959e-05 -0.000100886 0)
(3.56992e-05 -9.63273e-05 0)
(4.93203e-05 -9.03193e-05 0)
(6.20595e-05 -8.29238e-05 0)
(7.35562e-05 -7.42828e-05 0)
(8.36422e-05 -6.44838e-05 0)
(9.21972e-05 -5.37523e-05 0)
(9.89942e-05 -4.21904e-05 0)
(0.000103963 -3.00636e-05 0)
(0.000106947 -1.75504e-05 0)
(0.000107862 -4.91186e-06 0)
(0.000106657 7.61287e-06 0)
(0.000103321 1.9772e-05 0)
(9.80281e-05 3.13795e-05 0)
(9.07857e-05 4.21478e-05 0)
(8.17288e-05 5.18945e-05 0)
(7.11021e-05 6.03707e-05 0)
(5.90875e-05 6.74152e-05 0)
(4.59293e-05 7.28355e-05 0)
(3.19084e-05 7.65107e-05 0)
(1.73784e-05 7.83575e-05 0)
(2.65559e-06 7.83207e-05 0)
(-1.19054e-05 7.63914e-05 0)
(-2.59466e-05 7.26235e-05 0)
(-3.91269e-05 6.7093e-05 0)
(-5.11014e-05 5.99449e-05 0)
(-6.15519e-05 5.13562e-05 0)
(-7.0249e-05 4.15679e-05 0)
(-7.69033e-05 3.08246e-05 0)
(-8.13011e-05 1.94125e-05 0)
(-8.33772e-05 7.64459e-06 0)
(-8.30236e-05 -4.1156e-06 0)
(-8.02786e-05 -1.55883e-05 0)
(-7.52406e-05 -2.64379e-05 0)
(-6.80307e-05 -3.63607e-05 0)
(-5.88577e-05 -4.50593e-05 0)
(-4.7997e-05 -5.23166e-05 0)
(-3.57772e-05 -5.7892e-05 0)
(-2.25656e-05 -6.169e-05 0)
(-8.78237e-06 -6.35788e-05 0)
(5.2108e-06 -6.35616e-05 0)
(1.89801e-05 -6.16817e-05 0)
(3.20506e-05 -5.80282e-05 0)
(4.40891e-05 -5.27662e-05 0)
(5.47341e-05 -4.60876e-05 0)
(6.3692e-05 -3.82573e-05 0)
(7.07411e-05 -2.9556e-05 0)
(7.56912e-05 -2.02922e-05 0)
(7.84602e-05 -1.07767e-05 0)
(7.89721e-05 -1.33071e-06 0)
(7.73232e-05 7.74939e-06 0)
(7.36785e-05 1.62034e-05 0)
(6.81453e-05 2.37892e-05 0)
(6.09697e-05 3.02949e-05 0)
(5.24185e-05 3.55728e-05 0)
(4.2822e-05 3.95121e-05 0)
(3.25197e-05 4.20632e-05 0)
(2.18197e-05 4.32085e-05 0)
(1.10738e-05 4.30101e-05 0)
(6.19579e-07 4.15256e-05 0)
(-9.27086e-06 3.89028e-05 0)
(-1.83222e-05 3.52702e-05 0)
(-2.63017e-05 3.08178e-05 0)
(-3.3035e-05 2.57146e-05 0)
(-3.83845e-05 2.01773e-05 0)
(-4.22618e-05 1.43864e-05 0)
(-4.46316e-05 8.54e-06 0)
(-4.54996e-05 2.81433e-06 0)
(-4.49135e-05 -2.63171e-06 0)
(-4.29696e-05 -7.65572e-06 0)
(-3.9786e-05 -1.21486e-05 0)
(-3.55114e-05 -1.60102e-05 0)
(-3.03212e-05 -1.91805e-05 0)
(-2.44001e-05 -2.16141e-05 0)
(-1.79442e-05 -2.33034e-05 0)
(-1.11535e-05 -2.42476e-05 0)
(-4.2241e-06 -2.44763e-05 0)
(2.65575e-06 -2.40418e-05 0)
(9.31688e-06 -2.29933e-05 0)
(1.55938e-05 -2.14207e-05 0)
(2.13467e-05 -1.93862e-05 0)
(2.6463e-05 -1.69925e-05 0)
(3.08344e-05 -1.43212e-05 0)
(3.44079e-05 -1.14627e-05 0)
(3.71304e-05 -8.50148e-06 0)
(3.89607e-05 -5.52746e-06 0)
(3.99222e-05 -2.60859e-06 0)
(4.00301e-05 1.79563e-07 0)
(3.93179e-05 2.78266e-06 0)
(3.78388e-05 5.15359e-06 0)
(3.56764e-05 7.24578e-06 0)
(3.29057e-05 9.03833e-06 0)
(2.96144e-05 1.05068e-05 0)
(2.59057e-05 1.16479e-05 0)
(2.18723e-05 1.24562e-05 0)
(1.76242e-05 1.29355e-05 0)
(1.32581e-05 1.311e-05 0)
(8.86922e-06 1.29931e-05 0)
(4.54905e-06 1.26147e-05 0)
(3.8381e-07 1.20043e-05 0)
(-3.55543e-06 1.11962e-05 0)
(-7.20957e-06 1.02259e-05 0)
(-1.05192e-05 9.12547e-06 0)
(-1.34429e-05 7.9364e-06 0)
(-1.59489e-05 6.68956e-06 0)
(-1.80161e-05 5.424e-06 0)
(-1.96388e-05 4.16336e-06 0)
(-2.08207e-05 2.94433e-06 0)
(-2.15711e-05 1.78628e-06 0)
(-2.19139e-05 7.14657e-07 0)
(-2.18776e-05 -2.57416e-07 0)
(-2.15005e-05 -1.11256e-06 0)
(-2.08229e-05 -1.84676e-06 0)
(-1.98849e-05 -2.45186e-06 0)
(-1.87341e-05 -2.93384e-06 0)
(-1.74215e-05 -3.292e-06 0)
(-1.59877e-05 -3.53495e-06 0)
(-1.44698e-05 -3.67492e-06 0)
(-1.29146e-05 -3.72308e-06 0)
(-1.13573e-05 -3.69701e-06 0)
(-9.82307e-06 -3.60955e-06 0)
(-8.32681e-06 -3.48061e-06 0)
(-6.88956e-06 -3.32547e-06 0)
(-5.52038e-06 -3.16147e-06 0)
(-4.21613e-06 -3.01154e-06 0)
(-2.9693e-06 -2.87803e-06 0)
(-1.76505e-06 -2.78422e-06 0)
(-5.86401e-07 -2.73207e-06 0)
(-7.69985e-06 0.000139805 0)
(-2.29752e-05 0.000137787 0)
(-3.79211e-05 0.000133163 0)
(-5.22196e-05 0.00012623 0)
(-6.55441e-05 0.000117035 0)
(-7.75453e-05 0.000105703 0)
(-8.79146e-05 9.2382e-05 0)
(-9.63701e-05 7.72244e-05 0)
(-0.000102756 6.05001e-05 0)
(-0.000106793 4.24892e-05 0)
(-0.00010857 2.37155e-05 0)
(-0.000108003 4.70114e-06 0)
(-0.000104692 -1.39333e-05 0)
(-9.85526e-05 -3.18358e-05 0)
(-8.98124e-05 -4.86057e-05 0)
(-7.85988e-05 -6.384e-05 0)
(-6.52157e-05 -7.7183e-05 0)
(-4.99414e-05 -8.8245e-05 0)
(-3.29362e-05 -9.67903e-05 0)
(-1.48669e-05 -0.000102583 0)
(3.98025e-06 -0.000105458 0)
(2.32448e-05 -0.00010529 0)
(4.23788e-05 -0.000102071 0)
(6.08039e-05 -9.57799e-05 0)
(7.79845e-05 -8.66527e-05 0)
(9.34152e-05 -7.48068e-05 0)
(0.000107018 -6.05467e-05 0)
(0.000118594 -4.44239e-05 0)
(0.000127265 -2.66596e-05 0)
(0.000132939 -7.89028e-06 0)
(0.00013529 1.16331e-05 0)
(0.000134301 3.12938e-05 0)
(0.000130418 5.06647e-05 0)
(0.000123602 6.95544e-05 0)
(0.000114701 8.74028e-05 0)
(0.000103643 0.000103944 0)
(9.03791e-05 0.00011889 0)
(7.54386e-05 0.000132093 0)
(5.86793e-05 0.000143292 0)
(4.05404e-05 0.000152359 0)
(2.14522e-05 0.000159221 0)
(1.68843e-06 0.000163784 0)
(-1.84538e-05 0.000166017 0)
(-3.86891e-05 0.000165926 0)
(-5.8741e-05 0.000163525 0)
(-7.8344e-05 0.000158889 0)
(-9.71768e-05 0.00015212 0)
(-0.000115 0.000143301 0)
(-0.000131595 0.000132568 0)
(-0.000146745 0.000120091 0)
(-0.000160281 0.000106014 0)
(-0.000172011 9.05371e-05 0)
(-0.000181884 7.39056e-05 0)
(-0.000189593 5.63768e-05 0)
(-0.000194785 3.80156e-05 0)
(-0.000197821 1.92045e-05 0)
(-0.000198779 1.67465e-07 0)
(-0.000197333 -1.89589e-05 0)
(-0.000193587 -3.78106e-05 0)
(-0.000187539 -5.6242e-05 0)
(-0.000179217 -7.39324e-05 0)
(-0.000168778 -9.0629e-05 0)
(-0.00015608 -0.00010614 0)
(-0.000141622 -0.000120272 0)
(-0.000125504 -0.000132687 0)
(-0.000107704 -0.000143356 0)
(-8.87751e-05 -0.000151993 0)
(-6.87485e-05 -0.00015851 0)
(-4.79467e-05 -0.000162744 0)
(-2.67297e-05 -0.000164661 0)
(-5.29532e-06 -0.000164149 0)
(1.59709e-05 -0.000161249 0)
(3.67458e-05 -0.000155934 0)
(5.67048e-05 -0.00014833 0)
(7.55282e-05 -0.000138454 0)
(9.28616e-05 -0.00012651 0)
(0.000108481 -0.000112649 0)
(0.000122055 -9.70835e-05 0)
(0.000133318 -8.00788e-05 0)
(0.000142131 -6.19095e-05 0)
(0.000148237 -4.29021e-05 0)
(0.000151554 -2.33945e-05 0)
(0.000151947 -3.75084e-06 0)
(0.000149296 1.56021e-05 0)
(0.000143848 3.43761e-05 0)
(0.000135685 5.21774e-05 0)
(0.000124832 6.86267e-05 0)
(0.000111581 8.3388e-05 0)
(9.61488e-05 9.61363e-05 0)
(7.88455e-05 0.000106575 0)
(6.0066e-05 0.000114481 0)
(4.02469e-05 0.000119651 0)
(1.98152e-05 0.000121982 0)
(-7.5277e-07 0.00012138 0)
(-2.09357e-05 0.000117883 0)
(-4.02723e-05 0.00011154 0)
(-5.82828e-05 0.000102556 0)
(-7.44899e-05 9.11002e-05 0)
(-8.84568e-05 7.75057e-05 0)
(-9.98377e-05 6.20859e-05 0)
(-0.000108381 4.53293e-05 0)
(-0.00011383 2.76437e-05 0)
(-0.000115963 9.53685e-06 0)
(-0.000114771 -8.51118e-06 0)
(-0.000110353 -2.5994e-05 0)
(-0.000102816 -4.23965e-05 0)
(-9.23807e-05 -5.72568e-05 0)
(-7.93904e-05 -7.01608e-05 0)
(-6.42162e-05 -8.07544e-05 0)
(-4.73674e-05 -8.87408e-05 0)
(-2.93688e-05 -9.39395e-05 0)
(-1.0752e-05 -9.62287e-05 0)
(7.87932e-06 -9.56013e-05 0)
(2.59941e-05 -9.21673e-05 0)
(4.29977e-05 -8.60959e-05 0)
(5.84448e-05 -7.7647e-05 0)
(7.18726e-05 -6.71821e-05 0)
(8.29072e-05 -5.50777e-05 0)
(9.12999e-05 -4.17999e-05 0)
(9.68502e-05 -2.78128e-05 0)
(9.95002e-05 -1.3595e-05 0)
(9.92472e-05 3.81775e-07 0)
(9.62379e-05 1.37221e-05 0)
(9.06932e-05 2.59811e-05 0)
(8.28411e-05 3.68446e-05 0)
(7.30393e-05 4.60137e-05 0)
(6.16759e-05 5.33065e-05 0)
(4.91813e-05 5.85899e-05 0)
(3.59739e-05 6.17938e-05 0)
(2.25105e-05 6.29549e-05 0)
(9.19901e-06 6.21699e-05 0)
(-3.57514e-06 5.9565e-05 0)
(-1.54355e-05 5.53555e-05 0)
(-2.61045e-05 4.97593e-05 0)
(-3.53351e-05 4.30663e-05 0)
(-4.29226e-05 3.55184e-05 0)
(-4.87454e-05 2.74278e-05 0)
(-5.27422e-05 1.90716e-05 0)
(-5.48903e-05 1.07125e-05 0)
(-5.52534e-05 2.6043e-06 0)
(-5.39211e-05 -5.03725e-06 0)
(-5.1034e-05 -1.20139e-05 0)
(-4.67537e-05 -1.81954e-05 0)
(-4.12818e-05 -2.34437e-05 0)
(-3.4839e-05 -2.76978e-05 0)
(-2.76567e-05 -3.08814e-05 0)
(-1.99629e-05 -3.30246e-05 0)
(-1.19939e-05 -3.41288e-05 0)
(-3.97821e-06 -3.4237e-05 0)
(3.88471e-06 -3.34454e-05 0)
(1.13894e-05 -3.18183e-05 0)
(1.83746e-05 -2.94803e-05 0)
(2.46992e-05 -2.6534e-05 0)
(3.02282e-05 -2.31133e-05 0)
(3.48885e-05 -1.93383e-05 0)
(3.86159e-05 -1.53304e-05 0)
(4.13496e-05 -1.12249e-05 0)
(4.30999e-05 -7.11453e-06 0)
(4.38796e-05 -3.11175e-06 0)
(4.37127e-05 6.98378e-07 0)
(4.26694e-05 4.23405e-06 0)
(4.08092e-05 7.43346e-06 0)
(3.82235e-05 1.02484e-05 0)
(3.50147e-05 1.2633e-05 0)
(3.12759e-05 1.45779e-05 0)
(2.71218e-05 1.60623e-05 0)
(2.26624e-05 1.7095e-05 0)
(1.80105e-05 1.76872e-05 0)
(1.32739e-05 1.78592e-05 0)
(8.5497e-06 1.76462e-05 0)
(3.93796e-06 1.70793e-05 0)
(-4.71433e-07 1.62051e-05 0)
(-4.61182e-06 1.5069e-05 0)
(-8.42038e-06 1.37183e-05 0)
(-1.18386e-05 1.22019e-05 0)
(-1.4828e-05 1.05698e-05 0)
(-1.73592e-05 8.87002e-06 0)
(-1.94164e-05 7.14676e-06 0)
(-2.09963e-05 5.44195e-06 0)
(-2.21046e-05 3.79267e-06 0)
(-2.27585e-05 2.23863e-06 0)
(-2.29888e-05 7.98556e-07 0)
(-2.28266e-05 -4.97933e-07 0)
(-2.23161e-05 -1.63546e-06 0)
(-2.1499e-05 -2.60676e-06 0)
(-2.04254e-05 -3.40303e-06 0)
(-1.91484e-05 -4.02989e-06 0)
(-1.77122e-05 -4.49268e-06 0)
(-1.6166e-05 -4.79635e-06 0)
(-1.45557e-05 -4.96405e-06 0)
(-1.29209e-05 -5.01075e-06 0)
(-1.12975e-05 -4.95521e-06 0)
(-9.71763e-06 -4.82147e-06 0)
(-8.19356e-06 -4.63082e-06 0)
(-6.74294e-06 -4.41131e-06 0)
(-5.37674e-06 -4.18169e-06 0)
(-4.08741e-06 -3.96458e-06 0)
(-2.8668e-06 -3.77878e-06 0)
(-1.70004e-06 -3.64417e-06 0)
(-5.63461e-07 -3.57213e-06 0)
(-1.84867e-05 0.000258642 0)
(-5.51876e-05 0.00025283 0)
(-9.12025e-05 0.000242246 0)
(-0.000125774 0.000226404 0)
(-0.00015815 0.000205506 0)
(-0.000187627 0.000179856 0)
(-0.000213963 0.00015003 0)
(-0.000236439 0.000116588 0)
(-0.000254241 8.06308e-05 0)
(-0.000265968 4.27713e-05 0)
(-0.00027038 4.00816e-06 0)
(-0.000267183 -3.50571e-05 0)
(-0.000257422 -7.34747e-05 0)
(-0.000242323 -0.000110403 0)
(-0.000221665 -0.000144932 0)
(-0.000196065 -0.000176173 0)
(-0.000166043 -0.000203399 0)
(-0.000132145 -0.000225813 0)
(-9.55801e-05 -0.00024288 0)
(-5.70672e-05 -0.00025408 0)
(-1.72252e-05 -0.000259103 0)
(2.27781e-05 -0.000257723 0)
(6.21828e-05 -0.000249888 0)
(9.95227e-05 -0.000235817 0)
(0.000134028 -0.000215761 0)
(0.000165114 -0.000190347 0)
(0.000190645 -0.000160131 0)
(0.000211038 -0.000126175 0)
(0.000225607 -8.91439e-05 0)
(0.000234481 -5.08514e-05 0)
(0.000238086 -1.19328e-05 0)
(0.000235545 2.66177e-05 0)
(0.000228667 6.42028e-05 0)
(0.000217008 9.99175e-05 0)
(0.000200506 0.00013318 0)
(0.000180345 0.000163312 0)
(0.000157116 0.000189934 0)
(0.000131228 0.000212638 0)
(0.000102953 0.000231293 0)
(7.32915e-05 0.000245831 0)
(4.26481e-05 0.000256203 0)
(1.13274e-05 0.00026245 0)
(-2.00694e-05 0.000264684 0)
(-5.11675e-05 0.000263018 0)
(-8.15347e-05 0.000257645 0)
(-0.000110662 0.000248835 0)
(-0.000138333 0.000236653 0)
(-0.000164317 0.000221435 0)
(-0.000188161 0.00020348 0)
(-0.000209657 0.000183018 0)
(-0.000228635 0.000160486 0)
(-0.000244653 0.000136063 0)
(-0.000257297 0.000110123 0)
(-0.000267339 8.30472e-05 0)
(-0.000274251 5.50796e-05 0)
(-0.000277458 2.65116e-05 0)
(-0.000277696 -2.05556e-06 0)
(-0.000274624 -3.05511e-05 0)
(-0.000268276 -5.84971e-05 0)
(-0.000258754 -8.55392e-05 0)
(-0.000245995 -0.000111371 0)
(-0.000230319 -0.000135511 0)
(-0.000212017 -0.000157836 0)
(-0.000190959 -0.0001779 0)
(-0.000167637 -0.000195496 0)
(-0.000142416 -0.000210335 0)
(-0.000115457 -0.000222223 0)
(-8.71948e-05 -0.000230884 0)
(-5.80534e-05 -0.000236284 0)
(-2.84298e-05 -0.000238232 0)
(1.27505e-06 -0.000236712 0)
(3.06209e-05 -0.000231708 0)
(5.91279e-05 -0.000223275 0)
(8.63484e-05 -0.000211509 0)
(0.000111864 -0.000196567 0)
(0.000135208 -0.000178671 0)
(0.00015604 -0.000158081 0)
(0.000173915 -0.000135157 0)
(0.000188591 -0.000110223 0)
(0.000199735 -8.37492e-05 0)
(0.00020714 -5.61803e-05 0)
(0.000210642 -2.80409e-05 0)
(0.00020999 1.98946e-07 0)
(0.000205369 2.79685e-05 0)
(0.000196939 5.47875e-05 0)
(0.000184704 8.00639e-05 0)
(0.000168884 0.000103312 0)
(0.000149807 0.000123996 0)
(0.00012785 0.000141717 0)
(0.000103493 0.000156017 0)
(7.72514e-05 0.000166642 0)
(4.97224e-05 0.000173288 0)
(2.1525e-05 0.000175829 0)
(-6.6847e-06 0.000174178 0)
(-3.42262e-05 0.00016838 0)
(-6.03849e-05 0.000158553 0)
(-8.45678e-05 0.000144952 0)
(-0.000106183 0.000127949 0)
(-0.000124633 0.000107977 0)
(-0.000139418 8.55437e-05 0)
(-0.00015012 6.12713e-05 0)
(-0.000156541 3.58439e-05 0)
(-0.000158523 1.00103e-05 0)
(-0.000156037 -1.55966e-05 0)
(-0.000149131 -4.02132e-05 0)
(-0.00013806 -6.3142e-05 0)
(-0.000123202 -8.37363e-05 0)
(-0.000105038 -0.0001014 0)
(-8.41207e-05 -0.000115648 0)
(-6.1151e-05 -0.000126147 0)
(-3.68579e-05 -0.000132579 0)
(-1.1997e-05 -0.000134923 0)
(1.26314e-05 -0.000133132 0)
(3.62866e-05 -0.000127442 0)
(5.82418e-05 -0.000118117 0)
(7.78507e-05 -0.000105591 0)
(9.45867e-05 -9.03677e-05 0)
(0.000108024 -7.30407e-05 0)
(0.00011784 -5.42642e-05 0)
(0.000123871 -3.46922e-05 0)
(0.000126086 -1.50175e-05 0)
(0.000124606 4.14376e-06 0)
(0.000119615 2.21731e-05 0)
(0.000111455 3.85728e-05 0)
(0.000100516 5.28709e-05 0)
(8.72849e-05 6.4748e-05 0)
(7.23116e-05 7.39608e-05 0)
(5.61199e-05 8.03765e-05 0)
(3.93136e-05 8.39623e-05 0)
(2.2458e-05 8.47759e-05 0)
(6.03086e-06 8.30079e-05 0)
(-9.47087e-06 7.88694e-05 0)
(-2.36533e-05 7.26584e-05 0)
(-3.61615e-05 6.47034e-05 0)
(-4.67521e-05 5.53844e-05 0)
(-5.52467e-05 4.50784e-05 0)
(-6.14885e-05 3.41634e-05 0)
(-6.54827e-05 2.30283e-05 0)
(-6.72519e-05 1.20176e-05 0)
(-6.68936e-05 1.43382e-06 0)
(-6.45511e-05 -8.43468e-06 0)
(-6.04491e-05 -1.73794e-05 0)
(-5.48008e-05 -2.51734e-05 0)
(-4.78579e-05 -3.17304e-05 0)
(-3.98824e-05 -3.69405e-05 0)
(-3.11772e-05 -4.0782e-05 0)
(-2.20375e-05 -4.32187e-05 0)
(-1.26793e-05 -4.4337e-05 0)
(-3.40936e-06 -4.41969e-05 0)
(5.56407e-06 -4.28969e-05 0)
(1.40435e-05 -4.05754e-05 0)
(2.18284e-05 -3.73734e-05 0)
(2.87786e-05 -3.34322e-05 0)
(3.47691e-05 -2.89307e-05 0)
(3.97191e-05 -2.40096e-05 0)
(4.35679e-05 -1.88469e-05 0)
(4.63007e-05 -1.35792e-05 0)
(4.79151e-05 -8.34954e-06 0)
(4.84486e-05 -3.28027e-06 0)
(4.79556e-05 1.50651e-06 0)
(4.65029e-05 5.93072e-06 0)
(4.41829e-05 9.89901e-06 0)
(4.10994e-05 1.33776e-05 0)
(3.73713e-05 1.62888e-05 0)
(3.31127e-05 1.86476e-05 0)
(2.84457e-05 2.04202e-05 0)
(2.34955e-05 2.16264e-05 0)
(1.83821e-05 2.22812e-05 0)
(1.32242e-05 2.24121e-05 0)
(8.12494e-06 2.20635e-05 0)
(3.18468e-06 2.12876e-05 0)
(-1.49976e-06 2.01366e-05 0)
(-5.86047e-06 1.86617e-05 0)
(-9.83768e-06 1.69301e-05 0)
(-1.33729e-05 1.50022e-05 0)
(-1.64291e-05 1.29378e-05 0)
(-1.8982e-05 1.07998e-05 0)
(-2.10193e-05 8.64197e-06 0)
(-2.2544e-05 6.51767e-06 0)
(-2.35639e-05 4.47144e-06 0)
(-2.41058e-05 2.54366e-06 0)
(-2.42044e-05 7.67331e-07 0)
(-2.3892e-05 -8.22653e-07 0)
(-2.32262e-05 -2.2147e-06 0)
(-2.22529e-05 -3.39251e-06 0)
(-2.10234e-05 -4.35671e-06 0)
(-1.95966e-05 -5.10263e-06 0)
(-1.80216e-05 -5.64529e-06 0)
(-1.63529e-05 -5.99511e-06 0)
(-1.46349e-05 -6.17572e-06 0)
(-1.29095e-05 -6.20153e-06 0)
(-1.12174e-05 -6.11217e-06 0)
(-9.58513e-06 -5.92301e-06 0)
(-8.02907e-06 -5.6651e-06 0)
(-6.56693e-06 -5.3745e-06 0)
(-5.20315e-06 -5.07454e-06 0)
(-3.93317e-06 -4.79041e-06 0)
(-2.74665e-06 -4.55359e-06 0)
(-1.623e-06 -4.37965e-06 0)
(-5.37174e-07 -4.28719e-06 0)
(-3.8723e-05 0.000576479 0)
(-0.00011547 0.00056395 0)
(-0.00019055 0.0005402 0)
(-0.000262131 0.000504574 0)
(-0.000328561 0.000457562 0)
(-0.000387606 0.000399772 0)
(-0.000437774 0.000332526 0)
(-0.000476262 0.000257017 0)
(-0.000502902 0.000176284 0)
(-0.000518031 9.12548e-05 0)
(-0.000521875 4.46431e-06 0)
(-0.000514876 -8.26026e-05 0)
(-0.000495848 -0.000167019 0)
(-0.000465377 -0.000246426 0)
(-0.000423724 -0.000318865 0)