/*--------------------------------*- C++ -*----------------------------------*\
  =========                 |
  \\      /  F ield         | OpenFOAM: The Open Source CFD Toolbox
   \\    /   O peration     | Website:  https://openfoam.org
    \\  /    A nd           | Version:  12
     \\/     M anipulation  |
\*---------------------------------------------------------------------------*/
FoamFile
{
    format      ascii;
    class       volVectorField;
    location    "4.6";
    object      zeta;
}
// * * * * * * * * * * * * * * * * * * * * * * * * * * * * * * * * * * * * * //

dimensions      [0 1 0 0 0 0 0];

internalField   uniform (0 0 0);

boundaryField
{
    freeSurface
    {
        type            calculated;
        value           nonuniform List<vector> 
181
(
(0 -0.00221749 0)
(0 -0.00221723 0)
(0 -0.0022166 0)
(0 -0.00221662 0)
(0 -0.00221562 0)
(0 -0.00221575 0)
(0 -0.00221504 0)
(0 -0.00221498 0)
(0 -9.79899e-06 0)
(0 -1.48048e-05 0)
(0 -2.3299e-05 0)
(0 -3.38403e-05 0)
(0 -4.90692e-05 0)
(0 -6.756e-05 0)
(0 -8.89681e-05 0)
(0 -0.000112923 0)
(0 -0.000138973 0)
(0 -0.000166731 0)
(0 -0.000195847 0)
(0 -0.00022586 0)
(0 -0.000256286 0)
(0 -0.000286669 0)
(0 -0.000316501 0)
(0 -0.000345425 0)
(0 -0.000373031 0)
(0 -0.000398965 0)
(0 -0.000422878 0)
(0 -0.00044441 0)
(0 -0.000463267 0)
(0 -0.000479117 0)
(0 -0.000491721 0)
(0 -0.000500808 0)
(0 -0.000506165 0)
(0 -0.000507629 0)
(0 -0.000505123 0)
(0 -0.000498488 0)
(0 -0.000487722 0)
(0 -0.000472797 0)
(0 -0.000453785 0)
(0 -0.000430802 0)
(0 -0.000403996 0)
(0 -0.000373588 0)
(0 -0.000339858 0)
(0 -0.000303117 0)
(0 -0.000263733 0)
(0 -0.000222146 0)
(0 -0.00017883 0)
(0 -0.000134247 0)
(0 -8.89702e-05 0)
(0 -4.35909e-05 0)
(0 1.29795e-06 0)
(0 4.51055e-05 0)
(0 8.72128e-05 0)
(0 0.000126967 0)
(0 0.000163794 0)
(0 0.000197135 0)
(0 0.000226437 0)
(0 0.000251193 0)
(0 0.000270987 0)
(0 0.000285463 0)
(0 0.000294381 0)
(0 0.00029751 0)
(0 0.000294822 0)
(0 0.000286292 0)
(0 0.000272123 0)
(0 0.000252559 0)
(0 0.000227948 0)
(0 0.000198817 0)
(0 0.00016579 0)
(0 0.000129533 0)
(0 9.08631e-05 0)
(0 5.063e-05 0)
(0 9.75595e-06 0)
(0 -3.07766e-05 0)
(0 -7.00372e-05 0)
(0 -0.000107088 0)
(0 -0.000141 0)
(0 -0.00017093 0)
(0 -0.00019609 0)
(0 -0.00021582 0)
(0 -0.000229627 0)
(0 -0.000237054 0)
(0 -0.00023798 0)
(0 -0.000232383 0)
(0 -0.000220525 0)
(0 -0.000202867 0)
(0 -0.000180056 0)
(0 -0.000152996 0)
(0 -0.000122698 0)
(0 -9.02728e-05 0)
(0 -5.69555e-05 0)
(0 -2.39049e-05 0)
(0 7.71224e-06 0)
(0 3.68594e-05 0)
(0 6.26459e-05 0)
(0 8.43613e-05 0)
(0 0.000101512 0)
(0 0.000113795 0)
(0 0.000121129 0)
(0 0.000123646 0)
(0 0.000121624 0)
(0 0.000115515 0)
(0 0.00010587 0)
(0 9.33449e-05 0)
(0 7.86131e-05 0)
(0 6.23669e-05 0)
(0 4.53032e-05 0)
(0 2.80335e-05 0)
(0 1.11569e-05 0)
(0 -4.85692e-06 0)
(0 -1.95798e-05 0)
(0 -3.26764e-05 0)
(0 -4.39073e-05 0)
(0 -5.31293e-05 0)
(0 -6.02707e-05 0)
(0 -6.53375e-05 0)
(0 -6.84016e-05 0)
(0 -6.95825e-05 0)
(0 -6.90468e-05 0)
(0 -6.69846e-05 0)
(0 -6.36203e-05 0)
(0 -5.9175e-05 0)
(0 -5.38838e-05 0)
(0 -4.79688e-05 0)
(0 -4.16484e-05 0)
(0 -3.51268e-05 0)
(0 -2.85914e-05 0)
(0 -2.22042e-05 0)
(0 -1.61091e-05 0)
(0 -1.04342e-05 0)
(0 -5.27971e-06 0)
(0 -7.25622e-07 0)
(0 3.17719e-06 0)
(0 6.39734e-06 0)
(0 8.92102e-06 0)
(0 1.0747e-05 0)
(0 1.18985e-05 0)
(0 1.24033e-05 0)
(0 1.23056e-05 0)
(0 1.16619e-05 0)
(0 1.05321e-05 0)
(0 8.98098e-06 0)
(0 7.07951e-06 0)
(0 4.90196e-06 0)
(0 2.51771e-06 0)
(0 -6.98581e-10 0)
(0 -2.58443e-06 0)
(0 -5.17039e-06 0)
(0 -7.70055e-06 0)
(0 -1.01226e-05 0)
(0 -1.23914e-05 0)
(0 -1.44647e-05 0)
(0 -1.63053e-05 0)
(0 -1.78817e-05 0)
(0 -1.91717e-05 0)
(0 -2.01638e-05 0)
(0 -2.08561e-05 0)
(0 -2.12554e-05 0)
(0 -2.13725e-05 0)
(0 -2.12215e-05 0)
(0 -2.08172e-05 0)
(0 -2.01786e-05 0)
(0 -1.93241e-05 0)
(0 -1.82749e-05 0)
(0 -1.70561e-05 0)
(0 -1.56993e-05 0)
(0 -1.42395e-05 0)
(0 -1.27114e-05 0)
(0 -1.11435e-05 0)
(0 -9.5627e-06 0)
(0 -7.99178e-06 0)
(0 -6.45686e-06 0)
(0 -4.9893e-06 0)
(0 -3.61909e-06 0)
(0 -2.37114e-06 0)
(0 -1.26107e-06 0)
(0 -3.0211e-07 0)
(0 4.92502e-07 0)
(0 1.10784e-06 0)
(0 1.5302e-06 0)
(0 1.7468e-06 0)
)
;
    }
    walls
    {
        type            calculated;
        value           uniform (0 0 0);
    }
    floatingObject
    {
        type            calculated;
        value           uniform (0 0 0);
    }
    frontAndBack
    {
        type            empty;
    }
}


// ************************************************************************* //
