/*--------------------------------*- C++ -*----------------------------------*\
  =========                 |
  \\      /  F ield         | OpenFOAM: The Open Source CFD Toolbox
   \\    /   O peration     | Website:  https://openfoam.org
    \\  /    A nd           | Version:  12
     \\/     M anipulation  |
\*---------------------------------------------------------------------------*/
FoamFile
{
    format      ascii;
    class       volVectorField;
    location    "18.94";
    object      U;
}
// * * * * * * * * * * * * * * * * * * * * * * * * * * * * * * * * * * * * * //

dimensions      [0 1 -1 0 0 0 0];

internalField   nonuniform List<vector> 
3829
(
(9.81378e-06 -0.000698052 0)
(2.73675e-05 -0.000744174 0)
(4.76504e-05 -0.000744594 0)
(6.65095e-05 -0.000743109 0)
(8.66714e-05 -0.00074111 0)
(0.00010656 -0.000738506 0)
(0.000126951 -0.000735297 0)
(0.000147545 -0.000731447 0)
(0.000168484 -0.000726922 0)
(0.000189685 -0.000721694 0)
(0.000211204 -0.000715735 0)
(0.000233013 -0.000709018 0)
(0.000255072 -0.00070151 0)
(0.000277428 -0.000693206 0)
(0.000300023 -0.00068409 0)
(0.000322855 -0.000674137 0)
(0.000345881 -0.00066335 0)
(0.000369061 -0.000651719 0)
(0.000392391 -0.000639234 0)
(0.000415746 -0.00062592 0)
(0.00043903 -0.000611776 0)
(0.000462275 -0.000596811 0)
(0.00048535 -0.000581058 0)
(0.000508162 -0.00056454 0)
(0.000530609 -0.000547292 0)
(0.000552545 -0.00052937 0)
(0.000573891 -0.000510793 0)
(0.000594486 -0.000491652 0)
(0.000614228 -0.000471955 0)
(0.000633022 -0.000451817 0)
(0.000650481 -0.000431272 0)
(0.000666784 -0.000410372 0)
(0.00068171 -0.0003892 0)
(0.000694955 -0.000367797 0)
(0.00070655 -0.000346221 0)
(0.000716326 -0.000324498 0)
(0.000724239 -0.000302701 0)
(0.000730116 -0.000280878 0)
(0.000734003 -0.00025908 0)
(0.000735787 -0.000237365 0)
(0.000735247 -0.000215898 0)
(0.000732353 -0.000194792 0)
(0.000727025 -0.000174118 0)
(0.000719158 -0.000153974 0)
(0.000708754 -0.000134428 0)
(0.000695797 -0.000115544 0)
(0.000680253 -9.73856e-05 0)
(0.000662177 -7.99898e-05 0)
(0.000641657 -6.3431e-05 0)
(0.000618716 -4.76987e-05 0)
(0.000593387 -3.29205e-05 0)
(0.000565784 -1.90517e-05 0)
(0.000536135 -6.17118e-06 0)
(0.000504483 5.69296e-06 0)
(0.000470725 1.64832e-05 0)
(0.000435556 2.62582e-05 0)
(0.000398941 3.48632e-05 0)
(0.000360925 4.24475e-05 0)
(0.000321864 4.88147e-05 0)
(0.000282188 5.41346e-05 0)
(0.000242217 5.82244e-05 0)
(0.000201865 6.11879e-05 0)
(0.000161757 6.30305e-05 0)
(0.000122118 6.37454e-05 0)
(8.34253e-05 6.34021e-05 0)
(4.61601e-05 6.19683e-05 0)
(1.05351e-05 5.95576e-05 0)
(-2.3036e-05 5.61571e-05 0)
(-5.43267e-05 5.1844e-05 0)
(-8.29292e-05 4.67125e-05 0)
(-0.000108385 4.08011e-05 0)
(-0.000130548 3.42699e-05 0)
(-0.000148877 2.71585e-05 0)
(-0.000163337 1.9616e-05 0)
(-0.000173866 1.17168e-05 0)
(-0.00018 3.69423e-06 0)
(-0.000181586 -4.46942e-06 0)
(-0.000178621 -1.24635e-05 0)
(-0.000170901 -2.03218e-05 0)
(-0.000158857 -2.77301e-05 0)
(-0.000142768 -3.47698e-05 0)
(-0.000122563 -4.10558e-05 0)
(-9.90467e-05 -4.67621e-05 0)
(-7.23373e-05 -5.139e-05 0)
(-4.28482e-05 -5.51027e-05 0)
(-1.13475e-05 -5.77366e-05 0)
(2.16877e-05 -5.91207e-05 0)
(5.55142e-05 -5.93002e-05 0)
(8.93819e-05 -5.81925e-05 0)
(0.000122582 -5.57996e-05 0)
(0.000154356 -5.21202e-05 0)
(0.000183846 -4.72486e-05 0)
(0.000210362 -4.1232e-05 0)
(0.000233135 -3.41908e-05 0)
(0.000251512 -2.62612e-05 0)
(0.000264889 -1.76142e-05 0)
(0.000272821 -8.44286e-06 0)
(0.000274659 1.02008e-06 0)
(0.000269982 1.0562e-05 0)
(0.000258759 1.98978e-05 0)
(0.000241297 2.88297e-05 0)
(0.000217984 3.71077e-05 0)
(0.00018924 4.443e-05 0)
(0.000155654 5.05983e-05 0)
(0.000118059 5.5367e-05 0)
(7.73764e-05 5.85543e-05 0)
(3.46769e-05 6.00613e-05 0)
(-8.88608e-06 5.97011e-05 0)
(-5.18009e-05 5.75905e-05 0)
(-9.2765e-05 5.35492e-05 0)
(-0.000130476 4.78626e-05 0)
(-0.000163406 4.0542e-05 0)
(-0.000190744 3.17933e-05 0)
(-0.000210962 2.20799e-05 0)
(-0.000223604 1.13872e-05 0)
(-0.000227705 5.84812e-07 0)
(-0.000222745 -1.04113e-05 0)
(-0.000208704 -2.07804e-05 0)
(-0.000186114 -3.04775e-05 0)
(-0.000156416 -3.88013e-05 0)
(-0.000119962 -4.55158e-05 0)
(-7.84424e-05 -5.02988e-05 0)
(-3.36759e-05 -5.28159e-05 0)
(1.2825e-05 -5.29007e-05 0)
(5.87863e-05 -5.04754e-05 0)
(0.000101452 -4.57879e-05 0)
(0.000139249 -3.87609e-05 0)
(0.000170123 -2.99161e-05 0)
(0.000192189 -1.95014e-05 0)
(0.000204655 -8.11372e-06 0)
(0.000205789 3.66004e-06 0)
(0.000195207 1.51587e-05 0)
(0.000173822 2.58871e-05 0)
(0.000142638 3.50912e-05 0)
(0.000103407 4.23232e-05 0)
(5.79217e-05 4.69316e-05 0)
(8.44151e-06 4.87034e-05 0)
(-4.131e-05 4.73095e-05 0)
(-8.79809e-05 4.2957e-05 0)
(-0.000128823 3.56867e-05 0)
(-0.000161053 2.61947e-05 0)
(-0.00018225 1.47315e-05 0)
(-0.000190895 2.41787e-06 0)
(-0.000185312 -1.01632e-05 0)
(-0.000165728 -2.19578e-05 0)
(-0.000133793 -3.20743e-05 0)
(-9.16478e-05 -3.97923e-05 0)
(-4.23613e-05 -4.43993e-05 0)
(1.12916e-05 -4.54382e-05 0)
(6.40378e-05 -4.26094e-05 0)
(0.000110704 -3.62954e-05 0)
(0.00014816 -2.67859e-05 0)
(0.000172947 -1.50278e-05 0)
(0.00018272 -1.87245e-06 0)
(0.000175534 1.13148e-05 0)
(0.000151653 2.36049e-05 0)
(0.000113654 3.35735e-05 0)
(6.48411e-05 4.0503e-05 0)
(8.53803e-06 4.33622e-05 0)
(-4.89458e-05 4.19109e-05 0)
(-0.00010065 3.62372e-05 0)
(-0.000142585 2.70433e-05 0)
(-0.000170289 1.52598e-05 0)
(-0.000181025 2.17433e-06 0)
(-0.000173208 -1.05791e-05 0)
(-0.000147886 -2.1777e-05 0)
(-0.000109016 -2.99742e-05 0)
(-6.12301e-05 -3.42285e-05 0)
(-9.84029e-06 -3.41035e-05 0)
(3.78374e-05 -2.94138e-05 0)
(7.50785e-05 -2.12489e-05 0)
(9.81162e-05 -1.06041e-05 0)
(0.000104059 7.02207e-07 0)
(9.25558e-05 1.11662e-05 0)
(6.65231e-05 1.91966e-05 0)
(3.07412e-05 2.37369e-05 0)
(-9.85492e-06 2.39774e-05 0)
(-4.68999e-05 1.99119e-05 0)
(-7.28946e-05 1.25513e-05 0)
(-8.52062e-05 3.29768e-06 0)
(-8.11042e-05 -6.10872e-06 0)
(-6.15349e-05 -1.41892e-05 0)
(-3.07957e-05 -1.93407e-05 0)
(7.16036e-06 -2.0806e-05 0)
(4.33857e-05 -1.79026e-05 0)
(6.91995e-05 -1.18395e-05 0)
(8.1871e-05 -3.78445e-06 0)
(7.93352e-05 4.38056e-06 0)
(6.2345e-05 1.13199e-05 0)
(3.52993e-05 1.5691e-05 0)
(2.00878e-06 1.68428e-05 0)
(-2.95234e-05 1.44392e-05 0)
(-5.15053e-05 9.73964e-06 0)
(-6.25498e-05 4.14809e-06 0)
(-6.2932e-05 -1.00103e-06 0)
(-5.45303e-05 -4.69483e-06 0)
(-4.12362e-05 -6.65549e-06 0)
(-2.71748e-05 -6.88096e-06 0)
(-1.4615e-05 -6.14606e-06 0)
(-4.47637e-06 -5.40386e-06 0)
(1.24455e-05 0.000281381 0)
(4.01104e-05 0.000313867 0)
(6.82427e-05 0.000313746 0)
(9.68782e-05 0.000312324 0)
(0.00012602 0.000310318 0)
(0.000155728 0.000307794 0)
(0.000186025 0.000304751 0)
(0.000216897 0.000301152 0)
(0.000248401 0.000297031 0)
(0.000280409 0.000292339 0)
(0.000312949 0.000287122 0)
(0.000346017 0.000281345 0)
(0.000379405 0.000275065 0)
(0.000413017 0.000268319 0)
(0.000446937 0.000261141 0)
(0.000481044 0.00025358 0)
(0.000515164 0.000245726 0)
(0.000549344 0.000237673 0)
(0.000583339 0.000229523 0)
(0.000616958 0.000221401 0)
(0.000650218 0.000213423 0)
(0.000682929 0.000205725 0)
(0.000714857 0.000198395 0)
(0.000745901 0.0001916 0)
(0.000775765 0.000185434 0)
(0.000804402 0.000179999 0)
(0.000831523 0.000175433 0)
(0.000857056 0.000171779 0)
(0.000880756 0.000169075 0)
(0.000902375 0.000167462 0)
(0.000921941 0.000166905 0)
(0.000939331 0.000167375 0)
(0.000954417 0.000168885 0)
(0.000967043 0.000171343 0)
(0.000977333 0.000174722 0)
(0.000985075 0.000178876 0)
(0.000990133 0.000183821 0)
(0.000992572 0.000189376 0)
(0.00099248 0.000195583 0)
(0.000989125 0.000202359 0)
(0.000981988 0.000209731 0)
(0.000971607 0.000217694 0)
(0.000958015 0.000226158 0)
(0.000941129 0.000235076 0)
(0.000921167 0.000244337 0)
(0.000898168 0.000253837 0)
(0.000872244 0.000263465 0)
(0.00084341 0.000273072 0)
(0.000812016 0.000282529 0)
(0.000777832 0.000291669 0)
(0.000741054 0.000300365 0)
(0.000702084 0.000308477 0)
(0.000660764 0.000315738 0)
(0.000617272 0.000322143 0)
(0.000571915 0.000327331 0)
(0.000524953 0.000331391 0)
(0.000476756 0.000333859 0)
(0.000427206 0.000334892 0)
(0.000376713 0.000334026 0)
(0.000325815 0.000331538 0)
(0.000274492 0.000326907 0)
(0.000223544 0.000320357 0)
(0.000173072 0.000311616 0)
(0.000123577 0.000300846 0)
(7.54137e-05 0.000287857 0)
(2.92384e-05 0.000272782 0)
(-1.4649e-05 0.000255547 0)
(-5.60021e-05 0.000236314 0)
(-9.41873e-05 0.00021512 0)
(-0.00012898 0.000192204 0)
(-0.000159648 0.000167678 0)
(-0.0001861 0.000141795 0)
(-0.000207858 0.00011483 0)
(-0.000224759 8.69699e-05 0)
(-0.000236464 5.8692e-05 0)
(-0.000242904 3.01925e-05 0)
(-0.000243659 1.94663e-06 0)
(-0.000238812 -2.56353e-05 0)
(-0.000228212 -5.22151e-05 0)
(-0.00021247 -7.73981e-05 0)
(-0.000191656 -0.000100707 0)
(-0.000166053 -0.000121855 0)
(-0.00013611 -0.000140356 0)
(-0.000101915 -0.000155928 0)
(-6.51073e-05 -0.000168192 0)
(-2.52992e-05 -0.000176916 0)
(1.62887e-05 -0.000181736 0)
(5.85979e-05 -0.000182678 0)
(0.000101024 -0.000179462 0)
(0.000142583 -0.000172257 0)
(0.000182219 -0.000160987 0)
(0.000218932 -0.000145935 0)
(0.000251968 -0.000127255 0)
(0.000280294 -0.000105404 0)
(0.000303138 -8.07368e-05 0)
(0.000319749 -5.38476e-05 0)
(0.000329542 -2.53132e-05 0)
(0.000331846 4.15284e-06 0)
(0.000326132 3.38006e-05 0)
(0.00031247 6.2888e-05 0)
(0.000291321 9.06641e-05 0)
(0.00026281 0.000116303 0)
(0.000227559 0.000139008 0)
(0.000186362 0.000158103 0)
(0.000140141 0.000172779 0)
(9.02535e-05 0.000182592 0)
(3.77849e-05 0.000187001 0)
(-1.55175e-05 0.000185841 0)
(-6.81118e-05 0.000178886 0)
(-0.000118262 0.000166289 0)
(-0.000164175 0.000148318 0)
(-0.000204559 0.000125352 0)
(-0.000237488 9.82408e-05 0)
(-0.000262033 6.76489e-05 0)
(-0.000276794 3.47473e-05 0)
(-0.000281018 5.44528e-07 0)
(-0.000274405 -3.33532e-05 0)
(-0.00025667 -6.5977e-05 0)
(-0.000228709 -9.59027e-05 0)
(-0.000191561 -0.000121897 0)
(-0.000146534 -0.00014261 0)
(-9.51421e-05 -0.000157195 0)
(-3.95938e-05 -0.000164806 0)
(1.79902e-05 -0.000164889 0)
(7.44083e-05 -0.000157301 0)
(0.000126915 -0.000142305 0)
(0.000173374 -0.000120343 0)
(0.000211068 -9.25923e-05 0)
(0.000238016 -6.00714e-05 0)
(0.000252787 -2.45152e-05 0)
(0.000253605 1.22047e-05 0)
(0.000240355 4.82161e-05 0)
(0.000213852 8.15252e-05 0)
(0.00017527 0.000110228 0)
(0.000126652 0.000132322 0)
(7.03102e-05 0.00014654 0)
(9.18414e-06 0.000151797 0)
(-5.21862e-05 0.000147364 0)
(-0.00010974 0.000133317 0)
(-0.000159858 0.000110772 0)
(-0.00019941 8.06095e-05 0)
(-0.00022528 4.51774e-05 0)
(-0.000235433 6.40003e-06 0)
(-0.000228431 -3.24968e-05 0)
(-0.000204053 -6.92015e-05 0)
(-0.000164639 -0.000100678 0)
(-0.000112735 -0.000124453 0)
(-5.19349e-05 -0.000138551 0)
(1.42343e-05 -0.000141527 0)
(7.90805e-05 -0.000132615 0)
(0.00013647 -0.000112595 0)
(0.000182413 -8.30441e-05 0)
(0.000212622 -4.627e-05 0)
(0.000224201 -5.43427e-06 0)
(0.000215198 3.57187e-05 0)
(0.000185921 7.36282e-05 0)
(0.000139379 0.000104672 0)
(7.95868e-05 0.000125739 0)
(1.06587e-05 0.000134491 0)
(-5.9388e-05 0.00012956 0)
(-0.000122223 0.000111718 0)
(-0.000172689 8.28349e-05 0)
(-0.00020558 4.59899e-05 0)
(-0.000217284 5.22612e-06 0)
(-0.000206441 -3.44502e-05 0)
(-0.0001745 -6.89336e-05 0)
(-0.000125921 -9.41026e-05 0)
(-6.67975e-05 -0.000106974 0)
(-3.50252e-06 -0.000105984 0)
(5.4633e-05 -9.10776e-05 0)
(9.93925e-05 -6.50331e-05 0)
(0.000126181 -3.19363e-05 0)
(0.000131582 3.64445e-06 0)
(0.000115679 3.61139e-05 0)
(8.20703e-05 6.11192e-05 0)
(3.66036e-05 7.47455e-05 0)
(-1.44468e-05 7.5135e-05 0)
(-6.05137e-05 6.19584e-05 0)
(-9.2479e-05 3.87216e-05 0)
(-0.000106962 9.58974e-06 0)
(-0.000101266 -1.99227e-05 0)
(-7.66269e-05 -4.48278e-05 0)
(-3.82696e-05 -6.07994e-05 0)
(8.73445e-06 -6.48093e-05 0)
(5.32325e-05 -5.56555e-05 0)
(8.45424e-05 -3.63496e-05 0)
(9.93082e-05 -1.13331e-05 0)
(9.53929e-05 1.42602e-05 0)
(7.42393e-05 3.55755e-05 0)
(4.10502e-05 4.89169e-05 0)
(7.41484e-07 5.19119e-05 0)
(-3.67204e-05 4.39756e-05 0)
(-6.18247e-05 2.90017e-05 0)
(-7.32027e-05 1.15064e-05 0)
(-7.16066e-05 -4.25716e-06 0)
(-6.00166e-05 -1.54317e-05 0)
(-4.33373e-05 -2.07805e-05 0)
(-2.66958e-05 -2.07852e-05 0)
(-1.32313e-05 -1.7767e-05 0)
(-3.78512e-06 -1.50645e-05 0)
(5.75895e-06 -0.00104517 0)
(1.87259e-05 -0.00110604 0)
(3.19641e-05 -0.0011085 0)
(4.53661e-05 -0.00110958 0)
(5.90784e-05 -0.0011105 0)
(7.30614e-05 -0.00111128 0)
(8.73714e-05 -0.00111135 0)
(0.000101997 -0.00111065 0)
(0.000116982 -0.0011086 0)
(0.000132308 -0.00110512 0)
(0.00014812 -0.0010998 0)
(0.000164467 -0.0010928 0)
(0.00018179 -0.001084 0)
(0.000199878 -0.0010735 0)
(0.00021883 -0.00106119 0)
(0.000239018 -0.00104709 0)
(0.000260665 -0.00103119 0)
(0.000283798 -0.00101348 0)
(0.000308542 -0.000993886 0)
(0.000334829 -0.000972383 0)
(0.000362587 -0.000948809 0)
(0.000391618 -0.000923169 0)
(0.000421944 -0.000895271 0)
(0.00045346 -0.000865183 0)
(0.000485601 -0.000832628 0)
(0.000518479 -0.000797933 0)
(0.000551576 -0.000760707 0)
(0.000584161 -0.000721558 0)
(0.000616656 -0.000680143 0)
(0.000648517 -0.000636982 0)
(0.000678467 -0.000592108 0)
(0.00070694 -0.000545814 0)
(0.000733427 -0.000498263 0)
(0.000757491 -0.000449579 0)
(0.000778928 -0.000399974 0)
(0.0007978 -0.000349484 0)
(0.000813704 -0.000298307 0)
(0.000826436 -0.000246786 0)
(0.00083643 -0.000195067 0)
(0.000843398 -0.000143416 0)
(0.000847562 -9.22672e-05 0)
(0.000848463 -4.18807e-05 0)
(0.000845913 7.47267e-06 0)
(0.000839766 5.56173e-05 0)
(0.000829825 0.000102364 0)
(0.000816146 0.000147536 0)
(0.000798541 0.000190976 0)
(0.00077704 0.000232491 0)
(0.000751725 0.000271951 0)
(0.000722646 0.00030907 0)
(0.000690011 0.000343757 0)
(0.000653438 0.000375776 0)
(0.000613709 0.000404873 0)
(0.00057056 0.000430929 0)
(0.000524341 0.000453701 0)
(0.000475382 0.000472911 0)
(0.000423931 0.000488434 0)
(0.000370146 0.000500161 0)
(0.000314849 0.000507837 0)
(0.000258356 0.000511362 0)
(0.00020067 0.000510592 0)
(0.000142916 0.00050548 0)
(8.53591e-05 0.000495926 0)
(2.86354e-05 0.000481959 0)
(-2.6929e-05 0.000463579 0)
(-8.03813e-05 0.000440905 0)
(-0.000131423 0.000413975 0)
(-0.000179262 0.000383039 0)
(-0.000223374 0.000348356 0)
(-0.000263118 0.000310179 0)
(-0.000297977 0.000269001 0)
(-0.000327331 0.000225013 0)
(-0.000350934 0.000179039 0)
(-0.000368042 0.000131244 0)
(-0.000378654 8.25372e-05 0)
(-0.000382465 3.32346e-05 0)
(-0.000378597 -1.55548e-05 0)
(-0.000367628 -6.34058e-05 0)
(-0.000349532 -0.000109475 0)
(-0.000324369 -0.000153314 0)
(-0.0002928 -0.000193701 0)
(-0.0002549 -0.000230407 0)
(-0.000211513 -0.000262247 0)
(-0.000163156 -0.000289019 0)
(-0.000110605 -0.000309841 0)
(-5.45984e-05 -0.000324301 0)
(3.4604e-06 -0.000332033 0)
(6.25085e-05 -0.000332676 0)
(0.000121387 -0.000326119 0)
(0.00017875 -0.000312313 0)
(0.000233491 -0.000291422 0)
(0.000284118 -0.000263734 0)
(0.000329492 -0.000229665 0)
(0.000368301 -0.000189963 0)
(0.000399618 -0.000145285 0)
(0.000422294 -9.67253e-05 0)
(0.000435666 -4.52324e-05 0)
(0.000438741 7.74629e-06 0)
(0.00043113 6.10841e-05 0)
(0.000412979 0.000113274 0)
(0.000384527 0.000163053 0)
(0.000346135 0.000208896 0)
(0.000298772 0.00024938 0)
(0.000243137 0.000283294 0)
(0.000180765 0.000309228 0)
(0.00011339 0.000326483 0)
(4.28051e-05 0.000334038 0)
(-2.89521e-05 0.000331497 0)
(-9.96077e-05 0.000318671 0)
(-0.00016667 0.000295753 0)
(-0.000228291 0.000263194 0)
(-0.000281736 0.000221794 0)
(-0.000325508 0.000173012 0)
(-0.000357587 0.000117957 0)
(-0.000376778 5.91281e-05 0)
(-0.000381364 -2.16254e-06 0)
(-0.000371139 -6.27665e-05 0)
(-0.000346657 -0.000121114 0)
(-0.000308086 -0.000174267 0)
(-0.000257148 -0.000220626 0)
(-0.000195291 -0.000257163 0)
(-0.000125352 -0.000282861 0)
(-4.98758e-05 -0.00029577 0)
(2.80713e-05 -0.000295617 0)
(0.000104489 -0.000281381 0)
(0.000175507 -0.000254005 0)
(0.000237808 -0.000214261 0)
(0.000288289 -0.000164099 0)
(0.000324164 -0.000105482 0)
(0.000343187 -4.17874e-05 0)
(0.00034361 2.41539e-05 0)
(0.000325087 8.86909e-05 0)
(0.000288696 0.000148213 0)
(0.000235698 0.000199207 0)
(0.000169198 0.00023841 0)
(9.28278e-05 0.00026352 0)
(9.96252e-06 0.000272349 0)
(-7.35412e-05 0.000263923 0)
(-0.000151168 0.000238383 0)
(-0.000218816 0.000197505 0)
(-0.000271811 0.000143189 0)
(-0.00030614 7.93224e-05 0)
(-0.000319101 9.89519e-06 0)
(-0.000308719 -5.9921e-05 0)
(-0.000275764 -0.00012546 0)
(-0.000221986 -0.000181684 0)
(-0.000151475 -0.000223765 0)
(-6.91224e-05 -0.000248697 0)
(2.02673e-05 -0.000253426 0)
(0.000107908 -0.000237022 0)
(0.000185141 -0.000200877 0)
(0.000246682 -0.000147539 0)
(0.000286955 -8.1621e-05 0)
(0.000301814 -8.33225e-06 0)
(0.000289097 6.5251e-05 0)
(0.000249597 0.000132866 0)
(0.000186866 0.000187811 0)
(0.000106311 0.00022484 0)
(1.38861e-05 0.000239852 0)
(-7.97096e-05 0.000230259 0)
(-0.000163176 0.000197668 0)
(-0.000229584 0.000145482 0)
(-0.000271883 7.92158e-05 0)
(-0.000285165 6.17496e-06 0)
(-0.000268166 -6.47095e-05 0)
(-0.000223447 -0.000125918 0)
(-0.000156709 -0.000170056 0)
(-7.60738e-05 -0.000191896 0)
(9.42061e-06 -0.000188804 0)
(8.71455e-05 -0.000160836 0)
(0.000145574 -0.000113498 0)
(0.000179094 -5.33238e-05 0)
(0.000183414 1.04563e-05 0)
(0.000158852 6.87132e-05 0)
(0.000110628 0.000112793 0)
(4.66402e-05 0.000136382 0)
(-2.398e-05 0.000135709 0)
(-8.68888e-05 0.000111095 0)
(-0.000129816 6.84854e-05 0)
(-0.000148261 1.57079e-05 0)
(-0.000138993 -3.75131e-05 0)
(-0.000104565 -8.20459e-05 0)
(-5.16549e-05 -0.000109928 0)
(1.2333e-05 -0.000116371 0)
(7.21885e-05 -9.8953e-05 0)
(0.000113619 -6.38189e-05 0)
(0.000132055 -1.85947e-05 0)
(0.000125347 2.7196e-05 0)
(9.59902e-05 6.48253e-05 0)
(5.10324e-05 8.74503e-05 0)
(-2.57649e-06 9.14768e-05 0)
(-5.09055e-05 7.60481e-05 0)
(-8.15243e-05 4.8438e-05 0)
(-9.29896e-05 1.70134e-05 0)
(-8.73335e-05 -1.05837e-05 0)
(-6.93654e-05 -2.94232e-05 0)
(-4.60436e-05 -3.72423e-05 0)
(-2.46073e-05 -3.52255e-05 0)
(-9.71093e-06 -2.80093e-05 0)
(-2.16708e-06 -2.19946e-05 0)
(7.92368e-06 -4.65099e-05 0)
(2.9054e-05 -3.39695e-05 0)
(5.11619e-05 -3.39472e-05 0)
(7.60047e-05 -3.49627e-05 0)
(0.000103278 -3.53196e-05 0)
(0.000134461 -3.66289e-05 0)
(0.000169542 -3.64528e-05 0)
(0.000208952 -3.82658e-05 0)
(0.000253094 -3.85788e-05 0)
(0.000300742 -4.26346e-05 0)
(0.000350963 -4.84525e-05 0)
(0.000401812 -5.85146e-05 0)
(0.000453465 -7.11049e-05 0)
(0.000505515 -8.70086e-05 0)
(0.0005583 -0.000104752 0)
(0.000611501 -0.000124518 0)
(0.000665095 -0.000144899 0)
(0.00071926 -0.000165913 0)
(0.000773695 -0.000185644 0)
(0.00082865 -0.000204604 0)
(0.00088397 -0.000221559 0)
(0.000939537 -0.000236691 0)
(0.0009949 -0.000248715 0)
(0.00105031 -0.000257873 0)
(0.00110401 -0.00026283 0)
(0.00115638 -0.000264213 0)
(0.00120574 -0.000260403 0)
(0.00125154 -0.000252822 0)
(0.00129408 -0.000239534 0)
(0.00133122 -0.000222203 0)
(0.00136385 -0.000199804 0)
(0.0013912 -0.000173964 0)
(0.00141393 -0.000144339 0)
(0.00143174 -0.000112158 0)
(0.00144505 -7.74569e-05 0)
(0.0014541 -4.0941e-05 0)
(0.00145785 -2.67047e-06 0)
(0.00145696 3.71053e-05 0)
(0.00145208 7.82027e-05 0)
(0.00144128 0.000120325 0)
(0.00142406 0.00016346 0)
(0.00140157 0.000207454 0)
(0.00137421 0.000252103 0)
(0.00134226 0.000297122 0)
(0.00130594 0.000342299 0)
(0.00126544 0.000387252 0)
(0.00122078 0.000431615 0)
(0.00117217 0.000475142 0)
(0.00111956 0.000517458 0)
(0.00106296 0.000558056 0)
(0.00100281 0.000596565 0)
(0.000938804 0.000632653 0)
(0.000871412 0.000665727 0)
(0.000800856 0.000695563 0)
(0.000726857 0.000721454 0)
(0.000650202 0.000743236 0)
(0.00057192 0.000760406 0)
(0.000491465 0.000772482 0)
(0.000409365 0.000779452 0)
(0.000326552 0.000780549 0)
(0.000243255 0.000775946 0)
(0.00016045 0.000765126 0)
(7.85522e-05 0.00074809 0)
(-1.6e-06 0.000724636 0)
(-7.93327e-05 0.000694869 0)
(-0.000153856 0.000658756 0)
(-0.000224447 0.000616515 0)
(-0.000290115 0.000568406 0)
(-0.000350337 0.000514684 0)
(-0.0004041 0.000455945 0)
(-0.000450952 0.000392571 0)
(-0.00048986 0.000325298 0)
(-0.000520536 0.000254736 0)
(-0.000542526 0.000181895 0)
(-0.000555249 0.000107391 0)
(-0.00055818 3.24535e-05 0)
(-0.000550577 -4.18471e-05 0)
(-0.000533555 -0.000114705 0)
(-0.000507076 -0.000184711 0)
(-0.000470706 -0.000250986 0)
(-0.000425303 -0.000312277 0)
(-0.000371453 -0.000367489 0)
(-0.000309822 -0.000415656 0)
(-0.000241514 -0.000455527 0)
(-0.000167572 -0.000486437 0)
(-8.92603e-05 -0.000507548 0)
(-8.02492e-06 -0.000518333 0)
(7.43546e-05 -0.000518273 0)
(0.00015637 -0.000507028 0)
(0.000236272 -0.000484841 0)
(0.000312163 -0.000451663 0)
(0.000382422 -0.000408147 0)
(0.00044516 -0.000355061 0)
(0.000498814 -0.000293086 0)
(0.000541917 -0.000223856 0)
(0.000573093 -0.000148543 0)
(0.000591106 -6.90565e-05 0)
(0.000595008 1.28772e-05 0)
(0.000584344 9.49712e-05 0)
(0.000559137 0.000175557 0)
(0.000519994 0.000251961 0)
(0.000466901 0.000322357 0)
(0.000401447 0.000384338 0)
(0.000324637 0.000435987 0)
(0.000238764 0.000475605 0)
(0.000146232 0.000501469 0)
(4.89429e-05 0.000512652 0)
(-4.94803e-05 0.000508151 0)
(-0.000146157 0.00048797 0)
(-0.000237958 0.000452094 0)
(-0.000321932 0.000401533 0)
(-0.000394689 0.000337483 0)
(-0.0004539 0.000261888 0)
(-0.000496698 0.000177104 0)
(-0.000521512 8.62727e-05 0)
(-0.000526516 -7.66649e-06 0)
(-0.000511218 -0.000101089 0)
(-0.000476197 -0.000190592 0)
(-0.000422425 -0.000272079 0)
(-0.000351167 -0.000342483 0)
(-0.000265059 -0.000398464 0)
(-0.000167989 -0.000437151 0)
(-6.36334e-05 -0.000456526 0)
(4.40063e-05 -0.000454881 0)
(0.000149494 -0.000432411 0)
(0.000246892 -0.000389452 0)
(0.000332353 -0.000327816 0)
(0.0004013 -0.00024975 0)
(0.000449545 -0.000159319 0)
(0.000474454 -6.08401e-05 0)
(0.000474205 4.06862e-05 0)
(0.000447736 0.000139791 0)
(0.000396519 0.000231102 0)
(0.000322663 0.00030902 0)
(0.000230546 0.000369077 0)
(0.000124566 0.000406975 0)
(9.91735e-06 0.000419703 0)
(-0.000105108 0.000405883 0)
(-0.000212094 0.00036603 0)
(-0.000304925 0.000302385 0)
(-0.000377485 0.00021834 0)
(-0.000423852 0.000119632 0)
(-0.000440531 1.26008e-05 0)
(-0.000425543 -9.46543e-05 0)
(-0.000379426 -0.000195294 0)
(-0.000304671 -0.000281159 0)
(-0.000207191 -0.00034554 0)
(-9.34305e-05 -0.000382962 0)
(2.99693e-05 -0.000389533 0)
(0.000150172 -0.000363537 0)
(0.00025633 -0.000307456 0)
(0.00034043 -0.000225054 0)
(0.000395041 -0.000123334 0)
(0.00041452 -1.0683e-05 0)
(0.000396122 0.000102043 0)
(0.000341238 0.000205333 0)
(0.000254666 0.000289185 0)
(0.000144143 0.000344918 0)
(1.7459e-05 0.000366877 0)
(-0.000110247 0.000350936 0)
(-0.000223448 0.000299681 0)
(-0.000312598 0.000218814 0)
(-0.0003683 0.000116535 0)
(-0.000383547 4.64944e-06 0)
(-0.00035735 -0.000104203 0)
(-0.000293562 -0.000197536 0)
(-0.00019977 -0.000264032 0)
(-8.77514e-05 -0.000295886 0)
(3.0061e-05 -0.000289007 0)
(0.000135542 -0.000244264 0)
(0.000213712 -0.000169475 0)
(0.00025657 -7.60099e-05 0)
(0.000258569 2.26051e-05 0)
(0.000221016 0.000112019 0)
(0.000151016 0.000179024 0)
(5.98188e-05 0.000213728 0)
(-3.9377e-05 0.000210527 0)
(-0.000126386 0.000170843 0)
(-0.000184987 0.000103901 0)
(-0.000208668 2.16578e-05 0)
(-0.000194038 -6.08459e-05 0)
(-0.000144653 -0.000128971 0)
(-7.02552e-05 -0.000170914 0)
(1.85961e-05 -0.000179236 0)
(0.000100669 -0.000151 0)
(0.000156386 -9.56918e-05 0)
(0.000179822 -2.56122e-05 0)
(0.000168412 4.4502e-05 0)
(0.000126456 0.000101377 0)
(6.39888e-05 0.000134363 0)
(-8.73637e-06 0.000138199 0)
(-7.2558e-05 0.000112456 0)
(-0.000110529 6.86895e-05 0)
(-0.000121407 2.00705e-05 0)
(-0.000109157 -2.12894e-05 0)
(-8.14016e-05 -4.83183e-05 0)
(-4.80531e-05 -5.73368e-05 0)
(-1.9625e-05 -5.11192e-05 0)
(-3.10891e-06 -3.67646e-05 0)
(7.95529e-07 -2.55669e-05 0)
(2.16655e-06 -0.00121534 0)
(1.43146e-05 -0.00130682 0)
(2.69214e-05 -0.00132841 0)
(4.33554e-05 -0.00135657 0)
(6.01843e-05 -0.00138915 0)
(8.34312e-05 -0.00143089 0)
(0.000104435 -0.00146991 0)
(0.000126589 -0.00151387 0)
(0.000137627 -0.0015463 0)
(0.000131881 -0.00156984 0)
(0.00012154 -0.00157122 0)
(0.000107073 -0.00156564 0)
(9.77228e-05 -0.00155181 0)
(9.26611e-05 -0.001536 0)
(9.50211e-05 -0.00151755 0)
(0.000104755 -0.00149945 0)
(0.000123436 -0.00148083 0)
(0.000153335 -0.00146227 0)
(0.000188935 -0.00144235 0)
(0.00023194 -0.00142418 0)
(0.000282157 -0.00140384 0)
(0.00033854 -0.00138049 0)
(0.000400529 -0.00135046 0)
(0.000468475 -0.00131668 0)
(0.000539347 -0.00127259 0)
(0.000615011 -0.00122494 0)
(0.000690279 -0.00116355 0)
(0.000766627 -0.00110048 0)
(0.000841927 -0.00102115 0)
(0.000912936 -0.000942128 0)
(0.000978221 -0.000854146 0)
(0.00103608 -0.000765688 0)
(0.00108815 -0.000673564 0)
(0.00113266 -0.000580683 0)
(0.00117154 -0.000486382 0)
(0.00120417 -0.000391941 0)
(0.00123133 -0.000297763 0)
(0.00125213 -0.000204239 0)
(0.00126685 -0.00011185 0)
(0.00127605 -2.13877e-05 0)
(0.00128077 6.7031e-05 0)
(0.00128016 0.000153233 0)
(0.00127381 0.000237272 0)
(0.00126166 0.000318952 0)
(0.00124337 0.000398091 0)
(0.0012185 0.000474755 0)
(0.0011875 0.000548502 0)
(0.00115052 0.000619064 0)
(0.00110671 0.000686248 0)
(0.00105627 0.000749787 0)
(0.00100012 0.000809249 0)
(0.000937297 0.000864086 0)
(0.000868888 0.000913875 0)
(0.000794488 0.000958318 0)
(0.000714607 0.00099672 0)
(0.00063044 0.00102875 0)
(0.000541367 0.00105391 0)
(0.000449107 0.00107159 0)
(0.000353635 0.00108159 0)
(0.000255929 0.00108329 0)
(0.00015695 0.00107663 0)
(5.7211e-05 0.00106111 0)
(-4.19186e-05 0.0010367 0)
(-0.000139531 0.00100323 0)
(-0.000234679 0.000960727 0)
(-0.000326135 0.000909326 0)
(-0.000412699 0.00084927 0)
(-0.000493522 0.000780914 0)
(-0.00056722 0.000704708 0)
(-0.000632791 0.000621298 0)
(-0.000689384 0.000531461 0)
(-0.000735916 0.000436217 0)
(-0.000771482 0.00033625 0)
(-0.000795419 0.000233186 0)
(-0.000807318 0.000128029 0)
(-0.000805847 2.24553e-05 0)
(-0.00079137 -8.24252e-05 0)
(-0.000763865 -0.000185058 0)
(-0.000723353 -0.000283818 0)
(-0.000670403 -0.000376906 0)
(-0.000605283 -0.000463086 0)
(-0.000529106 -0.000540331 0)
(-0.00044248 -0.000607458 0)
(-0.000346871 -0.00066284 0)
(-0.000244242 -0.00070555 0)
(-0.00013584 -0.000734077 0)
(-2.39315e-05 -0.00074795 0)
(8.98268e-05 -0.000746385 0)
(0.000202443 -0.000728974 0)
(0.000311844 -0.000696018 0)
(0.000415944 -0.000647416 0)
(0.000511503 -0.000584258 0)
(0.000597306 -0.000507366 0)
(0.000670281 -0.00041825 0)
(0.000728565 -0.000318548 0)
(0.00077061 -0.00021059 0)
(0.000794748 -9.676e-05 0)
(0.000799489 2.02459e-05 0)
(0.000784782 0.000137543 0)
(0.000750348 0.000252292 0)
(0.000696424 0.000361335 0)
(0.000624148 0.000461153 0)
(0.00053467 0.000549137 0)
(0.00043039 0.000622065 0)
(0.000313537 0.00067799 0)
(0.000187598 0.000714057 0)
(5.58927e-05 0.000729042 0)
(-7.75209e-05 0.000721874 0)
(-0.000208434 0.000691967 0)
(-0.000332479 0.00064014 0)
(-0.000445574 0.000567245 0)
(-0.000543431 0.00047522 0)
(-0.000622605 0.000367355 0)
(-0.000679206 0.00024611 0)
(-0.000711301 0.000116562 0)
(-0.000716687 -1.74689e-05 0)
(-0.000694772 -0.000150325 0)
(-0.00064579 -0.00027785 0)
(-0.000570905 -0.000393417 0)
(-0.000473401 -0.000493047 0)
(-0.000355562 -0.0005717 0)
(-0.000222751 -0.000625967 0)
(-7.9711e-05 -0.000652184 0)
(6.67796e-05 -0.000648929 0)
(0.000209371 -0.000615443 0)
(0.000341565 -0.000553448 0)
(0.00045725 -0.000464168 0)
(0.000550076 -0.000352534 0)
(0.000614379 -0.000223032 0)
(0.000646976 -8.20408e-05 0)
(0.000644958 6.28409e-05 0)
(0.000607862 0.00020398 0)
(0.000537148 0.000333713 0)
(0.000435959 0.000444509 0)
(0.000309784 0.000529227 0)
(0.000164706 0.000581892 0)
(8.50109e-06 0.00059937 0)
(-0.000147858 0.000578549 0)
(-0.000292931 0.000520734 0)
(-0.000418822 0.000429216 0)
(-0.000516533 0.000308763 0)
(-0.000578513 0.00016755 0)
(-0.000599595 1.4793e-05 0)
(-0.000577822 -0.000138435 0)
(-0.000514494 -0.000281422 0)
(-0.000412194 -0.000403485 0)
(-0.000279042 -0.000494168 0)
(-0.000123896 -0.000546678 0)
(4.35469e-05 -0.000554813 0)
(0.000206514 -0.000516913 0)
(0.000349944 -0.000436107 0)
(0.000463442 -0.00031829 0)
(0.000536546 -0.000172791 0)
(0.000561327 -1.26938e-05 0)
(0.000535055 0.000147977 0)
(0.000460292 0.000294568 0)
(0.000342294 0.00041267 0)
(0.000191953 0.000490728 0)
(2.06431e-05 0.000520293 0)
(-0.000151715 0.000495877 0)
(-0.000303378 0.000421702 0)
(-0.000421818 0.00030498 0)
(-0.000494214 0.000158704 0)
(-0.000511778 -8.45071e-07 0)
(-0.000473439 -0.000155647 0)
(-0.000383987 -0.000287244 0)
(-0.000254526 -0.000380033 0)
(-0.000100938 -0.000423039 0)
(5.90276e-05 -0.000409641 0)
(0.000201207 -0.000343044 0)
(0.000304526 -0.000234621 0)
(0.000358627 -9.97501e-05 0)
(0.000357233 4.1436e-05 0)
(0.000301897 0.000168553 0)
(0.000202694 0.000262863 0)
(7.50305e-05 0.000310484 0)
(-6.15829e-05 0.000302264 0)
(-0.000179739 0.00024326 0)
(-0.000258389 0.000145358 0)
(-0.000288709 2.64846e-05 0)
(-0.000266048 -9.14587e-05 0)
(-0.000196453 -0.000188098 0)
(-9.33066e-05 -0.000246094 0)
(2.82658e-05 -0.000255882 0)
(0.000139197 -0.000213393 0)
(0.000213219 -0.00013272 0)
(0.00024227 -3.19103e-05 0)
(0.00022412 6.77308e-05 0)
(0.000165177 0.000146996 0)
(7.92019e-05 0.000191303 0)
(-1.87987e-05 0.000193622 0)
(-0.000102343 0.000153951 0)
(-0.000149245 8.9895e-05 0)
(-0.000158293 2.02494e-05 0)
(-0.000136479 -3.76156e-05 0)
(-9.50903e-05 -7.32956e-05 0)
(-4.82027e-05 -8.20361e-05 0)
(-1.05389e-05 -6.83177e-05 0)
(7.67497e-06 -4.32742e-05 0)
(5.42114e-06 -2.51142e-05 0)
(-4.18187e-05 -0.000258327 0)
(-0.000115897 -0.000306205 0)
(-0.000188728 -0.000327017 0)
(-0.000231461 -0.000355734 0)
(-0.00025736 -0.000375814 0)
(-0.000226812 -0.000396322 0)
(-0.000169271 -0.000353392 0)
(-6.38511e-05 -0.000299272 0)
(3.70513e-05 -0.000137871 0)
(0.000132656 -4.05226e-05 0)
(0.000243319 1.72361e-05 0)
(0.000333944 1.34004e-06 0)
(0.000418006 -4.71498e-05 0)
(0.000485317 -0.000123458 0)
(0.000547067 -0.000214824 0)
(0.000604622 -0.000316677 0)
(0.000664687 -0.00042226 0)
(0.000725192 -0.000526344 0)
(0.000790922 -0.000624674 0)
(0.000865792 -0.000714133 0)
(0.000949164 -0.000788958 0)
(0.00104733 -0.000859577 0)
(0.00115089 -0.000914745 0)
(0.00127263 -0.000963848 0)
(0.00139161 -0.000989698 0)
(0.00152307 -0.00101336 0)
(0.00164285 -0.00100367 0)