#              y        d.bubbles                p       alpha.air1       alpha.air2       alpha.air3    alpha.bubbles
           0.015    0.00305600394       107386.566    6.1452303e-48   5.25697928e-47   6.28825264e-65            3e-06
           0.025    0.00305600394       107285.817   1.58931889e-38   2.87571629e-38   5.49530619e-56            3e-06
           0.035    0.00305600394       107185.067   2.27124502e-16   1.10691419e-25   2.81507726e-31            3e-06
           0.045    0.00300031737       107101.464      0.340959274   1.53187698e-10   4.22599363e-16      0.340961274
           0.055    0.00300095588       107033.908      0.319034867   1.68417092e-08   1.59335333e-15      0.319036867
           0.065    0.00300159912       106965.367      0.321152568   1.10036098e-07   1.30333904e-14      0.321154568
           0.075    0.00300224253       106896.911      0.320699621   4.13818856e-07   1.02402314e-13      0.320701621
           0.085    0.00300288641       106828.441      0.320867486   1.17523337e-06    5.8839717e-13      0.320869661
           0.095    0.00300353072        106759.99      0.321059473   2.78647459e-06   2.60584494e-12      0.321063259
           0.105    0.00300417534       106691.559      0.321272879   5.81886359e-06   9.47904109e-12      0.321279698
           0.115    0.00300482023        106623.15      0.321489333   1.10508674e-05   2.96252557e-11      0.321501383
           0.125    0.00300546538       106554.763      0.321704961   1.94920407e-05   8.20844223e-11      0.321725453
           0.135    0.00300611076       106486.399       0.32191701   3.24011309e-05   2.06215819e-10      0.321950411
           0.145    0.00300675635       106418.058      0.322123584   5.12985296e-05   4.77613211e-10      0.322175882
           0.155    0.00300740214       106349.739      0.322322757   7.79728633e-05   1.03283927e-09       0.32240173
           0.165    0.00300804809       106281.444      0.322512438   0.000114481948    2.1061472e-09       0.32262792
           0.175     0.0030086942       106213.171      0.322690295   0.000163148401   4.08192194e-09      0.322854443
           0.185    0.00300934045       106144.921      0.322853751    0.00022655022   7.56710483e-09      0.323081302
           0.195    0.00300998682       106076.693        0.3230003   0.000307507864   1.34883663e-08      0.323308807
           0.205     0.0030106333       106008.489      0.323125288   0.000409060252   2.32188711e-08      0.323535348
           0.215    0.00301127987       105940.308      0.323227994   0.000534475495    3.8742219e-08       0.32376347
           0.225    0.00301192651       105872.152      0.323349045   0.000687163364   6.28519775e-08      0.324037208
           0.235    0.00301257325       105804.019      0.323365046   0.000870660128   9.94003866e-08      0.324236706
           0.245    0.00301322009       105735.908      0.323358341    0.00108870988   1.53611238e-07      0.324448051
           0.255    0.00301386701       105667.818      0.323327968    0.00134513283   2.32431897e-07        0.3246741
           0.265      0.003014514       105599.751      0.323258319     0.0016437729   3.44949502e-07      0.324903092
           0.275    0.00301516107       105531.708       0.32314272    0.00198852709   5.02887404e-07      0.325132247
           0.285    0.00301580822       105463.687      0.322977335    0.00238330529   7.21166064e-07       0.32536164
           0.295    0.00301645545        105395.69      0.322758319    0.00283198949   1.01853406e-06      0.325591327
           0.305    0.00301710288       105327.716      0.322481697    0.00333840664   1.41827957e-06      0.325821522
           0.315    0.00301775043       105259.765      0.322143818    0.00390630519   1.94902117e-06      0.326052072
           0.325    0.00301839812       105191.838      0.321740867    0.00453932258   2.64557233e-06      0.326282835
           0.335    0.00301904596       105123.933      0.321269451    0.00524096701   3.54988949e-06      0.326513968
           0.345    0.00301969396       105056.052      0.320726052     0.0060145831   4.71208497e-06      0.326745347
           0.355    0.00302034214       104988.194      0.320107507    0.00686334222   6.19153096e-06       0.32697704
           0.365    0.00302099051        104920.36      0.319410777    0.00779021271   8.05801144e-06      0.327209047
           0.375     0.0030216391       104852.549      0.318633005    0.00879794345   1.03929485e-05      0.327441341
           0.385    0.00302228791       104784.761      0.317771591    0.00988905086   1.32906901e-05      0.327673932
           0.395    0.00302293696       104716.997      0.316824147     0.0110658025   1.68598414e-05      0.327906809
           0.405    0.00302358627       104649.256      0.315788538     0.0123302037   2.12246359e-05      0.328139966
           0.415    0.00302423586       104581.539      0.314662887     0.0136839875   2.65263435e-05      0.328373401
           0.425    0.00302488574       104513.845      0.313445583     0.0151286059   3.29246998e-05      0.328607114
           0.435    0.00302553592       104446.175      0.312135279     0.0166652249    4.0599356e-05      0.328841104
           0.445    0.00302618643       104378.529      0.310730901     0.0182947173    4.9751313e-05      0.329075369
           0.455    0.00302683727       104310.906      0.309231647     0.0200176602   6.06043593e-05      0.329309911
           0.465    0.00302748846       104243.307       0.30763699      0.021834334   7.34064829e-05       0.32954473
           0.475    0.00302814002       104175.731      0.305946675     0.0237447223   8.84312493e-05      0.329779829
           0.485    0.00302879195       104108.179      0.304160718     0.0257485132   0.000105979129       0.33001521
           0.495    0.00302944427       104040.651      0.302279395     0.0278451018   0.000126378764      0.330250875
           0.505    0.00303009699       103973.147      0.300303243     0.0300335947   0.000149988168      0.330486826
           0.515    0.00303075012       103905.666       0.29823305     0.0323128152    0.00017719584      0.330723061
           0.525    0.00303140367       103838.209      0.296069846     0.0346813108   0.000208421791      0.330959578
           0.535    0.00303205765       103770.776      0.293814899     0.0371373615   0.000244118468      0.331196379
           0.545    0.00303271207       103703.367      0.291469704     0.0396789883   0.000284771564      0.331433464
           0.555    0.00303336694       103635.982      0.289035975     0.0423039635   0.000330900699      0.331670839
           0.565    0.00303402226       103568.621      0.286515632       0.04500982   0.000383059971      0.331908512
           0.575    0.00303467803       103501.283      0.283910788     0.0477938623   0.000441838348      0.332146489
           0.585    0.00303533427        103433.97      0.281223743     0.0506531777   0.000507859919       0.33238478
           0.595    0.00303599098       103366.681      0.278456961     0.0535846473    0.00058178399      0.332623392
           0.605    0.00303664817       103299.415      0.275613067     0.0565849597   0.000664305022      0.332862332
           0.615    0.00303730583       103232.174      0.272694829     0.0596506235   0.000756152421      0.333101605
           0.625    0.00303796397       103164.957      0.269705149     0.0627779813   0.000858090151      0.333341221
           0.635     0.0030386226       103097.764      0.266647049     0.0659632224   0.000970916177      0.333581188
           0.645    0.00303928171       103030.596       0.26352366     0.0692023954    0.00109546171      0.333821517
           0.655    0.00303994131       102963.451      0.260338203     0.0724914202    0.00123259023      0.334062213
           0.665    0.00304060139       102896.331      0.257093982     0.0758260995    0.00138319634      0.334303278
           0.675    0.00304126196       102829.235      0.253794364     0.0792021305    0.00154820444      0.334544699
           0.685    0.00304192301       102762.163       0.25044277     0.0826151171    0.00172856718      0.334786454
           0.695    0.00304258454       102695.116       0.24704266     0.0860605836    0.00192526387      0.335028507
           0.705    0.00304324655       102628.093      0.243597523     0.0895339884    0.00213929868       0.33527081
           0.715    0.00304390904       102561.095      0.240110872     0.0930307379    0.00237169875      0.335513309
           0.725    0.00304457199       102494.121      0.236586229     0.0965462006    0.00262351219      0.335755942
           0.735    0.00304523542       102427.172      0.233027121       0.10007572    0.00289580588      0.335998647
           0.745     0.0030458993       102360.246      0.229437072      0.103614627    0.00318966305      0.336241363
           0.755    0.00304656364       102293.346      0.225819599      0.107158253    0.00350618092      0.336484033
           0.765    0.00304722844        102226.47      0.222178185      0.110701947    0.00384646906      0.336726601
           0.775    0.00304789368       102159.618      0.218516286      0.114241087    0.00421164616      0.336969019
           0.785    0.00304855937       102092.791       0.21483733      0.117771085    0.00460283758      0.337211253
           0.795     0.0030492255       102025.988      0.211144707      0.121287412    0.00502117311      0.337453292
           0.805    0.00304989206       101959.209      0.207441764        0.1247856    0.00546778423      0.337695148
           0.815    0.00305055905       101892.455      0.203731795      0.128261248    0.00594380085      0.337936844
           0.825    0.00305122647       101825.725      0.200018031      0.131710023    0.00645034762      0.338178402
           0.835     0.0030518943        101759.02       0.19630362      0.135127649    0.00698853966      0.338419808
           0.845    0.00305256254       101692.339      0.192591609      0.138509904     0.0075594781      0.338660992
           0.855    0.00305323118       101625.682      0.188884933      0.141852617    0.00816424578      0.338901796
           0.865    0.00305390021       101559.049      0.185186406      0.145151675    0.00880390419      0.339141986
           0.875    0.00305456961       101492.441      0.181498735      0.148403055    0.00947949242      0.339381282
           0.885    0.00305523937       101425.857      0.177824541       0.15160287     0.0101920282      0.339619439
           0.895    0.00305590949       101359.296      0.174166401       0.15474742       0.01094251      0.339856331
           0.905    0.00305657996        101292.76      0.170526866      0.157833225     0.0117319172      0.340092008
           0.915    0.00305725079       101226.247      0.166908464      0.160857025     0.0125612083      0.340326697
           0.925    0.00305792196       101159.757      0.163313669      0.163815746     0.0134313145       0.34056073
           0.935    0.00305859347       101093.292      0.159744859      0.166706454     0.0143431324      0.340794446
           0.945    0.00305926532        101026.85      0.156204279      0.169526309     0.0152975162      0.341028105
           0.955    0.00305993748       100960.431      0.152694016      0.172272542     0.0162952719       0.34126183
           0.965    0.00306060995       100894.036      0.149215995      0.174942452     0.0173371535        0.3414956
           0.975     0.0030612827       100827.664      0.145771988      0.177533413     0.0184238602      0.341729262
           0.985    0.00306195572       100761.317      0.142363629      0.180042891     0.0195560358      0.341962556
           0.995      0.003062629       100694.992      0.138992431      0.182468459     0.0207342652      0.342195155
