/*--------------------------------*- C++ -*----------------------------------*\
  =========                 |
  \\      /  F ield         | OpenFOAM: The Open Source CFD Toolbox
   \\    /   O peration     | Website:  https://openfoam.org
    \\  /    A nd           | Version:  12
     \\/     M anipulation  |
\*---------------------------------------------------------------------------*/
FoamFile
{
    format      ascii;
    class       volScalarField;
    location    "0.12";
    object      epsilon;
}
// * * * * * * * * * * * * * * * * * * * * * * * * * * * * * * * * * * * * * //

dimensions      [0 2 -3 0 0 0 0];

internalField   nonuniform List<scalar> 
12225
(
278.515
263.66
249.434
236.839
226.739
219.485
215.073
213.269
213.715
216.004
219.733
224.532
230.082
236.119
242.443
248.889
255.503
265.099
61.1162
86.6962
97.9933
107.211
118.472
132.569
149.431
168.643
189.625
211.751
234.433
257.161
279.534
301.259
322.259
342.381
363.278
382.11
25.2776
36.1832
43.3823
48.6224
53.3885
58.34
63.7767
69.8353
76.5409
83.8458
91.6605
99.8766
108.384
117.086
125.919
134.873
144.122
153.681
17.5217
21.2987
24.7147
27.6105
30.1629
32.5416
34.8691
37.2317
39.6826
42.2487
44.9376
47.7452
50.6612
53.6742
56.7775
59.9824
63.3134
66.8066
15.4878
16.7519
18.1859
19.5891
20.9099
22.1497
23.3275
24.4669
25.5888
26.7086
27.8362
28.9774
30.1352
31.3116
32.5088
33.7331
34.9908
36.2809
14.9084
15.2396
15.7464
16.3342
16.9478
17.5593
18.1564
18.7364
19.3013
19.8543
20.3986
20.9368
21.4713
22.0041
22.5369
23.0727
23.6136
24.1541
14.7451
14.7391
14.8342
15.0036
15.2216
15.4681
15.7288
15.9952
16.2625
16.5283
16.7914
17.0515
17.3088
17.5635
17.8164
18.0682
18.3196
18.5664
14.7013
14.5825
14.5116
14.4858
14.4981
14.5403
14.6044
14.6839
14.7739
14.8711
14.9731
15.078
15.1848
15.2929
15.4018
15.5113
15.6214
15.7293
14.6901
14.5373
14.407
14.3008
14.2182
14.1571
14.1146
14.0876
14.0733
14.0694
14.0738
14.0848
14.1011
14.1219
14.1462
14.1736
14.2036
14.2344
14.6874
14.5252
14.3761
14.2411
14.1204
14.0137
13.9203
13.8391
13.7688
13.7083
13.6564
13.612
13.5742
13.5421
13.5151
13.4925
13.4739
13.4584
14.6868
14.5221
14.3677
14.2236
14.0896
13.9655
13.8511
13.746
13.6494
13.561
13.4801
13.406
13.3383
13.2764
13.2197
13.1679
13.1206
13.0775
14.6866
14.5213
14.3656
14.219
14.0812
13.9518
13.8305
13.7168
13.6105
13.511
13.4181
13.3313
13.2503
13.1746
13.1039
13.038
12.9764
12.9194
14.6865
14.521
14.3648
14.2175
14.0785
13.9472
13.8234
13.7065
13.5962
13.4922
13.394
13.3014
13.2141
13.1318
13.0541
12.9809
12.9119
12.8475
14.6864
14.5208
14.3645
14.2169
14.0774
13.9456
13.8209
13.7029
13.5912
13.4854
13.3853
13.2903
13.2004
13.1152
13.0343
12.9577
12.8852
12.8171
14.6864
14.5207
14.3643
14.2165
14.0769
13.9449
13.8199
13.7016
13.5895
13.4832
13.3824
13.2867
13.1959
13.1097
13.0278
12.9501
12.8762
12.8067
14.6863
14.5206
14.3641
14.2163
14.0766
13.9444
13.8193
13.7009
13.5886
13.4822
13.3812
13.2853
13.1943
13.1078
13.0256
12.9475
12.8732
12.8033
14.6863
14.5205
14.364
14.2161
14.0763
13.9441
13.8189
13.7004
13.5881
13.4815
13.3805
13.2845
13.1934
13.1068
13.0245
12.9462
12.8718
12.8018
14.6863
14.5204
14.3639
14.216
14.0761
13.9439
13.8187
13.7001
13.5877
13.4811
13.38
13.284
13.1928
13.1061
13.0238
12.9454
12.8709
12.8008
14.6863
14.5204
14.3639
14.2159
14.0761
13.9438
13.8186
13.6999
13.5875
13.4809
13.3798
13.2837
13.1925
13.1058
13.0234
12.945
12.8705
12.8004
14.6863
14.5205
14.3639
14.216
14.0762
13.9439
13.8187
13.7001
13.5877
13.4812
13.38
13.284
13.1928
13.1062
13.0238
12.9455
12.871
12.8009
14.6863
14.5205
14.364
14.2162
14.0764
13.9443
13.8192
13.7007
13.5885
13.4821
13.3812
13.2855
13.1946
13.1083
13.0263
12.9484
12.8743
12.8047
14.6863
14.5206
14.3643
14.2167
14.0773
13.9457
13.8214
13.7039
13.5929
13.4879
13.3886
13.2948
13.206
13.1219
13.0424
12.967
12.8957
12.829
14.6865
14.5212
14.3659
14.2202
14.0837
13.9561
13.8368
13.7256
13.6218
13.525
13.4348
13.3506
13.272
13.1987
13.1301
13.066
13.006
12.9506
14.6876
14.5264
14.3793
14.2467
14.1282
14.0231
13.9302
13.8484
13.7762
13.7126
13.6564
13.6067
13.5627
13.5236
13.4889
13.458
13.4304
13.4064
14.6976
14.5664
14.4707
14.4075
14.3714
14.3568
14.3584
14.3719
14.394
14.4222
14.4548
14.4905
14.5283
14.5676
14.608
14.6491
14.6906
14.7325
14.7737
14.8186
14.9602
15.1591
15.3862
15.6232
15.8596
16.0902
16.3131
16.528
16.7353
16.9358
17.1304
17.32
17.5052
17.6868
17.8651
18.0397
15.2587
16.1151
17.0712
17.9726
18.7877
19.5235
20.194
20.8142
21.3979
21.9562
22.4972
23.0272
23.5505
24.0699
24.5871
25.103
25.6179
26.1292
18.0414
22.0078
24.9884
27.153
28.8879
30.4042
31.8114
33.1769
34.5416
35.9282
37.3475
38.8035
40.2953
41.8189
43.3687
44.9383
46.5213
48.1046
34.0239
45.6875
51.3763
54.9415
58.0794
61.2957
64.7474
68.4782
72.4723
76.6866
81.0709
85.5754
90.1537
94.7641
99.3707
103.945
108.471
112.922
163.308
157.417
151.704
146.261
141.3
136.947
133.249
130.206
127.779
125.917
124.556
123.634
123.089
122.865
122.91
123.179
123.632
124.231
0.747399
0.701785
1.07589
1.39613
1.69746
2.01814
2.37593
2.77946
3.2387
3.76135
4.31236
4.86871
5.41708
5.94557
6.44465
6.9074
7.3291
7.70671
8.03849
8.32371
8.56252
8.75511
8.90017
8.99559
9.0475
9.08517
9.14345
9.17222
9.02757
9.18997
9.16831
9.21698
9.20886
39.6029
39.6576
9.35636
39.6334
42.1104
44.8192
47.6727
50.6583
53.7746
57.0216
60.4008
63.9151
67.5678
71.3625
75.3031
79.3936
83.6377
88.0393
92.602
97.3292
102.224
107.29
112.529
117.944
123.536
129.308
135.261
141.395
147.711
154.21
160.891
167.752
174.794
182.014
189.41
196.98
204.72
212.627
220.698
228.927
237.31
245.842
254.516
263.328
272.269
281.334
290.514
299.803
309.191
318.671
328.233
337.867
347.565
357.316
367.109
376.933
386.777
396.628
406.475
416.307
426.112
435.883
445.618
455.325
465.035
474.74
484.316
493.758
503.058
512.206
521.184
529.978
538.572
546.949
555.094
562.991
570.625
577.98
585.043
591.8
598.236
604.339
610.097
615.498
620.531
625.186
629.454
633.327
636.796
639.856
642.501
644.725
646.526
647.899
648.845
649.362
649.45
649.111
648.348
647.164
645.563
643.551
641.135
638.321
635.12
631.539
627.589
623.281
618.626
613.637
608.328
602.711
596.801
590.613
584.161
577.463
570.531
563.384
556.038
548.508
540.812
532.965
524.98
516.884
508.682
500.398
492.057
483.628
475.243
466.996
460.739
457.27
453.97
450.65
447.298
443.921
440.521
437.103
433.665
430.199
426.685
423.079
419.282
415.07
409.854
402.112
386.265
1.90872
1.22438
1.23209
1.36191
1.5552
1.80369
2.10931
2.46648
2.87539
3.33104
3.82113
4.33144
4.84932
5.3647
5.8705
6.36271
6.84021
7.30454
7.75989
8.21341
8.67582
9.16171
9.68877
10.2749
10.93
11.6499
12.4509
13.4508
14.7909
15.4133
16.5441
17.7479
19.3164
21.0634
22.3753
23.4195
25.6129
27.0761
28.5031
29.9616
31.4672
33.023
34.6308
36.2927
38.0102
39.785
41.6185
43.5121
45.4671
47.4845
49.5654
51.7107
53.9212
56.1975
58.5404
60.9502
63.4274
65.9721
68.5845
71.2646
74.0123
76.8274
79.7094
82.6578
85.6719
88.7511
91.8944
95.1006
98.3687
101.697
105.085
108.529
112.03
115.584
119.19
122.845
126.547
130.295
134.084
137.913
141.778
145.676
149.605
153.562
157.541
161.541
165.556
169.584
173.621
177.661
181.702
185.739
189.768
193.788
197.798
201.799
205.8
209.813
213.866
217.882
221.85
225.764
229.619
233.408
237.126
240.767
244.324
247.792
251.164
254.434
257.597
260.647
263.579
266.387
269.066
271.611
274.018
276.283
278.4
280.366
282.178
283.833
285.327
286.658
287.824
288.823
289.653
290.313
290.802
291.121
291.269
291.246
291.054
290.693
290.165
289.473
288.618
287.602
286.43
285.105
283.629
282.008
280.245
278.345
276.313
274.154
271.873
269.476
266.969
264.356
261.645
258.841
255.95
252.978
249.933
246.817
243.642
240.409
237.128
233.814
230.42
227.075
223.799
220.933
218.595
216.363
214.147
211.932
209.715
207.498
205.282
203.07
200.863
198.659
196.457
194.251
192.023
189.776
187.409
186.282
3.459
1.91586
1.75102
1.82084
1.98357
2.20892
2.4918
2.83012
3.22108
3.65881
4.13412
4.63605
5.15403
5.67937
6.20609
6.73114
7.25425
7.77762
8.30563
8.84457
9.40244
9.98829
10.611
11.277
11.9874
12.7369
13.5242
14.364
15.2589
16.1476
17.1069
18.1144
19.181
20.2855
21.4225
22.5893
23.8074
24.9977
26.2039
27.4444
28.7258
30.0503
31.419
32.8327
34.2921
35.7981
37.3514
38.9527
40.6027
42.3021
44.0514
45.8511
47.7018
49.6038
51.5574
53.5629
55.6205
57.7303
59.8923
62.1065
64.3727
66.6906
69.06
71.4805
73.9515
76.4725
79.0427
81.6614
84.3276
87.0404
89.7987
92.6012
95.4467
98.3338
101.261
104.226
107.229
110.266
113.336
116.437
119.566
122.723
125.903
129.106
132.328
135.566
138.819
142.083
145.357
148.637
151.921
155.208
158.496
161.783
165.071
168.36
171.651
174.949
178.234
181.49
184.708
187.883
191.011
194.086
197.103
200.058
202.945
205.76
208.498
211.153
213.722
216.199
218.581
220.862
223.039
225.108
227.064
228.905
230.627
232.227
233.702
235.049
236.266
237.351
238.302
239.118
239.797
240.339
240.742
241.007
241.133
241.121
240.972
240.686
240.265
239.71
239.024
238.207
237.264
236.196
235.007
233.699
232.276
230.743
229.102
227.358
225.515
223.577
221.55
219.437
217.243
214.974
212.634
210.227
207.76
205.233
202.66
200.035
197.369
194.687
191.974
189.271
186.611
184.103
181.786
179.541
177.321
175.111
172.908
170.713
168.528
166.355
164.199
162.062
159.952
157.88
155.868
153.988
152.344
151.771
5.36091
2.73373
2.38131
2.38138
2.5079
2.71302
2.98188
3.30829
3.6875
4.11347
4.57828
5.07278
5.58788
6.11588
6.65119
7.19072
7.73375
8.28166
8.83749
9.40547
9.99061
10.598
11.2323
11.8969
12.5932
13.3209
14.0802
14.8738
15.7035
16.5671
17.4699
18.4112
19.391
20.4067
21.457
22.539
23.6506
24.7867
25.9524
27.1531
28.392
29.671
30.9914
32.354
33.7597
35.2093
36.7034
38.2427
39.8279
41.4597
43.1386
44.8653
46.6402
48.4637
50.3365
52.2587
54.2308
56.253
58.3255
60.4483
62.6217
64.8454
67.1195
69.4436
71.8176
74.241
76.7134
79.2342
81.8027
84.4181
87.0795
89.786
92.5363
95.3294
98.1638
101.038
103.951
106.9
109.884
112.902
115.95
119.028
122.132
125.26
128.411
131.582
134.771
137.975
141.191
144.418
147.654
150.896
154.142
157.392
160.644
163.897
167.148
170.388
173.607
176.796
179.947
183.057
186.119
189.13
192.083
194.974
197.797
200.549
203.223
205.815
208.32
210.734
213.051
215.269
217.382
219.387
221.28
223.057
224.715
226.251
227.663
228.947
230.101
231.124
232.013
232.768
233.386
233.868
234.213
234.421
234.492
234.426
234.224
233.887
233.417
232.816
232.085
231.227
230.245
229.14
227.918
226.579
225.129
223.571
221.91
220.149
218.291
216.343
214.31
212.193
210
207.735
205.402
203.006
200.556
198.042
195.493
192.907
190.288
187.648
184.988
182.328
179.694
177.131
174.66
172.238
169.842
167.462
165.096
162.744
160.409
158.095
155.806
153.549
151.336
149.184
147.131
145.257
143.688
142.887
7.3441
3.62128
3.04779
2.96092
3.0461
3.22769
3.48008
3.79205
4.15652
4.56688
5.01575
5.49514
5.9972
6.51508
7.04366
7.57984
8.1226
8.67267
9.23224
9.80446
10.393
11.0018
11.6341
12.2931
12.9809
13.6989
14.4484
15.2308
16.0473
16.8986
17.7856
18.7083
19.6667
20.6603
21.6887
22.7513
23.8478
24.9782
26.1438
27.3466
28.5883
29.8702
31.1936
32.5595
33.9688
35.4223
36.921
38.4657
40.0572
41.6963
43.3839
45.1207
46.9074
48.7448
50.6334
52.5741
54.5672
56.6134
58.7131
60.8667
63.0745
65.3367
67.6535
70.025
72.451
74.9314
77.466
80.0544
82.696
85.3903
88.1365
90.9337
93.7809
96.6769
99.6204
102.61
105.644
108.721
111.839
114.996
118.19
121.419
124.68
127.972
131.291
134.635
138.002
141.389
144.794
148.213
151.644
155.085
158.533
161.986
165.44
168.894
172.338
175.764
179.163
182.529
185.856
189.138
192.369
195.544
198.657
201.703
204.677
207.572
210.383
213.105
215.733
218.262
220.687
223.004
225.207
227.293
229.257
231.096
232.807
234.385
235.829
237.135
238.302
239.326
240.208
240.944
241.535
241.979
242.276
242.427
242.431
242.29
242.004
241.576
241.006
240.297
239.451
238.47
237.359
236.12
234.758
233.274
231.674
229.962
228.143
226.22
224.198
222.084
219.882
217.595
215.228
212.793
210.287
207.715
205.098
202.429
199.72
196.977
194.203
191.407
188.594
185.778
182.976
180.213
177.501
174.826
172.176
169.546
166.936
164.347
161.782
159.246
156.744
154.286
151.886
149.566
147.366
145.366
143.665
142.516
9.21654
4.47839
3.68064
3.50988
3.55324
3.70899
3.9415
4.23488
4.57987
4.96917
5.39575
5.85257
6.33287
6.83079
7.3419
7.86343
8.39438
8.93529
9.48793
10.0549
10.6394
11.2446
11.8736
12.5291
13.2134
13.9284
14.6753
15.4555
16.2698
17.1191
18.0038
18.9243
19.8809
20.8737
21.9031
22.9692
24.0726
25.2137
26.3936
27.6132
28.8738
30.1765
31.5226
32.9131
34.3491
35.8317
37.362
38.9411
40.5701
42.25
43.982
45.7672
47.6064
49.5009
51.4516
53.4595
55.5254
57.6502
59.8348
62.0798
64.3859
66.7536
69.1834
71.6756
74.2303
76.8478
79.528
82.2706
85.0753
87.9417
90.869
93.8565
96.9032
100.008
103.169
106.386
109.656
112.977
116.348
119.767
123.231
126.738
130.285
133.869
137.488
141.138
144.818
148.523
152.25
155.997
159.759
163.534
167.318
171.108
174.899
178.687
182.458
186.205
189.92
193.599
197.233
200.817
204.344
207.808
211.203
214.522
217.76
220.909
223.964
226.919
229.768
232.506
235.126
237.625
239.997
242.237
244.34
246.304
248.123
249.794
251.315
252.683
253.895
254.949
255.844
256.578
257.15
257.56
257.808
257.894
257.819
257.584
257.19
256.639
255.934
255.078
254.072
252.92
251.626
250.195
248.629
246.934
245.114
243.173
241.118
238.954
236.684
234.315
231.857
229.309
226.673
223.974
221.207
218.377
215.496
212.566
209.595
206.59
203.555
200.499
197.427
194.351
191.283
188.238
185.226
182.244
179.288
176.356
173.449
170.569
167.722
164.911
162.145
159.434
156.793
154.249
151.839
149.634
147.703
146.186
10.8696
5.23154
4.24127
3.99623
4.00042
4.12988
4.34045
4.61233
4.93443
5.29895
5.69919
6.12899
6.58267
7.05542
7.54362
8.04505
8.55892
9.08574
9.62706
10.1852
10.7627
11.3625
11.9873
12.6395
13.3212
14.0342
14.7799
15.5596
16.374
17.2241
18.1106
19.0339
19.9947
20.9936
22.0311
23.1079
24.2247
25.3824
26.5818
27.8239
29.11
30.4412
31.8187
33.2439
34.718
36.2424
37.8185
39.4477
41.1313
42.8709
44.6679
46.5236
48.4396
50.4174
52.4581
54.5634
56.7344
58.9724
61.2786
63.6542
66.1
68.6171
71.2062
73.8679
76.6028
79.4113
82.2934
85.2492
88.2786
91.3812
94.5563
97.8032
101.121
104.508
107.963
111.485
115.072
118.721
122.43
126.197
130.019
133.893
137.816
141.786
145.798
149.849
153.936
158.055
162.202
166.373
170.564
174.77
178.987
183.211
187.436
191.651
195.842
200.005
204.131
208.214
212.246
216.22
220.129
223.965
227.722
231.392
234.968
238.443
241.81
245.063
248.194
251.198
254.068
256.799
259.385
261.821
264.102
266.223
268.18
269.97
271.59
273.036
274.306
275.398
276.311
277.043
277.593
277.962
278.149
278.156
277.982
277.631
277.103
276.401
275.529
274.489
273.285
271.92
270.398
268.727
266.91
264.951
262.856
260.629
258.282
255.818
253.237
250.55
247.773
244.905
241.951
238.924
235.828
232.67
229.457
226.195
222.893
219.555
216.19
212.803
209.403
205.998
202.598
199.215
195.856
192.525
189.221
185.945
182.701
179.491
176.321
173.196
170.127
167.123
164.202
161.39
158.724
156.259
154.043
152.153
12.1915
5.8589
4.71146
4.40286
4.37153
4.47545
4.66353
4.91276
5.21065
5.54904
5.92165
6.3231
6.74874
7.19475
7.65832
8.13778
8.63262
9.14334
9.67133
10.2185
10.7872
11.3798
11.9987
12.646
13.3238
14.0335
14.7768
15.5548
16.3686
17.2192
18.1074
19.0341
20.0001
21.0062
22.0533
23.1423
24.2743
25.4501
26.671
27.9381
29.2527
30.6161
32.0298
33.4954
35.0145
36.5887
38.2197
39.9094
41.6595
43.472
45.3485
47.2912
49.3018
51.3823
53.5345
55.7602
58.0613
60.4394
62.8962
65.4333
68.052
70.7537
73.5395
76.4104
79.3674
82.4109
85.5414
88.7591
92.064
95.4557
98.9339
102.498
106.146
109.877
113.69
117.583
121.553
125.598
129.715
133.902
138.155
142.471
146.847
151.278
155.761
160.291
164.864
169.476
174.121
178.796
183.494
188.21
192.939
197.676
202.413
207.128
211.814
216.466
221.074
225.63
230.128
234.557
238.911
243.179
247.355
251.43
255.396
259.245
262.969
266.561
270.013
273.318
276.47
279.462
282.287
284.941
287.417
289.711
291.818
293.735
295.458
296.984
298.31
299.436
300.358
301.077
301.592
301.902
302.008
301.912
301.615
301.12
300.427
299.542
298.467
297.208
295.767
294.149
292.357
290.401
288.288
286.021
283.602
281.039
278.351
275.538
272.604
269.56
266.415
263.175
259.847
256.441
252.963
249.421
245.823
242.176
238.487
234.765
231.015
227.246
223.465
219.68
215.9
212.134
208.391
204.675
200.989
197.337
193.721
190.148
186.623
183.153
179.748
176.42
173.187
170.074
167.112
164.349
161.811
159.546
13.2367
6.3651
5.08806
4.72457
4.66097
4.74061
4.90664
5.13347
5.40751
5.72038
6.06613
6.44011
6.83852
7.25841
7.69768
8.15514
8.63051
9.12432
9.63777
10.1725
10.7306
11.314
11.9248
12.5651
13.2366
13.9409
14.6796
15.454
16.2654
17.1149
18.0036
18.9326
19.903
20.9158
21.9723
23.0736
24.221
25.4157
26.6591
27.9527
29.298
30.6967
32.1505
33.6614
35.2313
36.8623
38.5564
40.316
42.1434
44.0407
46.0106
48.0552
50.1772
52.3788
54.6626
57.0307
59.4857
62.0296
64.6647
67.3929
70.2162
73.1363
76.1548
79.273
82.4921
85.8129
89.2362
92.7623
96.3912
100.123
103.957
107.892
111.927
116.06
120.29
124.615
129.031
133.536
138.127
142.8
147.552
152.378
157.273
162.235
167.257
172.336
177.464
182.639
187.852
193.1
198.375
203.67
208.98
214.298
219.604
224.88
230.121
235.318
240.463
245.547
250.56
255.492
260.334
265.077
269.71
274.225
278.613
282.865
286.972
290.926
294.718
298.341
301.788
305.05
308.123
310.999
313.672
316.137
318.389
320.424
322.24
323.832
325.2
326.34
327.252
327.935
328.389
328.613
328.61
328.381
327.928
327.254
326.362
325.255
323.94
322.422
320.704
318.791
316.684
314.402
311.949
309.33
306.551
303.62
300.548
297.343
294.012
290.563
287.007
283.35
279.602
275.772
271.868
267.897
263.87
259.794
255.676
251.526
247.35
243.157
238.954
234.749
230.551
226.368
222.209
218.079
213.983
209.926
205.913
201.95
198.044
194.203
190.437
186.76
183.187
179.744
176.458
173.367
170.482
167.839
14.015
6.75284
5.3729
4.9629
4.87038
4.92735
5.07244
5.27802
5.52962
5.8187
6.13958
6.48817
6.86137
7.25689
7.67319
8.10947
8.56567
9.0423
9.54046
10.0616
10.6074
11.1798
11.7806
12.4117
13.0748
13.7716
14.5038
15.2728
16.0801
16.9271
17.8151
18.7455
19.7196
20.739
21.8049
22.919
24.0827
25.2977
26.5657
27.8885
29.268
30.7064
32.2056
33.7682
35.3964
37.0929
38.8603
40.7012
42.6187
44.6155
46.6947
48.8592
51.112
53.4562
55.8948
58.4306
61.0666
63.8056
66.6503
69.6031
72.6665
75.8427
79.1336
82.541
86.0662
89.7104
93.4745
97.359
101.364
105.489
109.734
114.097
118.577
123.173
127.881
132.7
137.626
142.655
147.784
153.008
158.323
163.724
169.206
174.763
180.389
186.08
191.829
197.629
203.474
209.356
215.269
221.204
227.153
233.105
239.026
244.91
250.749
256.534
262.255
267.901
273.462
278.927
284.283
289.522
294.632
299.603
304.426
309.09
313.585
317.903
322.035
325.973
329.708
333.232
336.54
339.624
342.477
345.093
347.467
349.597
351.479
353.11
354.488
355.611
356.479
357.091
357.447
357.548
357.397
356.995
356.346
355.453
354.317
352.946
351.348
349.528
347.49
345.241
342.787
340.14
337.307
334.296
331.114
327.77
324.276
320.639
316.869
312.975
308.967
304.855
300.648
296.356
291.987
287.552
283.059
278.518
273.936
269.324
264.688
260.038
255.381
250.726
246.081
241.454
236.853
232.285
227.757
223.275
218.844
214.471
210.164
205.932
201.785
197.737
193.805
190.01
186.377
182.936
179.688
176.664
14.5443
7.0291
5.57217
5.12408
5.00618
5.04242
5.1681
5.35404
5.58513
5.85269
6.15123
6.47705
6.82756
7.20096
7.59613
8.01257
8.45035
8.91004
9.39264
9.89947
10.4321
10.9922
11.5817
12.2022
12.8557
13.5439
14.2685
15.0313
15.834
16.6782
17.5656
18.4978
19.4767
20.5039
21.5813
22.7107
23.894
25.1333
26.4307
27.7885
29.2092
30.6951
32.249
33.8738
35.5723
37.3478
39.2035
41.1427
43.1689
45.2858
47.4968
49.8056
52.216
54.7316
57.356
60.0928
62.9454
65.9172
69.0115
72.2313
75.5794
79.0585
82.6708
86.4184
90.3029
94.3256
98.4875
102.789
107.23
111.81
116.529
121.385
126.375
131.499
136.752
142.131
147.634
153.254
158.988
164.829
170.773
176.813
182.944
189.159
195.451
201.814
208.241
214.724
221.255
227.827
234.43
241.056
247.695
254.304
260.874
267.395
273.859
280.254
286.57
292.794
298.915
304.919
310.794
316.528
322.111
327.53
332.776
337.837
342.704
347.366
351.814
356.039
360.033
363.788
367.297
370.554
373.548
376.275
378.731
380.912
382.816
384.439
385.781
386.84
387.616
388.109
388.318
388.246
387.896
387.272
386.378
385.217
383.794
382.116
380.19
378.023
375.622
372.994
370.148
367.093
363.839
360.395
356.77
352.974
349.018
344.912
340.666
336.292
331.798
327.197
322.498
317.711
312.848
307.917
302.93
297.895
292.823
287.722
282.602
277.47
272.336
267.208
262.094
257.003
251.943
246.921
241.945
237.022
232.158
227.361
222.639
218.001
213.46
209.027
204.721
200.559
196.563
192.757
189.136
185.73
14.85
7.20462
5.69515
5.21731
5.07777
5.09545
5.20348
5.37163
5.58436
5.83285
6.11176
6.41765
6.74825
7.1021
7.47837
7.87678
8.29751
8.74119
9.20878
9.70158
10.2211
10.769
11.347
11.9571
12.6012
13.2813
13.9992
14.757
15.5567
16.4003
17.2898
18.2273
19.2149
20.2548
21.3493
22.5006
23.7113
24.9838
26.3209
27.7253
29.2
30.7482
32.3732
34.0784
35.8675
37.7443
39.7128
41.777
43.9411
46.2095
48.5865
51.0766
53.684
56.4131
59.2682
62.2534
65.3728
68.6302
72.0294
75.574
79.2671
83.1116
87.11
91.2646
95.5769
100.048
104.68
109.471
114.422
119.532
124.8
130.223
135.799
141.525
147.397
153.411
159.562
165.845
172.254
178.781
185.419
192.162
199.003
205.934
212.947
220.036
227.191
234.405
241.668
248.972
256.306
263.662
270.991
278.275
285.505
292.67
299.76
306.762
313.665
320.455
327.12
333.644
340.012
346.213
352.234
358.065
363.693
369.108
374.299
379.255
383.967
388.426
392.622
396.549
400.2
403.57
406.645
409.419
411.892
414.06
415.92
417.471
418.712
419.643
420.262
420.572
420.574
420.27
419.665
418.762
417.566
416.083
414.319
412.281
409.977
407.415
404.603
401.551
398.266
394.76
391.044
387.127
383.02
378.735
374.282
369.674
364.92
360.034
355.025
349.907
344.689
339.384
334.002
328.554
323.051
317.504
311.921
306.314
300.691
295.062
289.436
283.821
278.226
272.659
267.129
261.645
256.212
250.84
245.536
240.307
235.163
230.113
225.169
220.344
215.654
211.116
206.749
202.571
198.572
194.786
14.9625
7.29245
5.75276
5.25329
5.096
5.09755
5.18993
5.34237
5.53905
5.77113
6.03333
6.32236
6.63616
6.97349
7.3337
7.71668
8.12271
8.55249
9.00704
9.48766
9.9959
10.5335
11.1024
11.7046
12.3423
13.0176
13.7328
14.4903
15.2924
16.1417
17.0406
17.9917
18.9976
20.0612
21.1851
22.3723
23.6258
24.949
26.3451
27.8176
29.3703
31.0071
32.732
34.5493
36.4634
38.479
40.6008
42.8338
45.1829
47.6534
50.2503
52.9788
55.8442
58.8513
62.005
65.3097
68.7699
72.39
76.174
80.1258
84.2486
88.5455
93.0189
97.6708
102.503
107.515
112.709
118.083
123.637
129.369
135.277
141.357
147.607
154.021
160.595
167.324
174.202
181.223
188.378
195.657
203.053
210.556
218.161
225.857
233.637
241.491
249.412
257.389
265.412
273.473
281.561
289.622
297.629
305.572
313.44
321.222
328.904
336.474
343.918
351.224
358.383
365.37
372.168
378.767
385.156
391.323
397.256
402.945
408.377
413.543
418.433
423.037
427.347
431.356
435.056
438.442
441.505
444.24
446.643
448.712
450.446
451.842
452.901
453.623
454.008
454.06
453.78
453.172
452.24
450.991
449.429
447.562
445.396
442.94
440.202
437.191
433.918
430.392
426.624
422.625
418.405
413.978
409.354
404.546
399.565
394.425
389.138
383.715
378.169
372.513
366.759
360.918
355.002
349.023
342.992
336.92
330.818
324.696
318.564
312.431
306.307
300.201
294.121
288.076
282.075
276.126
270.237
264.417
258.672
253.012
247.446
241.984
236.637
231.419
226.344
221.428
216.687
212.136
207.762
203.602
14.9155
7.30676
5.75653
5.24322
5.07231
5.06056
5.13976
5.27901
5.46246
5.68126
5.9302
6.20611
6.50703
6.83185
7.18009
7.55172
7.94717
8.36724
8.81306
9.28606
9.78794
10.3206
10.8863
11.4872
12.1259
12.8049
13.5269
14.2948
15.1115
15.9801
16.9037
17.8856
18.9292
20.0379
21.2152
22.4649
23.7908
25.197
26.6879
28.2677
29.9412
31.7133
33.5888
35.5731
37.6716
39.8897
42.2333
44.708
47.3198
50.0746
52.9784
56.0372
59.2569
62.6431
66.2009
69.934
73.8472
77.945
82.2315
86.7104
91.3848
96.257
101.329
106.602
112.077
117.753
123.63
129.707
135.98
142.447
149.104
155.946
162.969
170.166
177.531
185.057
192.738
200.568
208.54
216.629
224.832
233.139
241.543
250.034
258.603
267.24
275.937
284.683
293.465
302.279
311.051
319.756
328.385
336.923
345.36
353.681
361.872
369.919
377.809
385.528
393.061
400.392
407.505
414.388
421.027
427.412
433.529
439.369
444.919
450.171
455.115
459.741
464.041
468.01
471.639
474.923
477.856
480.435
482.654
484.514
486.011
487.147
487.921
488.335
488.391
488.092
487.441
486.443
485.104
483.43
481.428
479.105
476.471
473.533
470.303
466.789
463.003
458.956
454.66
450.125
445.366
440.394
435.222
429.864
424.331
418.638
412.797
406.822
400.725
394.52
388.219
381.835
375.38
368.866
362.306
355.71
349.089
342.454
335.816
329.184
322.568
315.976
309.418
302.903
296.439
290.034
283.698
277.438
271.263
265.181
259.202
253.335
247.593
241.989
236.535
231.247
226.138
221.221
216.481
211.957
14.7449
7.26182
5.71784
5.19828
5.01845
4.99706
5.06653
5.19622
5.37041
5.58035
5.82092
6.08901
6.38279
6.70125
7.04402
7.41126
7.80353
8.22183
8.6675
9.14225
9.64805
10.1872
10.7623
11.376
12.0314
12.7316
13.4799
14.28
15.1356
16.0507
17.0292
18.0755
19.194
20.3893
21.666
23.0285
24.482
26.0317
27.6831
29.442
31.3142
33.3056
35.4225
37.6713
40.0582
42.5899
45.273
48.1141
51.1197
54.2965
57.6509
61.1893
64.9184
68.8451
72.9749
77.3054
81.8427
86.5913
91.5547
96.7355
102.136
107.756
113.597
119.659
125.94
132.438
139.151
146.074
153.204
160.536
168.063
175.78
183.678
191.75
199.987
208.381
216.923
225.603
234.41
243.331
252.355
261.472
270.672
279.946
289.283
298.676
308.113
317.589
327.072
336.483
345.814
355.05
364.176
373.179
382.044
390.758
399.307
407.675
415.85
423.816
431.559
439.066
446.321
453.312
460.025
466.451
472.577
478.392
483.887
489.052
493.878
498.358
502.484
506.249
509.648
512.677
515.329
517.603
519.496
521.007
522.135
522.882
523.248
523.236
522.848
522.09
520.966
519.482
517.643
515.458
512.935
510.082
506.909
503.425
499.642
495.57
491.222
486.609
481.744
476.639
471.308
465.765
460.022
454.093
447.993
441.734
435.331
428.798
422.147
415.393
408.548
401.625
394.638
387.599
380.519
373.411
366.285
359.153
352.024
344.91
337.818
330.76
323.743
316.776
309.869
303.029
296.266
289.586
283
276.515
270.141
263.888
257.768
251.792
245.975
240.329
234.866
229.597
224.506
219.636
14.4759
7.16807
5.64561
5.12798
4.94517
4.91949
4.98466
5.11064
5.28203
5.4903
5.73046
5.99955
6.2959
6.61866
6.96771
7.34344
7.74675
8.17899
8.64193
9.13775
9.66898
10.2386
10.8498
11.5063
12.2121
12.9709
13.7872
14.6659
15.6119
16.6307
17.7277
18.909
20.1806
21.5495
23.0219
24.6018
26.2968
28.1139
30.0606
32.144
34.3716
36.7507
39.2888
41.9933
44.8715
47.9307
51.1779
54.6201
58.2637
62.1151
66.1802
70.4645
74.9729
79.71
84.6788
89.8806
95.3174
100.991
106.901
113.049
119.434
126.053
132.905
139.985
147.29
154.815
162.554
170.501
178.649
186.989
195.514
204.214
213.08
222.101
231.268
240.57
249.996
259.535
269.175
278.904
288.711
298.586
308.518
318.499
328.519
338.571
348.643
358.656
368.571
378.376
388.059
397.604
406.999
416.229
425.28
434.139
442.793
451.226
459.427
467.381
475.075
482.497
489.633
496.472
503.002
509.213
515.094
520.636
525.829
530.666
535.139
539.241
542.966
546.309
549.264
551.83
554.001
555.778
557.157
558.14
558.726
558.919
558.719
558.131
557.159
555.808
554.083
551.992
549.543
546.742
543.601
540.127
536.332
532.226
527.82
523.128
518.16
512.931
507.452
501.738
495.802
489.659
483.322
476.805
470.123
463.289
456.319
449.225
442.022
434.723
427.342
419.892
412.386
404.836
397.255
389.653
382.043
374.435
366.84
359.267
351.727
344.227
336.777
329.387
322.063
314.815
307.651
300.578
293.607
286.745
280.001
273.386
266.91
260.586
254.426
248.442
242.644
237.044
231.623
226.428
14.1874
7.05437
5.56199
5.05498
4.87815
4.85778
4.92917
5.06305
5.2445
5.4653
5.72076
6.00825
6.32643
6.67491
7.05405
7.46482
7.9088
8.38809
8.90534
9.46374
10.0668
10.7185
11.4237
12.1882
13.0184
13.9171
14.8916
15.9489
17.0966
18.3423
19.694
21.16
22.7489
24.4694
26.3302
28.3395
30.5063
32.8396
35.3485
38.0418
40.9279
44.0152
47.3115
50.8243
54.5605
58.5263
62.7276
67.1692
71.8555
76.7899
81.9752
87.4133
93.1052
99.0509
105.249
111.699
118.396
125.338
132.521
139.94
147.59
155.465
163.558
171.861
180.367
189.067
197.953
207.014
216.241
225.625
235.154
244.818
254.605
264.505
274.508
284.6
294.773
305.014
315.314
325.661
336.044
346.46
356.894
367.346
377.8
388.18
398.433
408.558
418.541
428.368
438.026
447.504
456.787
465.863
474.72
483.346
491.728
499.853
507.712
515.29
522.578
529.564
536.236
542.586
548.602
554.276
559.599
564.563
569.16
573.384
577.228
580.688
583.757
586.433
588.712
590.592
592.07
593.147
593.822
594.096
593.972
593.451
592.537
591.235
589.55
587.487
585.055
582.259
579.109
575.614
571.783
567.627
563.156
558.382
553.317
547.973
542.364
536.502
530.401
524.075
517.537
510.802
503.885
496.798
489.557
482.176
474.67
467.051
459.333
451.531
443.658
435.726
427.749
419.738
411.706
403.664
395.623
387.594
379.586
371.61
363.674
355.788
347.961
340.199
332.512
324.908
317.395
309.98
302.673
295.481
288.413
281.48
274.692
268.06
261.595
255.31
249.214
243.317
237.602
232.116
13.9261
6.94087
5.48647
5.00201
4.84497
4.84543
4.94035
5.10138
5.31427
5.57142
5.86879
6.20451
6.57811
6.99023
7.44238
7.93685
8.47666
9.06557
9.70781
10.4096
11.1753
12.0104
12.9229
13.9214
15.0144
16.2108
17.5204
18.9537
20.5219
22.2362
24.1084
26.1504
28.374
30.7908
33.4123
36.2491
39.3119
42.6103
46.1534
49.9495
54.0054
58.3271
62.9194
67.7857
72.9282
78.3479
84.0445
90.0166
96.2614
102.776
109.554
116.592
123.882
131.418
139.191
147.193
155.416
163.849
172.484
181.31
190.319
199.499
208.841
218.334
227.968
237.732
247.617
257.612
267.706
277.89
288.152
298.485
308.876
319.317
329.798
340.312
350.848
361.398
371.958
382.516
393.059
403.615
414.127
424.527
434.773
444.869
454.8
464.557
474.128
483.504
492.673
501.624
510.346
518.83
527.064
535.038
542.742
550.166
557.3
564.133
570.657
576.862
582.74
588.281
593.478
598.322
602.807
606.927
610.675
614.045
617.034
619.636
621.848
623.668
625.093
626.123
626.755