/*--------------------------------*- C++ -*----------------------------------*\
  =========                 |
  \\      /  F ield         | OpenFOAM: The Open Source CFD Toolbox
   \\    /   O peration     | Website:  https://openfoam.org
    \\  /    A nd           | Version:  12
     \\/     M anipulation  |
\*---------------------------------------------------------------------------*/
FoamFile
{
    format      ascii;
    class       volScalarField;
    location    "0.12";
    object      k;
}
// * * * * * * * * * * * * * * * * * * * * * * * * * * * * * * * * * * * * * //

dimensions      [0 2 -2 0 0 0 0];

internalField   nonuniform List<scalar> 
12225
(
0.353921
0.335043
0.316966
0.300961
0.288126
0.278909
0.273302
0.271009
0.271576
0.274485
0.279224
0.285322
0.292374
0.300045
0.308082
0.316272
0.324676
0.33687
0.436865
0.44898
0.438087
0.433065
0.438796
0.453602
0.474825
0.500019
0.527194
0.554867
0.58201
0.607959
0.632339
0.654978
0.675999
0.6953
0.715115
0.730548
0.395187
0.410873
0.410631
0.405747
0.402012
0.400927
0.40262
0.406817
0.413097
0.421002
0.430099
0.440009
0.450423
0.461101
0.471908
0.482741
0.493924
0.504798
0.379641
0.38484
0.386546
0.38573
0.383905
0.382027
0.380568
0.379741
0.37961
0.380154
0.381311
0.383001
0.385141
0.387658
0.390502
0.393643
0.39711
0.400803
0.374976
0.3759
0.376239
0.375721
0.37457
0.373083
0.371496
0.369967
0.368594
0.367427
0.366487
0.365772
0.365275
0.364979
0.364875
0.364954
0.365214
0.365626
0.373488
0.372554
0.371759
0.370807
0.369631
0.368275
0.366808
0.365299
0.363802
0.362357
0.360989
0.359713
0.358537
0.357463
0.356492
0.355625
0.354861
0.354195
0.373012
0.371296
0.369813
0.368416
0.367025
0.36561
0.364167
0.36271
0.361256
0.359822
0.358423
0.35707
0.355771
0.35453
0.353352
0.352239
0.351193
0.350221
0.372865
0.370838
0.369004
0.36731
0.365711
0.364173
0.362678
0.361215
0.359781
0.358379
0.357012
0.355684
0.354398
0.353157
0.351962
0.350817
0.349724
0.348693
0.37282
0.37068
0.368691
0.366836
0.365095
0.363448
0.361879
0.360375
0.358926
0.357529
0.356179
0.354876
0.353618
0.352404
0.351235
0.350112
0.349035
0.348017
0.372806
0.370628
0.368578
0.366648
0.364828
0.36311
0.361481
0.359933
0.358456
0.357043
0.355691
0.354393
0.353149
0.351953
0.350806
0.349706
0.348653
0.347657
0.372801
0.370609
0.368537
0.366576
0.36472
0.362963
0.361298
0.359717
0.358214
0.356783
0.355418
0.354115
0.35287
0.35168
0.350542
0.349454
0.348415
0.347434
0.372799
0.370602
0.368522
0.366549
0.36468
0.362907
0.361224
0.359626
0.358107
0.356662
0.355286
0.353976
0.352726
0.351533
0.350396
0.34931
0.348275
0.347299
0.372797
0.370599
0.368514
0.366537
0.36466
0.362879
0.361188
0.35958
0.358052
0.356598
0.355214
0.353897
0.352641
0.351445
0.350305
0.349217
0.348181
0.347206
0.372796
0.370596
0.368509
0.366528
0.364649
0.362863
0.361167
0.359555
0.358021
0.356562
0.355172
0.35385
0.35259
0.351389
0.350245
0.349155
0.348116
0.347139
0.372795
0.370593
0.368505
0.366523
0.364641
0.362853
0.361154
0.359539
0.358002
0.35654
0.355147
0.353822
0.352559
0.351355
0.350208
0.349114
0.348073
0.347093
0.372795
0.370592
0.368502
0.366518
0.364634
0.362845
0.361144
0.359527
0.357989
0.356525
0.355131
0.353803
0.352538
0.351332
0.350183
0.349087
0.348043
0.347061
0.372794
0.37059
0.368499
0.366515
0.36463
0.362839
0.361137
0.359519
0.357979
0.356513
0.355118
0.353789
0.352523
0.351316
0.350165
0.349067
0.348022
0.347038
0.372794
0.37059
0.368498
0.366512
0.364627
0.362835
0.361132
0.359513
0.357972
0.356506
0.355109
0.353779
0.352512
0.351304
0.350152
0.349053
0.348006
0.347021
0.372793
0.370589
0.368497
0.366512
0.364626
0.362834
0.361131
0.359511
0.35797
0.356503
0.355106
0.353775
0.352507
0.351298
0.350146
0.349046
0.347999
0.347012
0.372794
0.37059
0.368498
0.366513
0.364628
0.362836
0.361134
0.359514
0.357973
0.356507
0.35511
0.35378
0.352512
0.351303
0.350151
0.349051
0.348004
0.347017
0.372794
0.370591
0.3685
0.366516
0.364632
0.362842
0.36114
0.359522
0.357983
0.356518
0.355123
0.353794
0.352528
0.351321
0.350169
0.349072
0.348025
0.34704
0.372795
0.370593
0.368504
0.366522
0.364642
0.362856
0.361159
0.359546
0.358012
0.356553
0.355164
0.35384
0.352579
0.351377
0.350231
0.349137
0.348094
0.347111
0.372796
0.370598
0.368518
0.366547
0.364681
0.362913
0.361235
0.359642
0.358128
0.356686
0.355312
0.354002
0.352752
0.351558
0.350417
0.349326
0.348284
0.347301
0.372804
0.370631
0.368592
0.366676
0.364872
0.363167
0.361548
0.360006
0.358533
0.357122
0.355768
0.354468
0.35322
0.352021
0.35087
0.349764
0.348704
0.3477
0.372856
0.370818
0.368973
0.367264
0.365645
0.364085
0.362567
0.361083
0.359632
0.358214
0.356834
0.355494
0.354198
0.352948
0.351745
0.350592
0.349489
0.348447
0.373166
0.37177
0.370579
0.369371
0.368049
0.366605
0.365072
0.363493
0.361906
0.360343
0.358827
0.357373
0.355992
0.354689
0.353469
0.35233
0.351272
0.350303
0.374797
0.375829
0.376175
0.375401
0.373834
0.371876
0.369792
0.36774
0.365813
0.364066
0.362523
0.361193
0.360074
0.359154
0.358421
0.35786
0.357452
0.357184
0.382729
0.391671
0.392375
0.388806
0.384384
0.380403
0.377247
0.374996
0.373618
0.373034
0.373147
0.373858
0.375073
0.376703
0.378669
0.380902
0.383341
0.385918
0.407499
0.414513
0.405422
0.395991
0.390552
0.389287
0.391447
0.396203
0.402819
0.410702
0.419403
0.428581
0.437981
0.447416
0.45675
0.465889
0.474787
0.483359
0.360554
0.347547
0.334933
0.322917
0.311965
0.302352
0.294189
0.287469
0.282113
0.278001
0.274996
0.27296
0.271758
0.271263
0.271363
0.271956
0.272955
0.274278
0.00259041
0.0111092
0.0170271
0.0220857
0.0268428
0.0319092
0.0375558
0.043918
0.0511509
0.0593709
0.0679985
0.0766907
0.0852375
0.0934539
0.101193
0.10835
0.114851
0.120654
0.125733
0.130081
0.1337
0.136593
0.138748
0.140175
0.141029
0.141701
0.142452
0.142546
0.140723
0.143327
0.143421
0.143858
0.142884
0.142701
0.143484
0.145127
0.144033
0.149868
0.156168
0.162669
0.169332
0.176144
0.1831
0.190197
0.197433
0.204811
0.212332
0.219997
0.227808
0.235766
0.243873
0.25213
0.260537
0.269093
0.277799
0.286654
0.295655
0.304801
0.314089
0.323518
0.333082
0.342779
0.352604
0.362553
0.37262
0.382801
0.393089
0.403477
0.413961
0.424532
0.435185
0.44591
0.456701
0.46755
0.478449
0.48939
0.500363
0.511361
0.522375
0.533395
0.544414
0.55542
0.566407
0.577363
0.58828
0.599147
0.609955
0.620694
0.631354
0.641924
0.652394
0.662754
0.672994
0.683106
0.693085
0.702932
0.712659
0.722298
0.73185
0.741184
0.750301
0.759198
0.767868
0.7763
0.784482
0.792403
0.800053
0.80742
0.814493
0.821263
0.82772
0.833853
0.839656
0.845118
0.850231
0.85499
0.859385
0.863412
0.867065
0.870338
0.873227
0.875728
0.877838
0.879554
0.880875
0.881798
0.882324
0.882453
0.882186
0.881524
0.88047
0.879026
0.877196
0.874985
0.872398
0.86944
0.866118
0.862438
0.858409
0.854038
0.849335
0.844308
0.838968
0.833324
0.827388
0.821171
0.814684
0.807939
0.800948
0.793724
0.78628
0.778628
0.770782
0.762755
0.754561
0.746209
0.737722
0.729104
0.720375
0.71156
0.702624
0.693695
0.684861
0.677903
0.673706
0.669678
0.665622
0.661529
0.657403
0.653248
0.649068
0.64486
0.640618
0.63632
0.631922
0.627327
0.622307
0.61627
0.607676
0.590811
0.00663808
0.0220301
0.031942
0.0397355
0.046843
0.053746
0.0608277
0.0682488
0.0761834
0.084643
0.0934789
0.102484
0.111457
0.120223
0.128648
0.136638
0.144136
0.151115
0.157574
0.163535
0.169035
0.174121
0.178854
0.183364
0.187895
0.192686
0.19777
0.203074
0.209134
0.215108
0.221827
0.229014
0.237087
0.244916
0.254225
0.265261
0.276591
0.287537
0.298205
0.309148
0.320401
0.331943
0.343759
0.35584
0.368183
0.38079
0.393663
0.406805
0.420221
0.433913
0.447885
0.462142
0.476684
0.491515
0.506637
0.52205
0.537754
0.553749
0.570035
0.586609
0.603468
0.620611
0.638032
0.655726
0.67369
0.691915
0.710396
0.729125
0.748093
0.767293
0.786713
0.806345
0.826177
0.846199
0.866398
0.886762
0.907279
0.927936
0.948718
0.969613
0.990606
1.01168
1.03283
1.05403
1.07526
1.09652
1.11779
1.13905
1.16028
1.18147
1.2026
1.22365
1.2446
1.26545
1.28615
1.30671
1.32708
1.34724
1.36693
1.38634
1.40546
1.42429
1.4428
1.46098
1.4788
1.49623
1.51327
1.52988
1.54605
1.56174
1.57695
1.59165
1.60583
1.61945
1.63251
1.64499
1.65687
1.66813
1.67877
1.68876
1.69809
1.70676
1.71475
1.72204
1.72865
1.73454
1.73973
1.7442
1.74795
1.75098
1.75328
1.75486
1.75573
1.75587
1.75529
1.75401
1.75202
1.74934
1.74597
1.74192
1.73721
1.73184
1.72584
1.71921
1.71198
1.70415
1.69575
1.68679
1.67729
1.66728
1.65677
1.64579
1.63436
1.62249
1.61022
1.59756
1.58455
1.5712
1.55753
1.54362
1.52931
1.51496
1.50052
1.48632
1.47251
1.45867
1.44473
1.43072
1.41663
1.4025
1.38833
1.37413
1.35992
1.34569
1.33143
1.31709
1.30256
1.28777
1.27151
1.25082
0.0120372
0.0337621
0.0466628
0.0564511
0.064985
0.0729944
0.0809559
0.0891427
0.0977005
0.106656
0.115934
0.1254
0.1349
0.144292
0.153466
0.162346
0.170897
0.179114
0.187026
0.194684
0.202164
0.209556
0.216961
0.22451
0.232347
0.240579
0.249234
0.25833
0.267946
0.278035
0.288684
0.299879
0.311645
0.323923
0.336817
0.350275
0.36409
0.378063
0.392197
0.406608
0.42134
0.4364
0.45179
0.467508
0.483558
0.49994
0.51666
0.533721
0.551127
0.568881
0.586989
0.605453
0.624275
0.643457
0.663001
0.682907
0.703175
0.723803
0.74479
0.766133
0.787827
0.809868
0.832251
0.854969
0.878015
0.90138
0.925056
0.949033
0.9733
0.997845
1.02266
1.04772
1.07303
1.09856
1.1243
1.15024
1.17635
1.20263
1.22906
1.25561
1.28227
1.30902
1.33585
1.36273
1.38965
1.41658
1.4435
1.4704
1.49726
1.52405
1.55076
1.57736
1.60384
1.63017
1.65634
1.68232
1.70811
1.73354
1.75863
1.78339
1.80779
1.83181
1.85544
1.87863
1.90137
1.92362
1.94535
1.96653
1.98715
2.00716
2.02655
2.04528
2.06334
2.08069
2.09732
2.1132
2.12831
2.14263
2.15614
2.16883
2.18067
2.19165
2.20177
2.211
2.21933
2.22676
2.23327
2.23887
2.24355
2.2473
2.25012
2.25201
2.25298
2.25303
2.25216
2.25038
2.2477
2.24413
2.23968
2.23437
2.2282
2.2212
2.21338
2.20476
2.19537
2.18522
2.17433
2.16274
2.15045
2.13751
2.12393
2.10975
2.09499
2.07968
2.06386
2.04752
2.03075
2.01352
1.9959
1.97801
1.95979
1.94136
1.92278
1.90422
1.88576
1.86723
1.8486
1.82987
1.81106
1.7922
1.77331
1.75442
1.73553
1.71669
1.69791
1.67922
1.66063
1.64228
1.62371
1.60473
0.0186582
0.0459742
0.0611689
0.07234
0.0818494
0.090669
0.0992971
0.108026
0.117015
0.126322
0.135918
0.145718
0.155612
0.165493
0.175274
0.184899
0.194347
0.203629
0.212785
0.221878
0.23099
0.240212
0.24964
0.259373
0.269502
0.280094
0.291179
0.302775
0.3149
0.327563
0.340765
0.3545
0.368756
0.383507
0.398735
0.4144
0.430441
0.44679
0.46343
0.480385
0.497676
0.515319
0.533323
0.551694
0.570439
0.589563
0.609072
0.628972
0.649269
0.669967
0.691071
0.712584
0.734511
0.756854
0.779614
0.802793
0.82639
0.850405
0.874836
0.89968
0.924933
0.95059
0.976647
1.00309
1.02993
1.05713
1.08471
1.11263
1.1409
1.1695
1.19841
1.22762
1.25712
1.28689
1.3169
1.34715
1.37762
1.40828
1.43911
1.47009
1.50121
1.53244
1.56376
1.59514
1.62657
1.65802
1.68946
1.72088
1.75225
1.78355
1.81475
1.84583
1.87677
1.90755
1.93814
1.96851
1.99863
2.02836
2.05772
2.08669
2.11525
2.14336
2.171
2.19812
2.2247
2.25071
2.27609
2.30084
2.3249
2.34825
2.37086
2.39269
2.41372
2.43391
2.45325
2.4717
2.48923
2.50583
2.52147
2.53613
2.5498
2.56245
2.57407
2.58464
2.59416
2.60261
2.60998
2.61627
2.62147
2.62558
2.62859
2.63052
2.63135
2.6311
2.62978
2.62738
2.62393
2.61944
2.61391
2.60737
2.59983
2.59132
2.58184
2.57144
2.56013
2.54793
2.53488
2.521
2.50632
2.49087
2.47468
2.4578
2.44023
2.42203
2.40324
2.38382
2.36395
2.34361
2.32285
2.30172
2.28024
2.25848
2.23652
2.21446
2.19237
2.17018
2.14788
2.12547
2.10298
2.08045
2.0579
2.03537
2.01291
1.99055
1.96837
1.94645
1.92492
1.90406
1.88379
1.86445
0.0255507
0.057431
0.0746708
0.0870286
0.0974186
0.106914
0.116062
0.125179
0.134451
0.143966
0.153734
0.163716
0.173843
0.184041
0.19425
0.204432
0.214579
0.224709
0.234867
0.245117
0.255532
0.266196
0.277187
0.288579
0.300434
0.312797
0.325689
0.339121
0.353093
0.367604
0.382643
0.398196
0.414246
0.430771
0.447749
0.465156
0.482964
0.501145
0.519689
0.538598
0.557885
0.577558
0.597629
0.618107
0.638999
0.660315
0.682061
0.704246
0.726877
0.74996
0.7735
0.797505
0.821977
0.846922
0.872342
0.89824
0.924616
0.95147
0.978803
1.00661
1.03489
1.06364
1.09285
1.12252
1.15264
1.18319
1.21418
1.24558
1.27738
1.30957
1.34214
1.37506
1.40833
1.44191
1.4758
1.50996
1.54439
1.57905
1.61392
1.64898
1.6842
1.71956
1.75504
1.7906
1.82622
1.86188
1.89754
1.93318
1.96877
2.00429
2.03971
2.07499
2.11012
2.14507
2.1798
2.2143
2.24842
2.28215
2.31546
2.34832
2.38071
2.4126
2.44393
2.47467
2.50479
2.53424
2.56298
2.59098
2.6182
2.64459
2.67014
2.69478
2.71851
2.74127
2.76305
2.78381
2.80351
2.82214
2.83968
2.85608
2.87135
2.88545
2.89837
2.91009
2.92061
2.9299
2.93796
2.94478
2.95036
2.95469
2.95778
2.95963
2.96023
2.95961
2.95776
2.95469
2.95042
2.94497
2.93835
2.93059
2.92169
2.91169
2.90061
2.88847
2.87532
2.86116
2.84604
2.82999
2.81305
2.79524
2.77658
2.75717
2.73698
2.71606
2.69454
2.6724
2.6497
2.62649
2.60281
2.5787
2.55421
2.52939
2.50432
2.47908
2.45371
2.42822
2.4026
2.37687
2.35107
2.32523
2.29941
2.27363
2.24797
2.2225
2.19731
2.17256
2.14843
2.1253
2.10321
2.08249
0.0320552
0.0676914
0.0866454
0.100151
0.111365
0.121463
0.131043
0.140455
0.149912
0.159532
0.169366
0.179413
0.189643
0.200016
0.210499
0.221073
0.231739
0.242523
0.253465
0.264624
0.276064
0.287851
0.300046
0.312704
0.325867
0.339563
0.353805
0.368598
0.383938
0.399815
0.416218
0.433131
0.45054
0.468427
0.486776
0.505573
0.524802
0.544452
0.564517
0.584998
0.6059
0.627233
0.649006
0.671229
0.693911
0.717063
0.740695
0.764815
0.789433
0.814557
0.840195
0.866354
0.893041
0.920263
0.948022
0.976325
1.00517
1.03457
1.06451
1.095
1.12603
1.1576
1.18971
1.22235
1.25551
1.28919
1.32336
1.35803
1.39316
1.42876
1.4648
1.50127
1.53814
1.57539
1.61301
1.65095
1.68922
1.72776
1.76657
1.8056
1.84484
1.88425
1.9238
1.96347
2.00321
2.04301
2.08283
2.12263
2.16239
2.20208
2.24165
2.28109
2.32035
2.3594
2.39821
2.43674
2.47483
2.51247
2.54965
2.58633
2.62247
2.65803
2.69297
2.72724
2.76079
2.79359
2.82559
2.85675
2.88702
2.91635
2.94472
2.97208
2.99839
3.02362
3.04772
3.07068
3.09245
3.113
3.13231
3.15035
3.16711
3.18255
3.19666
3.20943
3.22084
3.23087
3.23952
3.24678
3.25265
3.25712
3.2602
3.26189
3.26219
3.26111
3.25867
3.25488
3.24975
3.2433
3.23554
3.22652
3.21624
3.20474
3.19203
3.17816
3.16316
3.14707
3.12989
3.11169
3.09252
3.07239
3.05131
3.02943
3.00675
2.98329
2.95915
2.93433
2.9089
2.88292
2.85641
2.82943
2.80204
2.77428
2.74622
2.71793
2.68946
2.66083
2.63206
2.60319
2.57425
2.54529
2.51636
2.48752
2.45885
2.43045
2.40243
2.375
2.34839
2.32297
2.29883
2.27615
0.0377883
0.0763315
0.0968729
0.111439
0.123412
0.134056
0.144015
0.153668
0.163256
0.172927
0.182766
0.192807
0.203059
0.213513
0.22416
0.234997
0.246037
0.257306
0.268843
0.280694
0.292913
0.305549
0.318649
0.332251
0.346383
0.361064
0.376301
0.392096
0.408442
0.425332
0.442753
0.460694
0.479143
0.498087
0.517517
0.537422
0.557797
0.578635
0.599934
0.621698
0.643931
0.666641
0.689839
0.713535
0.737739
0.762465
0.787722
0.813522
0.839878
0.866798
0.894294
0.922375
0.95105
0.980327
1.01021
1.04071
1.07184
1.10358
1.13595
1.16894
1.20256
1.23681
1.27167
1.30714
1.34322
1.3799
1.41715
1.45499
1.49337
1.5323
1.57174
1.61169
1.65211
1.69299
1.7343
1.776
1.81808
1.8605
1.90323
1.94624
1.98949
2.03296
2.0766
2.12038
2.16427
2.20823
2.25222
2.29621
2.34015
2.38403
2.42778
2.47139
2.5148
2.55798
2.60089
2.64342
2.68547
2.72703
2.76807
2.80854
2.84841
2.88763
2.92615
2.96391
3.00087
3.03698
3.07219
3.10645
3.13972
3.17194
3.20308
3.23308
3.26191
3.28953
3.3159
3.34097
3.36473
3.38712
3.40813
3.42773
3.44588
3.46258
3.4778
3.49152
3.50374
3.51443
3.52358
3.5312
3.53727
3.5418
3.54479
3.54625
3.54617
3.54458
3.54148
3.5369
3.53084
3.52333
3.51439
3.50406
3.49236
3.47932
3.46497
3.44933
3.43247
3.41442
3.39518
3.37482
3.35344
3.33104
3.30765
3.28336
3.25821
3.23223
3.2055
3.17805
3.14994
3.12122
3.09194
3.06216
3.03192
3.00128
2.9703
2.93905
2.90758
2.87592
2.84412
2.81221
2.78023
2.74826
2.71634
2.68455
2.65298
2.62174
2.591
2.56096
2.53187
2.5041
2.47768
2.45271
0.0423753
0.0833963
0.105285
0.120772
0.133413
0.144542
0.154837
0.164701
0.174397
0.184099
0.19392
0.203928
0.214161
0.224638
0.235371
0.246375
0.257669
0.269279
0.281239
0.293589
0.306368
0.319614
0.333361
0.347635
0.362456
0.377837
0.393783
0.410293
0.427363
0.444987
0.463155
0.48186
0.501093
0.520846
0.541114
0.561892
0.583178
0.60497
0.627269
0.650081
0.673412
0.697271
0.721669
0.746616
0.772127
0.798215
0.824893
0.852174
0.880072
0.908601
0.937773
0.967601
0.998096
1.02927
1.06113
1.09368
1.12694
1.1609
1.19558
1.23097
1.26707
1.30389
1.34142
1.37965
1.41858
1.4582
1.4985
1.53945
1.58105
1.62328
1.66612
1.70954
1.75351
1.79802
1.84303
1.88851
1.93443
1.98074
2.02743
2.07444
2.12175
2.1693
2.21707
2.26501
2.31308
2.36123
2.40944
2.45765
2.50582
2.55391
2.60188
2.64968
2.69727
2.7446
2.79162
2.83815
2.88416
2.92964
2.97453
3.01879
3.06237
3.10522
3.14728
3.1885
3.22883
3.2682
3.30657
3.34388
3.38008
3.41512
3.44896
3.48153
3.51281
3.54273
3.57128
3.59839
3.62404
3.64818
3.67079
3.69184
3.71131
3.72916
3.74539
3.75998
3.7729
3.78415
3.79372
3.8016
3.80779
3.81228
3.8151
3.81624
3.8157
3.81352
3.80969
3.80425
3.7972
3.78858
3.7784
3.76672
3.75355
3.73894
3.7229
3.70546
3.68672
3.66672
3.64546
3.62301
3.59943
3.57478
3.54908
3.5224
3.49481
3.46634
3.43705
3.407
3.37625
3.34485
3.31285
3.28031
3.24728
3.21382
3.17999
3.14585
3.11146
3.07686
3.04211
3.00725
2.97234
2.93744
2.90262
2.86796
2.83358
2.79959
2.76618
2.73356
2.70198
2.67177
2.64291
2.61547
0.0460018
0.0889528
0.111913
0.12815
0.14135
0.152893
0.163481
0.173533
0.183328
0.193061
0.202866
0.212835
0.223031
0.233497
0.244264
0.255356
0.266801
0.278626
0.29086
0.303535
0.316681
0.330328
0.3445
0.359217
0.374492
0.390336
0.406752
0.423742
0.441302
0.45943
0.478121
0.497369
0.517171
0.537523
0.558423
0.57987
0.601865
0.624411
0.647512
0.671175
0.695409
0.720225
0.745634
0.771652
0.798291
0.825569
0.853501
0.882103
0.911391
0.941382
0.972091
1.00353
1.03572
1.06867
1.1024
1.13691
1.17221
1.20831
1.24521
1.28293
1.32146
1.36081
1.40096
1.44192
1.48367
1.52621
1.56953
1.6136
1.65842
1.70396
1.7502
1.79711
1.84466
1.89282
1.94156
1.99085
2.04064
2.09089
2.14157
2.19263
2.24402
2.2957
2.34763
2.39976
2.45204
2.50442
2.55686
2.60931
2.66172
2.71405
2.76623
2.81824
2.87001
2.92149
2.97254
3.02305
3.073
3.12234
3.17104
3.21903
3.26627
3.31269
3.35823
3.40283
3.44644
3.48898
3.53041
3.57067
3.6097
3.64745
3.68386
3.71889
3.75248
3.7846
3.81519
3.84422
3.87163
3.8974
3.92148
3.94386
3.9645
3.98339
4.0005
4.01582
4.02934
4.04103
4.0509
4.05892
4.06512
4.06948
4.07202
4.07275
4.07167
4.06881
4.06418
4.0578
4.04971
4.03992
4.02843
4.01535
4.00068
3.98447
3.96674
3.94755
3.92695
3.905
3.88172
3.85719
3.83145
3.80456
3.77658
3.74756
3.71755
3.68663
3.65484
3.62225
3.58891
3.55488
3.52022
3.48499
3.44925
3.41304
3.37643
3.33949
3.30228
3.26484
3.22725
3.18954
3.15178
3.11405
3.07643
3.039
3.00188
2.96522
2.9292
2.89402
2.85995
2.82725
2.79586
2.76586
0.0487015
0.0930863
0.116849
0.133664
0.147304
0.159184
0.170017
0.180234
0.190122
0.199889
0.209685
0.219619
0.229773
0.240206
0.250964
0.262081
0.273589
0.285517
0.297892
0.310741
0.324088
0.337956
0.352364
0.367327
0.382858
0.398965
0.415652
0.432923
0.450779
0.469218
0.488241
0.507845
0.528032
0.548801
0.570155
0.592095
0.614627
0.637756
0.66149
0.685839
0.710815
0.736429
0.762698
0.789637
0.817264
0.845596
0.874654
0.904455
0.935019
0.966366
0.998513
1.03148
1.06528
1.09994
1.13546
1.17186
1.20916
1.24735
1.28646
1.32648
1.36741
1.40927
1.45204
1.49572
1.54031
1.58579
1.63214
1.67936
1.72742
1.7763
1.82597
1.8764
1.92756
1.97941
2.03192
2.08505
2.13875
2.19297
2.24767
2.30279
2.35829
2.41411
2.47021
2.52653
2.58301
2.63961
2.69627
2.75294
2.80956
2.86608
2.92245
2.97861
3.03449
3.09004
3.14502
3.19943
3.25321
3.30632
3.35871
3.41032
3.46109
3.51094
3.55982
3.60765
3.65438
3.69993
3.74426
3.78729
3.82897
3.86925
3.90806
3.94536
3.98109
4.01521
4.04767
4.07842
4.10742
4.13463
4.16001
4.18353
4.20518
4.22493
4.24276
4.25866
4.27261
4.2846
4.29462
4.30266
4.30873
4.31284
4.31499
4.3152
4.31348
4.30984
4.30432
4.29694
4.28773
4.27672
4.26394
4.24944
4.23326
4.21545
4.19604
4.17509
4.15264
4.12877
4.1035
4.07691
4.04905
4.01998
3.98976
3.95845
3.92611
3.8928
3.85858
3.82352
3.78768
3.75112
3.71389
3.67607
3.6377
3.59885
3.55958
3.51995
3.48003
3.43988
3.39955
3.35911
3.31864
3.2782
3.23788
3.19779
3.15804
3.11879
3.08022
3.04255
3.006
2.9708
2.93686
2.90426
0.0505367
0.0959202
0.120241
0.137468
0.151432
0.163566
0.174591
0.184942
0.19491
0.20471
0.2145
0.224403
0.23451
0.244893
0.255606
0.266693
0.278189
0.290126
0.302528
0.315421
0.328825
0.342761
0.357245
0.37229
0.387909
0.40411
0.420901
0.438287
0.456272
0.474859
0.494053
0.513856
0.534273
0.555307
0.576965
0.599252
0.622178
0.645751
0.669983
0.694887
0.720478
0.746771
0.773784
0.801537
0.830051
0.859345
0.889443
0.920367
0.95214
0.984783
1.01832
1.05277
1.08815
1.12449
1.16179
1.20008
1.23937
1.27967
1.32099
1.36333
1.4067
1.4511
1.49652
1.54297
1.59043
1.63889
1.68834
1.73874
1.79009
1.84235
1.8955
1.94949
2.0043
2.05988
2.11619
2.17318
2.2308
2.289
2.34772
2.4069
2.46649
2.52643
2.58666
2.64712
2.70775
2.76849
2.82929
2.89009
2.95082
3.01144
3.07187
3.13206
3.19196
3.2513
3.31005
3.36817
3.42559
3.48228
3.53816
3.59317
3.64724
3.7003
3.75228
3.8031
3.85269
3.901
3.94796
3.99351
4.03758
4.08012
4.12107
4.16037
4.19797
4.23383
4.2679
4.30014
4.33048
4.35887
4.38531
4.40975
4.43218
4.45257
4.4709
4.48717
4.50136
4.51348
4.52347
4.53136
4.53715
4.54086
4.54249
4.54207
4.5396
4.53511
4.52864
4.5202
4.50983
4.49757
4.48345
4.46752
4.44983
4.43043
4.40935
4.38665
4.3624
4.33665
4.30944
4.28085
4.25094
4.21977
4.18739
4.15388
4.11929
4.0837
4.04717
4.00976
3.97154
3.93256
3.8929
3.85262
3.81177
3.77041
3.72862
3.68645
3.64398
3.60126
3.55836
3.51535
3.4723
3.42929
3.38643
3.34381
3.30156
3.25984
3.21882
3.17872
3.13975
3.10209
3.06562
3.03047
0.0515952
0.0976069
0.122269
0.139756
0.153932
0.166237
0.177395
0.187841
0.197867
0.207689
0.21747
0.227336
0.237388
0.247702
0.25834
0.269349
0.28077
0.292634
0.304968
0.317797
0.33114
0.345017
0.359444
0.374435
0.390003
0.40616
0.422915
0.440278
0.458258
0.476861
0.496096
0.51597
0.536493
0.557672
0.579518
0.602042
0.625256
0.649173
0.673809
0.69918
0.725305
0.752204
0.779898
0.80841
0.837764
0.867984
0.899096
0.931127
0.964101
0.998045
1.03298
1.06894
1.10594
1.144
1.18314
1.22338
1.26472
1.3072
1.3508
1.39555
1.44143
1.48846
1.53663
1.58593
1.63635
1.68787
1.74048
1.79415
1.84885
1.90456
1.96123
2.01884
2.07732
2.13665
2.19676
2.25761
2.31914
2.38128
2.44399
2.50717
2.57078
2.63474
2.69899
2.76346
2.8281
2.89283
2.95761
3.02235
3.087
3.1515
3.21579
3.2798
3.3433
3.4062
3.46843
3.52996
3.59072
3.65065
3.70968
3.76776
3.82481
3.88073
3.93545
3.98889
4.04099
4.09168
4.14091
4.1886
4.23469
4.27912
4.32184
4.36278
4.4019
4.43915
4.47448
4.50788
4.53923
4.56851
4.59568
4.62074
4.64366
4.66442
4.683
4.69939
4.71358
4.72557
4.73535
4.7429
4.74826
4.75142
4.75241
4.75123
4.74792
4.7425
4.73499
4.72544
4.71387
4.70033
4.68486
4.6675
4.64831
4.62733
4.60462
4.58024
4.55423
4.52667
4.49761
4.46712
4.43526
4.40209
4.36768
4.3321
4.29541
4.25768
4.21899
4.17938
4.13894
4.09773
4.0558
4.01323
3.97008
3.92641
3.88228
3.83777
3.79293
3.74783
3.70255
3.65716
3.61173
3.56635
3.52111
3.47613
3.43154
3.38749
3.34417
3.30176
3.26046
3.22043
3.18152
3.1439
0.0519829
0.0983134
0.12313
0.140744
0.155025
0.16742
0.178648
0.189142
0.199194
0.209017
0.218773
0.228592
0.238574
0.2488
0.259333
0.270225
0.281518
0.293245
0.305435
0.318113
0.3313
0.345018
0.359283
0.374112
0.389522
0.405526
0.42214
0.439376
0.457247
0.475768
0.49495
0.514807
0.535353
0.556601
0.578565
0.601263
0.62471
0.648925
0.673928
0.69974
0.726384
0.753883
0.782265
0.811554
0.841779
0.872969
0.905152
0.938358
0.972616
1.00795
1.0444
1.08198
1.12072
1.16064
1.20176
1.24409
1.28766
1.33246
1.37851
1.42581
1.47437
1.52418
1.57524
1.62753
1.68104
1.73575
1.79164
1.84866
1.90681
1.96602
2.02627
2.08751
2.14968
2.21273
2.27662
2.34127
2.40663
2.47263
2.5392
2.60625
2.6737
2.74149
2.80954
2.8778
2.94619
3.01464
3.08309
3.15147
3.21971
3.28776
3.35556
3.42286
3.48955
3.55556
3.62084
3.68533
3.74896
3.81166
3.87336
3.93401
3.99356
4.05186
4.10881
4.16437
4.21847
4.27104
4.32203
4.37137
4.41899
4.46483
4.50883
4.55095
4.59112
4.62931
4.66546
4.69953
4.73147
4.76123
4.78879
4.81412
4.8372
4.85802
4.87655
4.89279
4.90673
4.91837
4.9277
4.93473
4.93947
4.94192
4.94212
4.94007
4.93581
4.92936
4.92076
4.91004
4.89724
4.88241
4.86558
4.84681
4.82615
4.80365
4.77938
4.75338
4.72572
4.69646
4.66566
4.63339
4.59972
4.56472
4.52844
4.49097
4.45236
4.41269
4.37203
4.33044
4.288
4.24476
4.2008
4.15617
4.11095
4.06519
4.01897
3.97234
3.92538
3.87816
3.83074
3.78319
3.73561
3.68808
3.64069
3.59357
3.54684
3.50065
3.45519
3.41063
3.36715
3.32488
3.28368
3.24372
0.0518169
0.0982117
0.123024
0.140646
0.154939
0.167343
0.178577
0.189068
0.199105
0.208898
0.218608
0.22836
0.238255
0.248371
0.258775
0.269517
0.280641
0.292183
0.304173
0.316638
0.329603
0.34309
0.357121
0.371716
0.386895
0.402677
0.419082
0.436129
0.453837
0.472225
0.491312
0.511118
0.531662
0.552965
0.575046
0.597927
0.621629
0.646178
0.671598
0.697916
0.72516
0.753358
0.782541
0.812739
0.843985
0.876309
0.909744
0.944321
0.980073
1.01703
1.05522
1.09467
1.13541
1.17746
1.22084
1.26555
1.3116
1.359
1.40776
1.45788
1.50936
1.56218
1.61635
1.67183
1.72861
1.78665
1.84594
1.90643
1.96809
2.03086
2.09469
2.15954
2.22535
2.29205
2.35958
2.42788
2.49688
2.56652
2.63675
2.70738
2.77836
2.84963
2.92111
2.99275
3.06446
3.13618
3.20784
3.27938
3.35071
3.4218
3.49238
3.56233
3.6316
3.70011
3.7678
3.8346
3.90044
3.96524
4.02895
4.09147
4.15275
4.21269
4.2712
4.32821
4.38366
4.43747
4.48959
4.53995
4.58849
4.63515
4.67986
4.72259
4.76327
4.80186
4.83832
4.8726
4.90465
4.93445
4.96196
4.98715
5.01001
5.03052
5.04867
5.06445
5.07785
5.08887
5.09751
5.10379
5.10771
5.10928
5.10854
5.1055
5.10018
5.09263
5.08287
5.07095
5.05691
5.04078
5.02262
5.00249
4.98042
4.95649
4.93075
4.90325
4.87407
4.84326
4.8109
4.77704
4.74176
4.70512
4.66719
4.62805
4.58777
4.5464
4.50403
4.46072
4.41654
4.37156
4.32584
4.27944
4.23244
4.18489
4.13686
4.08842
4.03963
3.99056
3.94129
3.89189
3.84244
3.79303
3.74376
3.69474
3.64612
3.59803
3.55065
3.50415
3.45868
3.41437
3.37106
3.32896
0.0512214
0.0974697
0.122144
0.139671
0.153888
0.166227
0.177402
0.187836
0.197816
0.207546
0.217181
0.226845
0.236632
0.246622
0.256876
0.267447
0.278378
0.289707
0.301467
0.313688
0.326397
0.339623
0.353389
0.367724
0.382651
0.398197
0.414386
0.431245
0.4488
0.467078
0.486107
0.505914
0.526527
0.547975
0.570282
0.593474
0.617581
0.642633
0.668662
0.695703
0.723786
0.752948
0.783221
0.814641
0.847241
0.881057
0.91612
0.952464
0.99012
1.02912
1.06949
1.11125
1.15444
1.19908
1.24519
1.29272
1.34168
1.3921
1.44396
1.49726
1.552
1.60814
1.66569
1.72459
1.78484
1.84638
1.90918
1.97319
2.03837
2.10465
2.17199
2.24032
2.30957
2.37968
2.45057
2.52218
2.59442
2.66723
2.74052
2.81418
2.88813
2.9623
3.03661
3.11098
3.18536
3.25966
3.33382
3.4078
3.48146
3.55457
3.62704
3.69882
3.76982
3.83997
3.9092
3.97744
4.04462
4.11065
4.17547
4.23901
4.30119
4.36194
4.42116
4.4788
4.53477
4.58903
4.6415
4.69213
4.74084
4.78759
4.83233
4.87499
4.91553
4.9539
4.99007
5.02399
5.05562
5.08494
5.1119
5.1365
5.1587
5.1785
5.19589
5.21086
5.2234
5.23353
5.24123
5.24652
5.24943
5.24995
5.24812
5.24397
5.23751
5.22879
5.21785
5.20471
5.18943
5.17206
5.15263
5.13121
5.10786
5.08262
5.05555
5.02673
4.99621
4.96406
4.93035
4.89513
4.85849
4.82049
4.78119
4.74068
4.69901
4.65626
4.6125
4.5678
4.52222
4.47582
4.42868
4.38087
4.33243
4.28344
4.23396
4.18405
4.13379
4.08323
4.03245
3.98153
3.93055
3.87959
3.82876
3.77817
3.72795
3.67825
3.62921
3.58102
3.53381
3.48771
3.44253
3.39852
0.050282
0.0962032
0.120618
0.137956
0.152015
0.164216
0.175269
0.185594
0.195471
0.2051
0.214633
0.224184
0.233847
0.243694
0.253788
0.264179
0.274912
0.286026
0.297557
0.30954
0.322006
0.334989
0.348523
0.36264
0.377375
0.392756
0.408817
0.425596
0.443128
0.461452
0.480604
0.500624
0.521553
0.543435
0.566306
0.590171
0.615078
0.64107
0.668187
0.696469
0.725953
0.756678
0.78868
0.821996
0.856659
0.892702
0.930155
0.969047
1.0094
1.05125
1.0946
1.13947
1.18588
1.23383
1.28333
1.33435
1.38688
1.44092
1.49646
1.55346
1.61191
1.67178
1.73303
1.79562
1.85952
1.92466
1.99101
2.05851
2.1271
2.19672
2.2673
2.33877
2.41106
2.48411
2.55783
2.63215
2.70698
2.78226
2.85789
2.93378
3.00986
3.08604
3.16225
3.23843
3.3145
3.3904
3.46606
3.54127
3.6159
3.68987
3.76312
3.83556
3.90713
3.97776
4.04736
4.11588
4.18323
4.24935
4.31416
4.3776
4.43959
4.50006
4.55894
4.61617
4.67166
4.72537
4.77724
4.82719
4.87518
4.92115
4.96505
5.00684
5.04646
5.08387
5.11904
5.15193
5.18249
5.21072
5.23657
5.26003
5.28107
5.2997
5.3159
5.32966
5.34099
5.34988
5.35636
5.36041
5.36208
5.36136
5.35829
5.3529
5.34521
5.33526
5.32308
5.30873
5.29225
5.27367
5.25306
5.23046
5.20594
5.17955
5.15134
5.12139
5.08976
5.0565
5.02169
4.9854
4.94768
4.90862
4.86827
4.82671
4.784
4.74022
4.69543
4.64969
4.60308
4.55566
4.50749
4.45864
4.40916
4.35912
4.30858
4.2576
4.20625
4.15459
4.10269
4.05063
3.99848
3.94634
3.8943
3.84247
3.79098
3.73997
3.68959
3.64
3.59133
3.54369
3.49693
3.45127
0.0492812
0.0947225
0.118771
0.135831
0.149655
0.161654
0.172529
0.182699
0.192438
0.201941
0.211354
0.220787
0.230329
0.240051
0.250012
0.260266
0.270858
0.281831
0.293225
0.305083
0.31744
0.330336
0.343817
0.357934
0.372741
0.388242
0.404493
0.421548
0.439459
0.458276
0.478051
0.498836
0.52068
0.543634
0.567744
0.593048
0.619594
0.647427
0.67659
0.707125
0.739071
0.772463
0.807334
0.843712
0.881624
0.921089
0.962126
1.00475
1.04896
1.09477
1.14218
1.19118
1.24176
1.29391
1.34761
1.40283
1.45954
1.51771
1.5773
1.63828
1.70061
1.76424
1.82913
1.89523
1.96247
2.03081
2.10019
2.17055
2.24183
2.31395
2.38686
2.46048
2.53475
2.60959
2.68493
2.76069
2.8368
2.91318
2.98976
3.06646
3.1432
3.21992
3.29653
3.37301
3.44925
3.52509
3.60037
3.67504
3.74905