/*--------------------------------*- C++ -*----------------------------------*\
  =========                 |
  \\      /  F ield         | OpenFOAM: The Open Source CFD Toolbox
   \\    /   O peration     | Website:  https://openfoam.org
    \\  /    A nd           | Version:  12
     \\/     M anipulation  |
\*---------------------------------------------------------------------------*/
FoamFile
{
    format      ascii;
    class       volScalarField;
    location    "0.12";
    object      nut;
}
// * * * * * * * * * * * * * * * * * * * * * * * * * * * * * * * * * * * * * //

dimensions      [0 2 -1 0 0 0 0];

internalField   nonuniform List<scalar> 
12225
(
4.04768e-05
3.83178e-05
3.62504e-05
3.44199e-05
3.29521e-05
3.18979e-05
3.12566e-05
3.09944e-05
3.10593e-05
3.1392e-05
3.19339e-05
3.26313e-05
3.34378e-05
3.43151e-05
3.52343e-05
3.61709e-05
3.7132e-05
3.85265e-05
0.000281048
0.000209265
0.000176265
0.000157438
0.000146269
0.000139685
0.000135791
0.000133428
0.000131913
0.000130857
0.000130042
0.000129356
0.000128739
0.000128161
0.000127623
0.00012708
0.000126694
0.000125705
0.000556046
0.000419905
0.000349811
0.00030473
0.000272441
0.000247974
0.000228755
0.000213288
0.000200657
0.000190252
0.000181634
0.000174462
0.000168468
0.000163429
0.000159172
0.000155505
0.000152346
0.00014923
0.000740307
0.000625819
0.000544112
0.000484992
0.000439761
0.000403638
0.000373824
0.000348583
0.000326826
0.000307857
0.000291201
0.000276511
0.000263516
0.000251985
0.000241721
0.000232501
0.000224166
0.000216414
0.000817069
0.00075914
0.000700542
0.000648571
0.000603887
0.00056557
0.000532454
0.000503488
0.000477845
0.000454918
0.000434259
0.000415533
0.000398481
0.00038289
0.000368578
0.000355355
0.000343071
0.000331618
0.0008421
0.000819687
0.000789922
0.000757601
0.000725546
0.000695152
0.000666949
0.000640994
0.000617144
0.000595198
0.000574952
0.000556217
0.000538829
0.000522639
0.000507514
0.000493321
0.000479953
0.000467453
0.000849261
0.000841807
0.000829741
0.000814185
0.000796476
0.000777753
0.000758837
0.000740238
0.000722244
0.000705002
0.000688569
0.000672955
0.000658137
0.000644075
0.000630721
0.000618018
0.000605923
0.000594563
0.00085112
0.000848747
0.00084448
0.000838235
0.000830243
0.00082089
0.000810591
0.00079971
0.000788538
0.00077729
0.000766122
0.000755141
0.000744416
0.000733987
0.000723877
0.000714093
0.000704649
0.000695697
0.00085156
0.000850665
0.00084917
0.000846886
0.00084374
0.000839756
0.000835029
0.000829687
0.000823865
0.000817691
0.000811279
0.000804722
0.000798098
0.000791465
0.000784871
0.000778351
0.000771941
0.00076578
0.000851652
0.000851133
0.000850468
0.000849564
0.000848346
0.000846771
0.000844823
0.000842516
0.000839877
0.00083695
0.000833777
0.000830407
0.000826882
0.000823241
0.00081952
0.00081575
0.000811964
0.000808261
0.000851668
0.00085123
0.000850778
0.000850278
0.000849697
0.000849006
0.000848181
0.000847209
0.000846084
0.000844809
0.000843392
0.000841844
0.00084018
0.000838416
0.000836568
0.000834652
0.000832688
0.000830733
0.000851669
0.000851245
0.000850835
0.000850429
0.000850013
0.000849575
0.0008491
0.000848578
0.000848
0.000847362
0.00084666
0.000845895
0.00084507
0.000844188
0.000843254
0.000842275
0.000841261
0.000840245
0.000851668
0.000851244
0.000850843
0.000850459
0.000850088
0.000849725
0.000849364
0.000849
0.000848627
0.000848241
0.000847838
0.000847416
0.000846975
0.000846512
0.00084603
0.000845528
0.000845012
0.000844499
0.000851667
0.000851242
0.000850839
0.000850458
0.000850096
0.000849751
0.00084942
0.000849101
0.000848792
0.00084849
0.000848193
0.000847899
0.000847608
0.000847318
0.000847027
0.000846737
0.000846449
0.000846174
0.000851666
0.000851239
0.000850835
0.000850452
0.00085009
0.000849746
0.000849419
0.000849108
0.000848811
0.000848527
0.000848255
0.000847995
0.000847744
0.000847503
0.00084727
0.000847045
0.00084683
0.000846635
0.000851665
0.000851236
0.000850831
0.000850447
0.000850083
0.000849737
0.000849409
0.000849097
0.000848801
0.000848519
0.00084825
0.000847994
0.000847749
0.000847516
0.000847294
0.000847081
0.000846881
0.000846702
0.000851664
0.000851235
0.000850828
0.000850442
0.000850077
0.00084973
0.000849401
0.000849088
0.00084879
0.000848507
0.000848237
0.00084798
0.000847735
0.000847502
0.000847279
0.000847067
0.000846867
0.000846689
0.000851663
0.000851234
0.000850826
0.00085044
0.000850073
0.000849725
0.000849395
0.000849081
0.000848782
0.000848498
0.000848227
0.000847969
0.000847723
0.000847489
0.000847265
0.000847051
0.00084685
0.000846671
0.000851663
0.000851233
0.000850825
0.000850439
0.000850072
0.000849724
0.000849393
0.000849079
0.000848779
0.000848495
0.000848223
0.000847964
0.000847718
0.000847482
0.000847257
0.000847043
0.00084684
0.000846661
0.000851664
0.000851234
0.000850826
0.00085044
0.000850074
0.000849726
0.000849396
0.000849082
0.000848783
0.000848498
0.000848226
0.000847967
0.000847719
0.000847482
0.000847256
0.000847039
0.000846834
0.000846652
0.000851664
0.000851235
0.000850829
0.000850443
0.000850078
0.00084973
0.000849399
0.000849083
0.00084878
0.00084849
0.000848211
0.000847941
0.000847681
0.000847429
0.000847185
0.000846947
0.000846719
0.000846509
0.000851665
0.000851237
0.00085083
0.000850442
0.000850069
0.000849706
0.000849351
0.000849
0.000848648
0.000848294
0.000847936
0.000847572
0.000847201
0.000846822
0.000846436
0.000846043
0.000845646
0.000845257
0.000851664
0.000851228
0.000850794
0.000850348
0.00084987
0.000849345
0.000848762
0.000848112
0.00084739
0.000846595
0.00084573
0.0008448
0.00084381
0.000842766
0.000841678
0.000840551
0.000839396
0.000838236
0.000851634
0.000851073
0.000850343
0.000849364
0.00084808
0.000846469
0.000844532
0.000842294
0.000839789
0.000837057
0.000834141
0.000831082
0.000827919
0.000824684
0.000821407
0.000818114
0.000814828
0.000811596
0.000851287
0.000849596
0.000846721
0.000842578
0.000837264
0.000830982
0.000823975
0.000816476
0.000808681
0.000800747
0.000792795
0.000784916
0.000777175
0.000769616
0.00076227
0.000755155
0.000748288
0.00074172
0.000848318
0.000839426
0.000826162
0.000810019
0.00079236
0.000774229
0.000756325
0.000739049
0.0007226
0.000707059
0.000692436
0.000678704
0.000665817
0.00065372
0.000642356
0.000631673
0.00062162
0.000612209
0.000828548
0.000788843
0.000746035
0.000705704
0.000669465
0.000637502
0.000609447
0.000584741
0.000562846
0.000543309
0.000525758
0.000509895
0.000495479
0.000482315
0.000470244
0.000459136
0.000448885
0.000439442
0.000730726
0.000627346
0.000554508
0.00050106
0.000460319
0.000428348
0.000402634
0.00038147
0.000363711
0.000348582
0.000335537
0.000324179
0.00031421
0.000305399
0.000297568
0.000290572
0.00028429
0.000278642
0.000439249
0.000338471
0.000287936
0.000256869
0.000236362
0.000222511
0.000212994
0.000206313
0.000201507
0.00019796
0.000195272
0.000193178
0.0001915
0.000190117
0.000188948
0.000187933
0.000187037
0.00018621
7.16431e-05
6.90587e-05
6.65522e-05
6.41645e-05
6.19883e-05
6.00783e-05
5.84563e-05
5.7121e-05
5.60567e-05
5.52396e-05
5.46426e-05
5.42381e-05
5.39991e-05
5.39008e-05
5.39207e-05
5.40385e-05
5.4237e-05
5.44999e-05
8.08031e-07
1.58272e-05
2.42525e-05
3.14441e-05
3.82031e-05
4.5407e-05
5.34272e-05
6.2455e-05
7.27073e-05
8.43425e-05
9.64998e-05
0.000108721
0.000120709
0.000132204
0.000143004
0.000152962
0.000161981
0.000170003
0.000176998
0.000182959
0.00018789
0.000191794
0.000194669
0.000196588
0.000197846
0.000198908
0.000199742
0.000199379
0.000197425
0.00020118
0.000201919
0.000202079
0.000199528
4.62777e-05
4.67221e-05
0.000202596
4.71088e-05
4.80031e-05
4.89736e-05
4.99555e-05
5.0941e-05
5.1928e-05
5.29152e-05
5.39021e-05
5.48884e-05
5.58742e-05
5.68595e-05
5.78445e-05
5.88294e-05
5.98141e-05
6.07988e-05
6.17834e-05
6.27679e-05
6.37522e-05
6.47361e-05
6.57194e-05
6.67018e-05
6.76832e-05
6.86631e-05
6.96413e-05
7.06173e-05
7.15908e-05
7.25613e-05
7.35284e-05
7.44916e-05
7.54504e-05
7.64044e-05
7.73531e-05
7.8296e-05
7.92325e-05
8.01623e-05
8.10846e-05
8.19992e-05
8.29054e-05
8.38027e-05
8.46908e-05
8.5569e-05
8.64369e-05
8.72941e-05
8.81401e-05
8.89744e-05
8.97965e-05
9.06061e-05
9.14026e-05
9.21858e-05
9.2955e-05
9.37099e-05
9.44502e-05
9.51752e-05
9.58847e-05
9.65781e-05
9.72552e-05
9.79155e-05
9.85588e-05
9.9185e-05
9.97946e-05
0.000100389
0.00010097
0.000101538
0.000102086
0.000102612
0.000103118
0.000103603
0.000104066
0.000104508
0.000104928
0.000105325
0.0001057
0.000106051
0.000106379
0.000106683
0.000106963
0.000107219
0.000107449
0.000107655
0.000107836
0.000107992
0.000108122
0.000108227
0.000108306
0.00010836
0.000108388
0.00010839
0.000108366
0.000108317
0.000108242
0.000108141
0.000108015
0.000107864
0.000107687
0.000107486
0.00010726
0.000107009
0.000106735
0.000106436
0.000106114
0.000105769
0.000105401
0.00010501
0.000104598
0.000104164
0.000103709
0.000103234
0.000102738
0.000102224
0.00010169
0.000101139
0.00010057
9.99833e-05
9.93807e-05
9.87624e-05
9.81292e-05
9.74816e-05
9.68203e-05
9.61463e-05
9.54597e-05
9.47621e-05
9.40535e-05
9.3335e-05
9.26083e-05
9.18707e-05
9.11306e-05
9.03931e-05
8.97682e-05
8.93328e-05
8.89092e-05
8.84827e-05
8.80527e-05
8.76194e-05
8.71831e-05
8.67439e-05
8.63018e-05
8.58561e-05
8.54056e-05
8.49471e-05
8.44741e-05
8.39712e-05
8.33981e-05
8.26493e-05
8.13306e-05
2.07771e-06
3.56748e-05
7.45287e-05
0.00010434
0.000126983
0.000144136
0.000157872
0.000169963
0.000181663
0.000193573
0.000205815
0.000218236
0.000230556
0.000242478
0.000253732
0.000264087
0.000273351
0.000281363
0.000287977
0.000293049
0.000296406
0.000297831
0.000297148
0.000294508
0.000290705
0.000286829
0.000282724
0.000275934
0.000266132
0.000270185
0.000267688
0.000265961
0.000261896
0.0002563
0.000259963
0.000270402
0.000268818
0.000274818
0.000280789
0.000287086
0.000293611
0.000300299
0.000307105
0.000314002
0.000320974
0.000328016
0.000335124
0.000342299
0.000349543
0.000356858
0.000364248
0.000371717
0.000379267
0.000386901
0.000394621
0.00040243
0.000410329
0.00041832
0.000426402
0.000434576
0.000442841
0.000451196
0.00045964
0.000468171
0.000476786
0.000485483
0.000494259
0.00050311
0.000512032
0.000521021
0.000530073
0.000539183
0.000548346
0.000557557
0.000566811
0.000576101
0.000585424
0.000594774
0.000604144
0.00061353
0.000622926
0.000632328
0.000641728
0.000651124
0.00066051
0.00066988
0.000679231
0.000688558
0.000697856
0.000707121
0.000716347
0.000725527
0.000734652
0.000743709
0.000752675
0.000761517
0.000770176
0.000778572
0.000786314
0.000793888
0.000801347
0.000808693
0.000815921
0.000823026
0.000830003
0.000836845
0.000843547
0.000850103
0.000856507
0.000862753
0.000868838
0.000874754
0.000880498
0.000886065
0.000891449
0.000896646
0.000901652
0.000906463
0.000911075
0.000915485
0.000919689
0.000923684
0.000927467
0.000931036
0.000934388
0.000937521
0.000940433
0.000943123
0.000945588
0.000947829
0.000949844
0.000951633
0.000953196
0.000954532
0.000955643
0.000956528
0.00095719
0.000957628
0.000957846
0.000957844
0.000957625
0.000957192
0.000956546
0.000955692
0.000954633
0.000953372
0.000951912
0.000950259
0.000948417
0.00094639
0.000944183
0.000941802
0.000939252
0.000936537
0.000933668
0.000930642
0.000927477
0.000924173
0.000920733
0.000917183
0.000913511
0.000909658
0.000905459
0.000899929
0.000892727
0.00088506
0.000877214
0.000869267
0.000861245
0.000853165
0.000845035
0.000836863
0.000828651
0.0008204
0.0008121
0.000803731
0.000795219
0.000786462
0.000776408
0.000755893
3.77e-06
5.35472e-05
0.000111916
0.000157513
0.000191612
0.000217091
0.000236716
0.000252702
0.000266707
0.000279815
0.000292605
0.000305275
0.000317776
0.000329936
0.000341545
0.000352403
0.000362342
0.000371241
0.000379029
0.00038568
0.000391211
0.000395685
0.000399255
0.00040227
0.000405313
0.000408974
0.000413373
0.000418135
0.000423463
0.000430859
0.000438448
0.000446798
0.000455713
0.000465524
0.000476608
0.000488832
0.000501127
0.000514601
0.000528306
0.000542178
0.000556206
0.000570379
0.000584686
0.000599121
0.000613684
0.000628375
0.000643199
0.000658163
0.000673271
0.000688532
0.000703952
0.000719536
0.00073529
0.000751219
0.000767326
0.000783613
0.000800081
0.000816732
0.000833565
0.000850577
0.000867766
0.000885129
0.000902661
0.000920356
0.000938208
0.00095621
0.000974354
0.000992632
0.00101103
0.00102955
0.00104817
0.00106689
0.00108568
0.00110455
0.00112348
0.00114246
0.00116147
0.00118051
0.00119955
0.0012186
0.00123763
0.00125664
0.00127562
0.00129454
0.00131341
0.0013322
0.00135092
0.00136953
0.00138804
0.00140642
0.00142466
0.00144275
0.00146065
0.00147834
0.00149578
0.00151294
0.00152978
0.00154597
0.00156172
0.00157718
0.0015924
0.00160738
0.0016221
0.00163656
0.00165075
0.00166465
0.00167826
0.00169155
0.00170452
0.00171716
0.00172945
0.00174139
0.00175296
0.00176416
0.00177497
0.0017854
0.00179541
0.00180502
0.00181421
0.00182297
0.00183131
0.0018392
0.00184665
0.00185365
0.00186019
0.00186628
0.0018719
0.00187706
0.00188175
0.00188597
0.00188972
0.00189299
0.0018958
0.00189813
0.00189999
0.00190138
0.0019023
0.00190276
0.00190276
0.0019023
0.00190139
0.00190003
0.00189824
0.001896
0.00189334
0.00189026
0.00188677
0.00188288
0.00187859
0.00187392
0.00186887
0.00186346
0.0018577
0.0018516
0.00184518
0.00183844
0.00183141
0.0018241
0.00181652
0.00180868
0.00180061
0.00179213
0.00178305
0.00177262
0.00176057
0.00174773
0.00173448
0.00172096
0.00170724
0.00169336
0.00167935
0.00166521
0.00165097
0.00163661
0.00162211
0.00160741
0.00159232
0.00157634
0.00155753
0.00152707
5.84444e-06
6.95848e-05
0.000141412
0.000197774
0.000240416
0.000272714
0.000297595
0.000317462
0.000334192
0.000349134
0.000363155
0.000376723
0.000390016
0.000403036
0.000415698
0.000427899
0.000439552
0.000450615
0.0004611
0.000471075
0.000480659
0.000490012
0.000499345
0.000508929
0.000519076
0.000530051
0.000541946
0.000554703
0.00056832
0.00058289
0.000598221
0.000614317
0.000631132
0.00064866
0.000666871
0.000685721
0.000705062
0.000724823
0.000744789
0.000764895
0.000785129
0.000805496
0.000826005
0.000846664
0.000867484
0.000888476
0.00090965
0.000931016
0.000952586
0.000974368
0.000996371
0.0010186
0.00104107
0.00106377
0.00108672
0.00110992
0.00113336
0.00115704
0.00118097
0.00120513
0.00122953
0.00125415
0.001279
0.00130405
0.0013293
0.00135475
0.00138037
0.00140615
0.00143209
0.00145816
0.00148435
0.00151065
0.00153704
0.0015635
0.00159001
0.00161656
0.00164313
0.0016697
0.00169626
0.00172279
0.00174926
0.00177567
0.00180199
0.00182821
0.00185431
0.00188028
0.00190609
0.00193172
0.00195717
0.0019824
0.00200739
0.00203213
0.00205657
0.00208071
0.00210449
0.00212788
0.00215083
0.00217317
0.00219507
0.0022166
0.00223779
0.00225864
0.00227913
0.00229925
0.00231898
0.00233832
0.00235723
0.00237572
0.00239375
0.00241132
0.00242842
0.00244502
0.00246111
0.00247669
0.00249174
0.00250623
0.00252018
0.00253355
0.00254635
0.00255856
0.00257017
0.00258118
0.00259158
0.00260135
0.0026105
0.00261901
0.00262689
0.00263412
0.00264071
0.00264664
0.00265193
0.00265656
0.00266054
0.00266386
0.00266654
0.00266856
0.00266993
0.00267066
0.00267076
0.00267021
0.00266904
0.00266724
0.00266483
0.00266182
0.00265821
0.00265401
0.00264923
0.00264389
0.00263799
0.00263156
0.0026246
0.00261713
0.00260916
0.00260071
0.0025918
0.00258246
0.00257268
0.00256252
0.00255195
0.002541
0.00252965
0.00251781
0.00250528
0.00249163
0.00247673
0.00246097
0.00244465
0.00242792
0.00241089
0.00239359
0.00237608
0.00235837
0.00234049
0.00232243
0.00230417
0.00228563
0.00226655
0.00224628
0.00222273
0.00218954
8.00034e-06
8.19734e-05
0.000164649
0.000230218
0.000280403
0.00031873
0.000348362
0.000371904
0.000391418
0.000408452
0.00042408
0.000438983
0.000453534
0.000467901
0.000482133
0.000496228
0.000510177
0.000524
0.00053775
0.000551523
0.000565447
0.000579674
0.000594366
0.000609692
0.000625804
0.000642809
0.000660737
0.000679559
0.000699228
0.000719699
0.000740903
0.000762784
0.000785284
0.000808346
0.000831913
0.00085592
0.000880284
0.000904917
0.000929738
0.000954706
0.000979814
0.00100507
0.00103048
0.00105607
0.00108184
0.00110782
0.00113401
0.00116043
0.00118709
0.001214
0.00124118
0.00126863
0.00129635
0.00132435
0.00135263
0.0013812
0.00141005
0.00143917
0.00146858
0.00149826
0.0015282
0.00155839
0.00158883
0.00161949
0.00165038
0.00168147
0.00171275
0.00174421
0.00177582
0.00180756
0.00183942
0.00187138
0.00190342
0.00193552
0.00196765
0.00199979
0.00203193
0.00206404
0.0020961
0.00212809
0.00215998
0.00219176
0.0022234
0.00225489
0.0022862
0.00231731
0.00234821
0.00237886
0.00240926
0.00243937
0.00246918
0.00249865
0.00252777
0.00255651
0.00258485
0.00261277
0.00264008
0.00266686
0.00269319
0.00271911
0.00274461
0.00276971
0.00279437
0.0028186
0.00284237
0.00286566
0.00288846
0.00291074
0.0029325
0.0029537
0.00297435
0.00299441
0.00301388
0.00303274
0.00305097
0.00306856
0.00308549
0.00310176
0.00311734
0.00313224
0.00314643
0.0031599
0.00317266
0.00318468
0.00319596
0.0032065
0.00321628
0.00322531
0.00323357
0.00324106
0.00324778
0.00325373
0.0032589
0.0032633
0.00326693
0.00326978
0.00327187
0.00327319
0.00327374
0.00327354
0.00327259
0.00327089
0.00326846
0.0032653
0.00326142
0.00325684
0.00325156
0.00324561
0.00323898
0.00323169
0.00322377
0.00321523
0.00320608
0.00319634
0.00318604
0.0031752
0.00316383
0.00315195
0.00313958
0.00312671
0.00311335
0.00309943
0.00308481
0.00306928
0.00305274
0.00303538
0.00301739
0.00299892
0.00298004
0.00296083
0.00294132
0.00292156
0.00290157
0.00288137
0.00286094
0.00284022
0.00281896
0.00279652
0.00277114
0.00273869
1.00339e-05
9.20848e-05
0.000183574
0.000257192
0.000314131
0.000357995
0.000392112
0.000419253
0.000441633
0.000460953
0.000478458
0.000494997
0.00051111
0.000527112
0.00054317
0.000559373
0.000575776
0.000592432
0.000609408
0.000626791
0.00064468
0.000663181
0.000682395
0.000702408
0.000723282
0.000745046
0.000767687
0.000791165
0.000815421
0.00084039
0.000866005
0.0008922
0.000918911
0.000946076
0.000973634
0.00100153
0.0010297
0.0010581
0.00108667
0.00111541
0.0011443
0.00117336
0.00120259
0.00123201
0.00126164
0.00129149
0.00132157
0.00135191
0.0013825
0.00141338
0.00144453
0.00147598
0.00150772
0.00153976
0.0015721
0.00160475
0.00163769
0.00167093
0.00170446
0.00173827
0.00177236
0.0018067
0.0018413
0.00187613
0.00191119
0.00194645
0.00198189
0.0020175
0.00205326
0.00208914
0.00212513
0.0021612
0.00219733
0.0022335
0.00226968
0.00230584
0.00234197
0.00237804
0.00241403
0.0024499
0.00248565
0.00252124
0.00255664
0.00259185
0.00262683
0.00266157
0.00269604
0.00273022
0.0027641
0.00279764
0.00283082
0.00286363
0.00289605
0.00292804
0.00295959
0.00299067
0.00302114
0.00305109
0.00308058
0.00310963
0.00313823
0.00316638
0.00319406
0.00322126
0.00324796
0.00327414
0.00329978
0.00332486
0.00334937
0.00337328
0.00339658
0.00341924
0.00344126
0.00346261
0.00348328
0.00350325
0.00352251
0.00354103
0.00355882
0.00357585
0.00359211
0.00360759
0.00362228
0.00363618
0.00364926
0.00366153
0.00367297
0.00368358
0.00369335
0.00370228
0.00371036
0.0037176
0.00372398
0.00372951
0.00373418
0.003738
0.00374098
0.0037431
0.00374439
0.00374483
0.00374444
0.00374322
0.00374119
0.00373835
0.0037347
0.00373027
0.00372506
0.00371908
0.00371235
0.00370489
0.00369671
0.00368781
0.00367823
0.00366799
0.0036571
0.00364558
0.00363346
0.00362075
0.00360746
0.0035936
0.00357918
0.00356415
0.00354843
0.00353192
0.00351455
0.00349642
0.00347764
0.00345832
0.00343853
0.00341834
0.0033978
0.00337696
0.00335586
0.00333453
0.00331297
0.00329116
0.00326889
0.00324565
0.00322008
0.00318962
1.18234e-05
0.000100235
0.000199137
0.000279683
0.000342649
0.000391633
0.000430052
0.000460774
0.000486118
0.000507901
0.000527494
0.000545885
0.00056375
0.000581526
0.000599483
0.000617787
0.000636539
0.000655817
0.000675687
0.000696213
0.000717459
0.000739484
0.000762334
0.000786039
0.000810609
0.00083603
0.000862265
0.000889262
0.000916956
0.000945281
0.000974168
0.00100355
0.00103337
0.00106357
0.0010941
0.0011249
0.00115594
0.00118719
0.00121861
0.00125021
0.00128197
0.00131391
0.00134603
0.00137835
0.00141089
0.00144366
0.00147667
0.00150994
0.00154348
0.00157731
0.00161142
0.00164583
0.00168054
0.00171556
0.00175088
0.00178651
0.00182244
0.00185866
0.00189518
0.00193198
0.00196905
0.00200638
0.00204396
0.00208177
0.00211979
0.00215801
0.0021964
0.00223496
0.00227365
0.00231245
0.00235134
0.0023903
0.00242931
0.00246833
0.00250734
0.00254632
0.00258524
0.00262408
0.0026628
0.00270139
0.00273982
0.00277806
0.00281609
0.00285389
0.00289144
0.0029287
0.00296566
0.00300231
0.00303861
0.00307455
0.0031101
0.00314526
0.00318
0.0032143
0.00324814
0.00328144
0.00331418
0.00334643
0.00337821
0.00340954
0.0034404
0.0034708
0.00350072
0.00353013
0.00355903
0.00358739
0.00361518
0.0036424
0.00366901
0.00369501
0.00372037
0.00374507
0.0037691
0.00379243
0.00381505
0.00383694
0.00385808
0.00387846
0.00389806
0.00391687
0.00393487
0.00395206
0.00396841
0.00398393
0.0039986
0.0040124
0.00402534
0.0040374
0.00404857
0.00405885
0.00406824
0.00407674
0.00408433
0.00409102
0.0040968
0.00410168
0.00410566
0.00410874
0.00411092
0.00411221
0.00411261
0.00411212
0.00411077
0.00410855
0.00410547
0.00410154
0.00409678
0.0040912
0.00408479
0.00407759
0.00406962
0.00406088
0.00405139
0.00404118
0.00403026
0.00401865
0.00400637
0.00399345
0.00397989
0.0039657
0.00395089
0.00393543
0.0039193
0.00390242
0.00388478
0.00386642
0.00384741
0.00382782
0.00380772
0.00378717
0.00376622
0.00374494
0.00372338
0.00370158
0.00367957
0.00365737
0.00363483
0.0036116
0.00358666
0.0035584
1.3256e-05
0.000106836
0.000211749
0.000298152
0.000366442
0.000420142
0.000462674
0.000496944
0.000525323
0.000549701
0.000571539
0.000591927
0.000611646
0.000631236
0.000651052
0.00067132
0.000692186
0.000713743
0.000736053
0.000759163
0.000783105
0.000807901
0.000833559
0.000860071
0.000887417
0.000915558
0.000944444
0.000974016
0.00100421
0.00103496
0.0010662
0.00109787
0.00112992
0.00116229
0.00119494
0.00122784
0.00126095
0.00129425
0.00132773
0.00136139
0.00139521
0.00142921
0.0014634
0.00149779
0.0015324
0.00156724
0.00160232
0.00163766
0.00167326
0.00170915
0.00174532
0.00178178
0.00181855
0.00185561
0.00189297
0.00193064
0.0019686
0.00200685
0.00204538
0.0020842
0.00212328
0.00216261
0.00220218
0.00224197
0.00228198
0.00232217
0.00236253
0.00240305
0.00244369
0.00248444
0.00252528
0.00256617
0.0026071
0.00264804
0.00268896
0.00272984
0.00277065
0.00281137
0.00285196
0.0028924
0.00293266
0.00297273
0.00301257
0.00305216
0.00309147
0.00313049
0.0031692
0.00320756
0.00324557
0.00328321
0.00332045
0.00335728
0.00339368
0.00342963
0.00346512
0.00350006
0.00353449
0.00356846
0.00360198
0.00363504
0.00366765
0.0036998
0.00373146
0.00376262
0.00379325
0.00382334
0.00385287
0.00388181
0.00391015
0.00393785
0.00396491
0.00399131
0.00401701
0.00404201
0.00406629
0.00408982
0.00411258
0.00413456
0.00415575
0.00417612
0.00419567
0.00421437
0.00423223
0.00424922
0.00426534
0.00428057
0.00429491
0.00430833
0.00432084
0.00433244
0.00434311
0.00435285
0.00436167
0.00436955
0.00437648
0.00438248
0.00438753
0.00439166
0.00439487
0.00439714
0.00439847
0.00439889
0.0043984
0.00439702
0.00439472
0.00439153
0.00438746
0.00438254
0.00437675
0.00437013
0.0043627
0.00435445
0.00434542
0.00433562
0.00432506
0.00431377
0.00430177
0.00428907
0.00427568
0.00426162
0.00424689
0.0042315
0.00421541
0.00419862
0.0041811
0.00416288
0.004144
0.00412453
0.00410452
0.00408402
0.00406309
0.0040418
0.0040202
0.00399837
0.00397637
0.00395422
0.00393188
0.00390907
0.00388509
0.00385885
1.43884e-05
0.000111881
0.000221539
0.000312836
0.000385795
0.000443798
0.00049022
0.000527952
0.000559378
0.000586418
0.000610588
0.000633047
0.000654655
0.000676028
0.000697591
0.000719623
0.000742304
0.000765745
0.000790011
0.000815136
0.000841132
0.000867996
0.000895713
0.000924251
0.000953571
0.000983623
0.00101435
0.00104569
0.00107758
0.00110996
0.00114277
0.00117595
0.00120947
0.00124326
0.0012773
0.00131156
0.00134601
0.00138064
0.00141544
0.00145041
0.00148554
0.00152085
0.00155634
0.00159203
0.00162793
0.00166405
0.00170041
0.00173701
0.00177387
0.00181101
0.00184841
0.0018861
0.00192408
0.00196236
0.00200092
0.00203978
0.00207892
0.00211835
0.00215806
0.00219804
0.00223828
0.00227878
0.00231951
0.00236046
0.00240162
0.00244298
0.0024845
0.00252619
0.002568
0.00260993
0.00265195
0.00269403
0.00273615
0.0027783
0.00282043
0.00286252
0.00290456
0.0029465
0.00298832
0.00303
0.00307151
0.00311281
0.00315389
0.00319472
0.00323528
0.00327553
0.00331547
0.00335507
0.00339431
0.00343317
0.00347164
0.0035097
0.00354734
0.00358454
0.00362125
0.00365748
0.00369327
0.00372862
0.00376354
0.00379804
0.00383209
0.00386569
0.00389881
0.00393145
0.00396356
0.00399514
0.00402617
0.00405661
0.00408644
0.00411565
0.00414422
0.00417211
0.00419932
0.00422582
0.00425159
0.0042766
0.00430085
0.0043243
0.00434695
0.00436877
0.00438976
0.00440989
0.00442916
0.00444755
0.00446505
0.00448166
0.00449735
0.00451211
0.00452593
0.00453882
0.00455076
0.00456176
0.00457182
0.00458092
0.00458905
0.00459621
0.00460241
0.00460766
0.00461199
0.00461533
0.00461771
0.00461914
0.00461964
0.00461921
0.00461785
0.00461557
0.0046124
0.00460833
0.00460338
0.00459757
0.00459091
0.00458341
0.00457509
0.00456597
0.00455606
0.00454539
0.00453396
0.00452179
0.00450891
0.00449531
0.00448102
0.00446602
0.00445033
0.00443392
0.00441681
0.00439901
0.00438054
0.00436146
0.00434182
0.00432166
0.00430104
0.00428003
0.00425871
0.00423716
0.00421545
0.00419365
0.00417175
0.0041496
0.00412664
0.00410214
1.52312e-05
0.000115485
0.000228711
0.000323992
0.00040097
0.000462839
0.000512875
0.000553916
0.00058832
0.000618009
0.00064452
0.000669052
0.000692516
0.000715585
0.000738735
0.000762291
0.000786466
0.000811387
0.000837129
0.000863721
0.000891167
0.000919453
0.000948546
0.000978406
0.00100898
0.00104022
0.00107206
0.00110445
0.00113731
0.0011706
0.00120427
0.00123825
0.00127252
0.00130703
0.00134176
0.00137667
0.00141176
0.00144701
0.00148241
0.00151797
0.00155368
0.00158956
0.00162561
0.00166184
0.00169827
0.00173491
0.00177178
0.00180887
0.00184622
0.00188382
0.00192169
0.00195983
0.00199825
0.00203695
0.00207594
0.00211522
0.00215479
0.00219463
0.00223476
0.00227517
0.00231584
0.00235677
0.00239794
0.00243936
0.00248099
0.00252284
0.00256487
0.00260708
0.00264945
0.00269195
0.00273457
0.00277727
0.00282005
0.00286286
0.0029057
0.00294852
0.00299131
0.00303402
0.00307665
0.00311915
0.00316149
0.00320366
0.00324561
0.00328732
0.00332878
0.00336994
0.00341079
0.00345132
0.00349149
0.0035313
0.00357072
0.00360975
0.00364836
0.00368654
0.00372431
0.00376167
0.00379862
0.00383519
0.00387136
0.00390713
0.00394249
0.0039774
0.00401187
0.00404585
0.00407933
0.00411229
0.00414469
0.00417653
0.00420777
0.00423839
0.00426837
0.00429768
0.00432631
0.00435423
0.00438142
0.00440787
0.00443354
0.00445841
0.00448246
0.00450569
0.00452807
0.00454959
0.00457023
0.00459
0.00460887
0.00462684
0.00464387
0.00465996
0.0046751
0.00468929
0.00470252
0.0047148
0.00472613
0.00473649
0.00474585
0.00475423
0.00476163
0.00476806
0.00477353
0.00477802
0.00478153
0.00478409
0.00478569
0.00478634
0.00478605
0.00478483
0.00478269
0.00477964
0.00477569
0.00477086
0.00476516
0.0047586
0.00475119
0.00474296
0.00473392
0.00472408
0.00471346
0.00470207
0.00468993
0.00467705
0.00466345
0.00464912
0.00463407
0.0046183
0.00460182
0.00458465
0.00456681
0.00454834
0.00452927
0.00450967
0.00448958
0.00446909
0.00444826
0.00442719
0.00440598
0.00438471
0.00436342
0.00434201
0.00432006
0.00429701
1.58038e-05
0.000117805
0.00023352
0.000331915
0.000412258
0.000477518
0.000530831
0.00057495
0.000612179
0.000644415
0.000673189
0.000699715
0.000724935
0.000749555
0.000774091
0.000798903
0.000824231
0.000850227
0.000876973
0.000904505
0.000932829
0.000961923
0.000991754
0.00102227
0.00105343
0.00108517
0.00111744
0.00115017
0.00118331
0.00121681
0.00125063
0.00128471
0.00131903
0.00135354
0.00138824
0.00142309
0.00145809
0.00149322
0.00152849
0.00156389
0.00159943
0.00163511
0.00167096
0.00170697
0.00174317
0.00177956
0.00181616
0.00185299
0.00189005
0.00192736
0.00196493
0.00200276
0.00204088
0.00207929
0.00211798
0.00215697
0.00219625
0.00223584
0.00227572
0.00231589
0.00235636
0.00239711
0.00243814
0.00247943
0.00252099
0.00256279
0.00260483
0.00264708
0.00268953
0.00273216
0.00277495
0.00281788
0.00286093
0.00290406
0.00294726
0.00299049
0.00303373
0.00307695
0.00312011
0.00316319
0.00320614
0.00324894
0.00329156
0.00333397
0.00337614
0.00341804
0.00345964
0.00350093
0.00354189
0.00358249
0.00362272
0.00366257
0.00370202
0.00374114
0.00377992
0.00381835
0.00385645
0.00389419
0.00393157
0.00396858
0.0040052
0.00404141
0.00407718
0.00411248
0.0041473
0.00418161
0.00421538
0.00424859
0.00428121
0.00431322
0.0043446
0.00437531
0.00440534
0.00443467
0.00446328
0.00449114
0.00451822
0.0045445
0.00456996
0.00459458
0.00461835
0.00464126
0.00466328
0.00468442
0.00470467
0.00472402
0.00474241
0.00475985
0.00477632
0.00479184
0.00480639
0.00481997
0.00483259
0.00484422
0.00485486
0.00486451
0.00487317
0.00488086
0.00488756
0.00489328
0.00489802
0.00490179
0.00490459
0.00490644
0.00490734
0.00490729
0.00490632
0.00490442
0.00490161
0.0048979
0.00489331
0.00488785
0.00488152
0.00487435
0.00486635
0.00485753
0.00484791
0.0048375
0.00482631
0.00481435
0.00480164
0.00478819
0.004774
0.00475907
0.00474343
0.00472708
0.00471004
0.00469235
0.00467405
0.00465518
0.00463581
0.00461599
0.00459583
0.00457542
0.00455486
0.00453426
0.00451367
0.00449304
0.00447204
0.0044502
1.61337e-05
0.000119012
0.000236249
0.000336928
0.000419976
0.000488108
0.000544294
0.000591175
0.000630981
0.000665562
0.000696424
0.000724776
0.000751567
0.000777524
0.000803188
0.000828945
0.00085506
0.000881702
0.000908971
0.000936914
0.00096554
0.000994833
0.00102476
0.00105528
0.00108634
0.00111788
0.00114986
0.00118222
0.00121491
0.00124789
0.0012811
0.00131453
0.00134813
0.00138189
0.00141577
0.00144978
0.00148389
0.00151812
0.00155244
0.00158688
0.00162144
0.00165613
0.00169096
0.00172594
0.0017611
0.00179645
0.001832
0.00186777
0.00190378
0.00194004
0.00197658
0.00201339
0.0020505
0.00208792
0.00212565
0.00216371
0.0022021
0.00224083
0.0022799
0.00231931