/*--------------------------------*- C++ -*----------------------------------*\
  =========                 |
  \\      /  F ield         | OpenFOAM: The Open Source CFD Toolbox
   \\    /   O peration     | Website:  https://openfoam.org
    \\  /    A nd           | Version:  12
     \\/     M anipulation  |
\*---------------------------------------------------------------------------*/
FoamFile
{
    format      ascii;
    class       volScalarField;
    location    "0.12";
    object      p;
}
// * * * * * * * * * * * * * * * * * * * * * * * * * * * * * * * * * * * * * //

dimensions      [0 2 -2 0 0 0 0];

internalField   nonuniform List<scalar> 
12225
(
-1.1841
-3.46702
-4.6293
-4.9372
-5.1051
-5.26434
-5.38834
-5.47602
-5.54474
-5.60465
-5.65751
-5.70303
-5.74142
-5.77173
-5.79253
-5.79249
-5.7813
-5.65706
-4.65161
-5.35364
-5.44369
-5.30834
-5.26791
-5.33474
-5.41491
-5.48005
-5.53619
-5.58851
-5.63675
-5.67968
-5.71688
-5.74726
-5.77021
-5.77788
-5.78415
-5.75821
-4.85637
-4.75334
-4.90993
-5.03179
-5.13879
-5.26065
-5.36838
-5.45036
-5.51672
-5.57553
-5.62843
-5.67509
-5.71559
-5.74949
-5.77711
-5.79493
-5.81838
-5.84574
-4.71909
-4.64088
-4.91677
-5.09523
-5.18933
-5.28603
-5.3806
-5.45749
-5.52127
-5.5785
-5.63061
-5.67716
-5.71824
-5.75389
-5.78511
-5.81189
-5.84701
-5.8974
-4.72609
-4.74326
-4.98317
-5.13281
-5.2085
-5.29279
-5.38188
-5.45731
-5.52051
-5.57732
-5.62937
-5.67644
-5.71874
-5.75679
-5.79212
-5.82656
-5.86963
-5.92891
-4.78781
-4.8302
-5.00781
-5.13828
-5.21595
-5.29807
-5.38388
-5.45813
-5.52103
-5.57767
-5.62984
-5.67754
-5.72116
-5.76156
-5.80054
-5.84061
-5.88858
-5.95052
-4.8476
-4.88704
-5.02328
-5.14524
-5.22732
-5.30665
-5.38786
-5.46016
-5.52256
-5.57898
-5.63122
-5.67954
-5.72442
-5.76692
-5.80889
-5.85282
-5.90344
-5.96475
-4.90081
-4.93563
-5.04577
-5.15817
-5.24043
-5.31596
-5.39248
-5.46264
-5.52444
-5.5806
-5.6329
-5.68178
-5.72781
-5.7721
-5.81634
-5.86269
-5.91427
-5.97329
-4.95067
-4.98234
-5.07298
-5.17356
-5.25336
-5.32549
-5.39784
-5.46573
-5.52671
-5.58253
-5.6348
-5.68413
-5.7311
-5.77676
-5.82254
-5.87013
-5.92149
-5.97756
-4.99813
-5.02669
-5.10173
-5.19043
-5.26655
-5.33563
-5.4042
-5.4696
-5.5295
-5.58482
-5.63694
-5.68654
-5.73417
-5.78072
-5.82736
-5.87529
-5.92566
-5.97866
-5.04302
-5.06824
-5.13091
-5.20879
-5.28044
-5.34645
-5.41147
-5.47427
-5.53284
-5.58751
-5.63934
-5.68897
-5.73694
-5.78394
-5.83085
-5.87846
-5.92739
-5.97746
-5.08165
-5.10394
-5.15766
-5.22675
-5.29381
-5.35685
-5.41884
-5.47923
-5.53642
-5.59033
-5.64173
-5.69119
-5.73917
-5.7862
-5.83292
-5.87984
-5.92727
-5.97486
-5.1175
-5.13725
-5.18367
-5.24505
-5.30743
-5.36745
-5.4266
-5.48465
-5.54035
-5.59338
-5.64422
-5.69333
-5.74109
-5.78788
-5.83412
-5.88011
-5.92599
-5.97134
-5.15521
-5.17248
-5.21218
-5.26604
-5.32324
-5.37976
-5.43585
-5.49132
-5.54523
-5.59711
-5.64713
-5.69563
-5.74286
-5.78907
-5.83449
-5.87924
-5.92334
-5.96641
-5.19359
-5.20846
-5.24224
-5.28915
-5.34095
-5.3936
-5.44646
-5.49919
-5.55103
-5.60144
-5.65036
-5.69794
-5.7443
-5.78955
-5.83379
-5.87703
-5.91921
-5.96003
-5.23068
-5.24341
-5.27223
-5.3131
-5.35969
-5.40836
-5.45794
-5.50787
-5.55746
-5.60614
-5.65365
-5.69998
-5.74512
-5.78909
-5.83186
-5.87338
-5.91359
-5.95226
-5.26364
-5.27464
-5.29961
-5.33561
-5.3777
-5.42269
-5.4692
-5.51646
-5.56379
-5.61058
-5.65648
-5.70132
-5.74498
-5.78741
-5.82853
-5.86826
-5.90653
-5.94321
-5.28811
-5.29792
-5.32033
-5.35305
-5.39195
-5.43416
-5.47824
-5.52334
-5.56872
-5.61378
-5.65808
-5.70138
-5.7435
-5.78435
-5.82381
-5.86181
-5.89829
-5.93319
-5.29714
-5.30652
-5.32804
-5.35966
-5.39747
-5.43862
-5.48163
-5.52564
-5.56994
-5.61389
-5.65704
-5.69912
-5.73996
-5.77944
-5.81748
-5.85402
-5.88903
-5.92248
-5.2827
-5.29279
-5.31586
-5.34963
-5.38959
-5.43239
-5.47651
-5.52126
-5.56602
-5.61016
-5.65323
-5.69501
-5.73537
-5.77423
-5.81154
-5.84727
-5.88142
-5.914
-5.25687
-5.2681
-5.29399
-5.33186
-5.37582
-5.42162
-5.46795
-5.51449
-5.5606
-5.6056
-5.64914
-5.69111
-5.73148
-5.77019
-5.80722
-5.84259
-5.87632
-5.90846
-5.22219
-5.23462
-5.26476
-5.3094
-5.35912
-5.40851
-5.45756
-5.50661
-5.55473
-5.60101
-5.64531
-5.68772
-5.72831
-5.76707
-5.804
-5.83918
-5.87267
-5.90454
-5.18178
-5.19443
-5.22991
-5.28468
-5.34203
-5.39531
-5.44721
-5.49898
-5.54917
-5.5968
-5.64198
-5.685
-5.72594
-5.76484
-5.80179
-5.83689
-5.87024
-5.90196
-5.13808
-5.1497
-5.1922
-5.259
-5.32394
-5.38186
-5.4381
-5.49316
-5.5451
-5.59363
-5.63948
-5.683
-5.72423
-5.76323
-5.80016
-5.83518
-5.86842
-5.9
-5.09132
-5.09913
-5.1603
-5.24027
-5.30565
-5.3656
-5.42784
-5.4878
-5.54198
-5.5915
-5.63804
-5.68205
-5.7235
-5.76253
-5.7994
-5.83432
-5.86745
-5.89895
-5.04343
-5.01984
-5.13076
-5.23988
-5.30069
-5.35507
-5.41884
-5.48158
-5.53728
-5.58774
-5.6351
-5.6797
-5.72149
-5.76067
-5.79758
-5.83249
-5.86559
-5.89704
-5.03416
-4.88989
-5.04905
-5.21543
-5.30016
-5.36146
-5.42658
-5.4881
-5.54225
-5.59183
-5.6387
-5.68287
-5.7242
-5.76294
-5.79943
-5.83395
-5.86674
-5.89798
-5.17959
-4.89583
-4.93069
-5.06133
-5.18113
-5.28842
-5.38279
-5.45891
-5.52154
-5.5772
-5.62839
-5.67545
-5.71874
-5.75885
-5.79631
-5.8315
-5.86492
-5.89721
-5.1164
-5.61614
-5.62638
-5.4673
-5.38656
-5.41102
-5.46546
-5.51522
-5.5607
-5.60567
-5.64975
-5.69165
-5.731
-5.76799
-5.80283
-5.8356
-5.86656
-5.89757
-1.77773
-3.64834
-4.71973
-5.01296
-5.14801
-5.28502
-5.39724
-5.47757
-5.5409
-5.59733
-5.64906
-5.69619
-5.73927
-5.77904
-5.81591
-5.8499
-5.88066
-5.9064
-6.82162
-6.82119
-6.8213
-6.82198
-6.82301
-6.82425
-6.82569
-6.82736
-6.8293
-6.83161
-6.83433
-6.83754
-6.84129
-6.84567
-6.85075
-6.8566
-6.86327
-6.87084
-6.87936
-6.88889
-6.89949
-6.91125
-6.92422
-6.93835
-6.9537
-6.971
-6.99109
-7.00999
-7.02003
-7.0387
-7.06967
-7.09584
-7.11178
-7.13834
-7.1791
-7.19902
-7.21131
-7.2344
-7.26018
-7.28671
-7.31423
-7.34243
-7.37117
-7.40032
-7.4298
-7.45953
-7.48942
-7.51943
-7.54948
-7.57952
-7.60947
-7.63926
-7.66883
-7.69809
-7.72696
-7.75536
-7.78317
-7.81031
-7.83666
-7.86212
-7.88655
-7.90982
-7.93182
-7.95239
-7.97138
-7.98866
-8.00406
-8.01741
-8.02857
-8.03734
-8.04358
-8.04708
-8.04769
-8.04521
-8.03948
-8.03029
-8.01748
-8.00086
-7.98025
-7.95546
-7.92632
-7.89265
-7.85429
-7.81105
-7.76276
-7.70928
-7.65043
-7.58607
-7.51604
-7.44021
-7.35845
-7.27062
-7.17661
-7.07632
-6.9697
-6.85676
-6.73747
-6.61155
-6.47894
-6.33922
-6.19257
-6.03905
-5.87867
-5.71145
-5.5374
-5.35656
-5.16896
-4.97468
-4.77377
-4.56635
-4.35251
-4.13239
-3.90611
-3.67384
-3.43576
-3.19203
-2.94288
-2.6885
-2.42914
-2.16503
-1.89642
-1.62358
-1.34679
-1.06633
-0.782495
-0.495586
-0.205914
0.086208
0.380459
0.676515
0.97405
1.27274
1.57225
1.87225
2.17242
2.47244
2.77198
3.07073
3.36839
3.66465
3.95921
4.2518
4.54213
4.82995
5.115
5.39703
5.67583
5.95116
6.22283
6.49065
6.75444
7.01403
7.26928
7.52004
7.7662
8.00764
8.24427
8.476
8.70277
8.92451
9.1412
9.35283
9.55936
9.76073
9.9568
10.1475
10.3328
10.5129
10.6876
10.8572
11.0215
11.1806
11.3347
11.4837
11.628
11.7678
11.9044
12.0395
12.1833
12.3365
-6.82078
-6.82064
-6.82078
-6.82134
-6.82195
-6.82238
-6.82266
-6.82297
-6.82354
-6.82454
-6.82607
-6.82819
-6.83094
-6.83435
-6.83844
-6.84327
-6.84887
-6.85532
-6.86265
-6.87091
-6.88014
-6.89032
-6.9014
-6.91338
-6.92653
-6.94079
-6.95477
-6.96747
-6.99082
-7.01513
-7.03094
-7.04628
-7.07368
-7.09984
-7.11047
-7.13427
-7.17276
-7.20616
-7.23527
-7.26384
-7.29244
-7.32118
-7.35013
-7.3793
-7.40869
-7.43825
-7.46795
-7.49774
-7.52757
-7.55739
-7.58713
-7.61674
-7.64614
-7.67526
-7.70401
-7.7323
-7.76005
-7.78715
-7.8135
-7.83897
-7.86346
-7.88683
-7.90895
-7.92968
-7.94888
-7.96639
-7.98206
-7.99573
-8.00723
-8.0164
-8.02306
-8.02705
-8.02817
-8.02625
-8.02111
-8.01257
-8.00045
-7.98456
-7.96472
-7.94076
-7.91249
-7.87974
-7.84233
-7.8001
-7.75288
-7.7005
-7.64282
-7.57968
-7.51093
-7.43643
-7.35606
-7.26968
-7.17717
-7.07842
-6.97331
-6.86172
-6.74359
-6.61855
-6.48656
-6.34812
-6.203
-6.05109
-5.89238
-5.72685
-5.55451
-5.37538
-5.1895
-4.99694
-4.79776
-4.59205
-4.37992
-4.16149
-3.9369
-3.70629
-3.46984
-3.22773
-2.98016
-2.72734
-2.46949
-2.20685
-1.93967
-1.66822
-1.39277
-1.11359
-0.83099
-0.545258
-0.256703
0.0343609
0.327617
0.622742
0.919411
1.2173
1.51608
1.81542
2.11499
2.41449
2.71357
3.01194
3.30928
3.60529
3.89967
4.19215
4.48243
4.77026
5.05539
5.33756
5.61655
5.89213
6.1641
6.43227
6.69646
6.9565
7.21223
7.46352
7.71024
7.95227
8.18953
8.42191
8.64937
8.87182
9.08924
9.30161
9.50889
9.71101
9.90782
10.0993
10.2854
10.4662
10.6418
10.8121
10.9772
11.1372
11.292
11.442
11.5873
11.7285
11.867
12.004
12.1505
12.297
-6.81733
-6.81812
-6.81912
-6.82018
-6.82094
-6.82132
-6.82147
-6.8216
-6.82193
-6.82264
-6.82384
-6.82562
-6.82803
-6.83114
-6.83497
-6.83957
-6.84499
-6.85127
-6.85847
-6.86663
-6.87579
-6.88599
-6.89723
-6.90953
-6.923
-6.93772
-6.95341
-6.97
-6.98928
-7.01032
-7.03027
-7.05089
-7.0738
-7.09743
-7.11841
-7.14123
-7.16802
-7.19555
-7.22289
-7.25051
-7.27843
-7.3066
-7.33502
-7.36365
-7.39249
-7.42151
-7.45067
-7.47993
-7.50925
-7.53856
-7.56783
-7.59698
-7.62595
-7.65466
-7.68303
-7.71097
-7.7384
-7.76521
-7.79131
-7.81656
-7.84086
-7.86408
-7.88609
-7.90675
-7.92592
-7.94344
-7.95917
-7.97294
-7.9846
-7.99397
-8.00088
-8.00517
-8.00664
-8.00514
-8.00046
-7.99244
-7.9809
-7.96564
-7.9465
-7.92329
-7.89583
-7.86395
-7.82747
-7.78623
-7.74006
-7.68879
-7.63228
-7.57036
-7.50289
-7.42973
-7.35074
-7.2658
-7.17477
-7.07756
-6.97403
-6.86402
-6.74732
-6.62425
-6.49434
-6.35778
-6.21452
-6.06451
-5.90772
-5.74413
-5.57376
-5.39661
-5.21273
-5.02218
-4.82501
-4.62131
-4.41119
-4.19476
-3.97215
-3.74352
-3.50902
-3.26883
-3.02316
-2.7722
-2.51618
-2.25533
-1.98989
-1.72014
-1.44633
-1.16874
-0.887671
-0.603408
-0.316258
-0.0265307
0.265458
0.559388
0.854937
1.15178
1.44959
1.74804
2.04681
2.34558
2.64402
2.94183
3.23869
3.5343
3.82836
4.1206
4.41072
4.69847
4.98359
5.26583
5.54496
5.82075
6.093
6.36151
6.6261
6.88659
7.14284
7.39469
7.64202
7.88471
8.12266
8.35578
8.58398
8.80721
9.0254
9.23853
9.44655
9.64941
9.84706
10.0394
10.2265
10.4083
10.5849
10.7562
10.9223
11.0832
11.2391
11.3902
11.5368
11.6795
11.8198
11.9584
12.1069
12.2415
-6.81095
-6.8131
-6.81546
-6.81748
-6.81885
-6.81966
-6.82013
-6.82051
-6.82098
-6.82174
-6.82292
-6.82463
-6.82696
-6.82998
-6.83373
-6.83827
-6.84364
-6.8499
-6.85708
-6.86524
-6.8744
-6.88462
-6.89591
-6.90829
-6.92182
-6.93651
-6.95237
-6.96941
-6.98776
-7.00733
-7.02756
-7.04863
-7.07068
-7.09346
-7.11657
-7.14049
-7.16557
-7.19143
-7.21778
-7.24457
-7.27174
-7.29924
-7.32703
-7.35509
-7.38338
-7.41187
-7.44053
-7.46931
-7.49818
-7.52708
-7.55595
-7.58473
-7.61336
-7.64176
-7.66986
-7.69756
-7.72477
-7.7514
-7.77734
-7.80247
-7.82668
-7.84985
-7.87184
-7.89251
-7.91173
-7.92934
-7.94519
-7.95912
-7.97097
-7.98057
-7.98776
-7.99235
-7.99418
-7.99306
-7.98882
-7.98128
-7.97025
-7.95555
-7.937
-7.91443
-7.88766
-7.85651
-7.8208
-7.78038
-7.73506
-7.6847
-7.62912
-7.56819
-7.50174
-7.42963
-7.35173
-7.26791
-7.17803
-7.08197
-6.97962
-6.87084
-6.75553
-6.6337
-6.50524
-6.37014
-6.22835
-6.07983
-5.92454
-5.76247
-5.59363
-5.41803
-5.2357
-5.0467
-4.85109
-4.64895
-4.44039
-4.22551
-4.00444
-3.77734
-3.54435
-3.30566
-3.06146
-2.81195
-2.55735
-2.29789
-2.03381
-1.76538
-1.49285
-1.2165
-0.936626
-0.65351
-0.367459
-0.0787788
0.212216
0.505207
0.799874
1.09589
1.39294
1.69069
1.98882
2.28701
2.58494
2.88229
3.17876
3.47404
3.76785
4.05988
4.34987
4.63755
4.92265
5.20493
5.48415
5.7601
6.03256
6.30133
6.56622
6.82707
7.08371
7.336
7.58381
7.82701
8.0655
8.29918
8.52799
8.75185
8.97069
9.18447
9.3931
9.59654
9.79478
9.98782
10.1756
10.3581
10.5353
10.7073
10.8741
11.0358
11.1925
11.3444
11.4919
11.6354
11.7766
11.915
12.0619
12.1832
-6.80279
-6.80639
-6.8105
-6.8139
-6.81623
-6.81777
-6.81886
-6.81974
-6.82063
-6.82173
-6.82319
-6.82515
-6.82771
-6.83094
-6.83492
-6.8397
-6.84534
-6.85187
-6.85936
-6.86783
-6.87732
-6.88787
-6.89949
-6.91221
-6.92603
-6.94096
-6.957
-6.97412
-6.99232
-7.01152
-7.03156
-7.05241
-7.07405
-7.0964
-7.11938
-7.14313
-7.16768
-7.19287
-7.21857
-7.24471
-7.27125
-7.29816
-7.3254
-7.35294
-7.38075
-7.40879
-7.43703
-7.46542
-7.49393
-7.52249
-7.55106
-7.57957
-7.60795
-7.63614
-7.66404
-7.69158
-7.71866
-7.74519
-7.77105
-7.79613
-7.82032
-7.84349
-7.8655
-7.88623
-7.90553
-7.92324
-7.93923
-7.95332
-7.96535
-7.97517
-7.9826
-7.98746
-7.98958
-7.98878
-7.98489
-7.97771
-7.96709
-7.95282
-7.93473
-7.91265
-7.88639
-7.85578
-7.82064
-7.78082
-7.73613
-7.68642
-7.63152
-7.5713
-7.50558
-7.43424
-7.35712
-7.27411
-7.18506
-7.08986
-6.98839
-6.88055
-6.76622
-6.64537
-6.51794
-6.38386
-6.2431
-6.09562
-5.94137
-5.78035
-5.61257
-5.43803
-5.25677
-5.06883
-4.87429
-4.67322
-4.46571
-4.25189
-4.03187
-3.8058
-3.57384
-3.33617
-3.09297
-2.84444
-2.5908
-2.33228
-2.06912
-1.80158
-1.52992
-1.25442
-0.975353
-0.693018
-0.407713
-0.119746
0.170571
0.462922
0.756987
1.05244
1.34897
1.64624
1.94393
2.24172
2.53929
2.83633
3.13253
3.42759
3.72121
4.0131
4.303
4.59062
4.8757
5.15801
5.4373
5.71336
5.98596
6.2549
6.52001
6.78111
7.03803
7.29062
7.53876
7.78232
8.0212
8.25531
8.48454
8.70884
8.92813
9.14234
9.35139
9.55522
9.75384
9.94725
10.1354
10.3184
10.496
10.6685
10.8357
10.9979
11.155
11.3074
11.4553
11.5991
11.7401
11.8772
12.0206
12.1297
-6.79456
-6.79952
-6.80536
-6.8102
-6.81364
-6.8161
-6.81797
-6.81955
-6.82108
-6.82275
-6.82475
-6.82722
-6.83027
-6.83399
-6.83845
-6.84373
-6.84987
-6.85692
-6.86492
-6.87391
-6.88391
-6.89494
-6.90702
-6.92014
-6.9343
-6.94951
-6.96572
-6.98292
-7.00105
-7.02008
-7.03991
-7.06051
-7.08184
-7.10383
-7.12648
-7.14978
-7.17375
-7.19831
-7.22339
-7.24895
-7.27494
-7.30134
-7.3281
-7.3552
-7.3826
-7.41027
-7.43817
-7.46625
-7.49448
-7.52279
-7.55114
-7.57946
-7.60768
-7.63573
-7.66352
-7.69098
-7.718
-7.74449
-7.77034
-7.79543
-7.81965
-7.84287
-7.86497
-7.88579
-7.9052
-7.92305
-7.93918
-7.95344
-7.96566
-7.97568
-7.98333
-7.98842
-7.9908
-7.99027
-7.98666
-7.97979
-7.96948
-7.95555
-7.93782
-7.9161
-7.89023
-7.86002
-7.82531
-7.78592
-7.74168
-7.69244
-7.63804
-7.57832
-7.51313
-7.44233
-7.36578
-7.28334
-7.19488
-7.1003
-6.99946
-6.89228
-6.77866
-6.65852
-6.5318
-6.39844
-6.25838
-6.1116
-5.95806
-5.79775
-5.63067
-5.45684
-5.27629
-5.08906
-4.89523
-4.69486
-4.48806
-4.27493
-4.05561
-3.83023
-3.59895
-3.36195
-3.11941
-2.87154
-2.61854
-2.36065
-2.09811
-1.83117
-1.56009
-1.28516
-1.00664
-0.72483
-0.440032
-0.152551
0.137304
0.429216
0.722865
1.01793
1.31409
1.61102
1.9084
2.20591
2.50323
2.80004
3.09605
3.39094
3.68442
3.97621
4.26602
4.55358
4.83865
5.12096
5.40029
5.6764
5.94908
6.21814
6.48339
6.74464
7.00174
7.25454
7.50291
7.74672
7.98587
8.22025
8.44977
8.67436
8.89393
9.10842
9.31774
9.52184
9.72072
9.9144
10.1028
10.286
10.464
10.6367
10.8043
10.9667
11.1241
11.2767
11.4246
11.5683
11.7086
11.8437
11.9837
12.0819
-6.78785
-6.79392
-6.80119
-6.80732
-6.81183
-6.81522
-6.81794
-6.8203
-6.82256
-6.82493
-6.8276
-6.83071
-6.83439
-6.83873
-6.84382
-6.84972
-6.85647
-6.86413
-6.87271
-6.88226
-6.89278
-6.90429
-6.91679
-6.93026
-6.94471
-6.96011
-6.97643
-6.99364
-7.0117
-7.03056
-7.05019
-7.07054
-7.09157
-7.11326
-7.13557
-7.1585
-7.18203
-7.20612
-7.23074
-7.25584
-7.28141
-7.3074
-7.33378
-7.36054
-7.38763
-7.41502
-7.44267
-7.47054
-7.49858
-7.52673
-7.55495
-7.58316
-7.61131
-7.6393
-7.66707
-7.69452
-7.72155
-7.74808
-7.77398
-7.79914
-7.82345
-7.84678
-7.86898
-7.88994
-7.90949
-7.92749
-7.94379
-7.95823
-7.97064
-7.98085
-7.9887
-7.994
-7.9966
-7.9963
-7.99292
-7.98629
-7.97623
-7.96255
-7.94508
-7.92364
-7.89804
-7.86812
-7.83369
-7.79461
-7.75068
-7.70177
-7.6477
-7.58832
-7.52348
-7.45305
-7.37687
-7.29482
-7.20677
-7.1126
-7.0122
-6.90546
-6.7923
-6.67263
-6.54636
-6.41346
-6.27385
-6.12752
-5.97443
-5.81456
-5.64793
-5.47454
-5.29443
-5.10764
-4.91425
-4.71432
-4.50796
-4.29527
-4.07638
-3.85144
-3.6206
-3.38402
-3.14191
-2.89445
-2.64187
-2.38439
-2.12225
-1.8557
-1.58502
-1.31045
-1.0323
-0.750855
-0.466403
-0.179254
0.11028
0.401884
0.69524
0.990026
1.28592
1.58261
1.87976
2.17705
2.47417
2.77081
3.06665
3.3614
3.65477
3.94645
4.23617
4.52368
4.8087
5.09099
5.37031
5.64643
5.91914
6.18825
6.45356
6.7149
6.97211
7.22504
7.47355
7.71751
7.95682
8.19137
8.42107
8.64584
8.8656
9.08027
9.28977
9.49405
9.69312
9.88698
10.0756
10.259
10.4371
10.6101
10.7778
10.9404
11.0979
11.2505
11.3983
11.5415
11.6808
11.8137
11.9505
12.0392
-6.78371
-6.79056
-6.79887
-6.80599
-6.8114
-6.81563
-6.81915
-6.82228
-6.82528
-6.82837
-6.83174
-6.83553
-6.83988
-6.84488
-6.85062
-6.85714
-6.86451
-6.87275
-6.88189
-6.89196
-6.90295
-6.91487
-6.92772
-6.94148
-6.95614
-6.97167
-6.98805
-7.00524
-7.02322
-7.04195
-7.06139
-7.08151
-7.10229
-7.12371
-7.14573
-7.16836
-7.19155
-7.2153
-7.23958
-7.26436
-7.28961
-7.31532
-7.34145
-7.36797
-7.39485
-7.42207
-7.44957
-7.47732
-7.50526
-7.53335
-7.56153
-7.58973
-7.61788
-7.6459
-7.67371
-7.70123
-7.72834
-7.75497
-7.78098
-7.80627
-7.83071
-7.85418
-7.87654
-7.89765
-7.91737
-7.93554
-7.95202
-7.96663
-7.97921
-7.9896
-7.99763
-8.00312
-8.00589
-8.00577
-8.00257
-7.99612
-7.98624
-7.97274
-7.95544
-7.93417
-7.90875
-7.87901
-7.84477
-7.80587
-7.76213
-7.7134
-7.65953
-7.60035
-7.53573
-7.46551
-7.38955
-7.30774
-7.21992
-7.126
-7.02585
-6.91938
-6.80648
-6.68706
-6.56106
-6.4284
-6.28904
-6.14295
-5.99009
-5.83046
-5.66406
-5.4909
-5.31102
-5.12447
-4.93131
-4.73162
-4.5255
-4.31305
-4.09441
-3.86971
-3.63911
-3.40278
-3.16092
-2.91371
-2.66137
-2.40414
-2.14225
-1.87595
-1.6055
-1.33118
-1.05327
-0.772058
-0.487837
-0.200916
0.0883955
0.379783
0.672927
0.96751
1.26321
1.55971
1.85668
2.1538
2.45076
2.74724
3.04295
3.33757
3.63081
3.92239
4.21202
4.49944
4.78439
5.06662
5.3459
5.62199
5.89469
6.1638
6.42913
6.6905
6.94774
7.20072
7.4493
7.69333
7.93273
8.16737
8.39717
8.62204
8.8419
9.05667
9.26629
9.4707
9.66989
9.86387
10.0526
10.2361
10.4144
10.5874
10.7552
10.9179
11.0754
11.2278
11.3754
11.5179
11.656
11.7867
11.9205
12.001
-6.78264
-6.78992
-6.79885
-6.80663
-6.81272
-6.81763
-6.82183
-6.82563
-6.8293
-6.83306
-6.83707
-6.8415
-6.84647
-6.85208
-6.8584
-6.86549
-6.87339
-6.88214
-6.89175
-6.90223
-6.9136
-6.92585
-6.93896
-6.95292
-6.96772
-6.98333
-6.99973
-7.01689
-7.03478
-7.05338
-7.07267
-7.09261
-7.11319
-7.13439
-7.1562
-7.17859
-7.20155
-7.22507
-7.24912
-7.27369
-7.29875
-7.32429
-7.35027
-7.37667
-7.40345
-7.4306
-7.45805
-7.48578
-7.51372
-7.54184
-7.57006
-7.59833
-7.62656
-7.65468
-7.68261
-7.71025
-7.73751
-7.76428
-7.79045
-7.8159
-7.84051
-7.86416
-7.88669
-7.90797
-7.92787
-7.94621
-7.96285
-7.97762
-7.99036
-8.00091
-8.00908
-8.0147
-8.01761
-8.01761
-8.01453
-8.00819
-7.99841
-7.98501
-7.9678
-7.94662
-7.92129
-7.89162
-7.85746
-7.81863
-7.77497
-7.72632
-7.67252
-7.61342
-7.54888
-7.47874
-7.40288
-7.32116
-7.23345
-7.13963
-7.03959
-6.93322
-6.82042
-6.70109
-6.57517
-6.4426
-6.30332
-6.1573
-6.00451
-5.84495
-5.67862
-5.50553
-5.32573
-5.13925
-4.94617
-4.74656
-4.54053
-4.32817
-4.10963
-3.88503
-3.65454
-3.41833
-3.17658
-2.9295
-2.67729
-2.42019
-2.15844
-1.89228
-1.62198
-1.34781
-1.07006
-0.789
-0.504936
-0.218174
0.0709776
0.362204
0.655189
0.949612
1.24515
1.54149
1.83831
2.13528
2.4321
2.72844
3.024
3.31849
3.6116
3.90306
4.19257
4.47989
4.76474
5.04689
5.32608
5.60211
5.87475
6.14381
6.4091
6.67044
6.92767
7.18064
7.42922
7.67327
7.91268
8.14736
8.37719
8.6021
8.822
9.03682
9.24649
9.45097
9.65023
9.84428
10.0331
10.2167
10.395
10.5681
10.7359
10.8985
11.0559
11.2081
11.3552
11.4969
11.6337
11.7621
11.8933
11.9667
-6.78475
-6.79213
-6.80126
-6.80936
-6.81586
-6.82125
-6.82596
-6.8303
-6.83452
-6.83882
-6.84338
-6.84834
-6.85382
-6.85992
-6.86671
-6.87424
-6.88255
-6.89168
-6.90163
-6.91242
-6.92405
-6.93651
-6.94979
-6.96387
-6.97875
-6.99439
-7.01077
-7.02788
-7.0457
-7.0642
-7.08336
-7.10317
-7.12361
-7.14466
-7.16632
-7.18857
-7.21139
-7.23478
-7.25871
-7.28318
-7.30816
-7.33364
-7.35958
-7.38596
-7.41276
-7.43993
-7.46743
-7.49523
-7.52327
-7.55149
-7.57983
-7.60824
-7.63662
-7.6649
-7.693
-7.72082
-7.74826
-7.77521
-7.80157
-7.8272
-7.852
-7.87582
-7.89852
-7.91998
-7.94003
-7.95852
-7.9753
-7.9902
-8.00306
-8.01371
-8.02198
-8.02768
-8.03066
-8.03072
-8.02768
-8.02138
-8.01162
-7.99823
-7.98103
-7.95985
-7.9345
-7.90482
-7.87064
-7.83178
-7.78809
-7.73941
-7.68558
-7.62646
-7.56189
-7.49173
-7.41584
-7.3341
-7.24638
-7.15255
-7.05249
-6.94608
-6.83324
-6.71387
-6.5879
-6.45527
-6.31593
-6.16985
-6.01701
-5.85739
-5.691
-5.51787
-5.33802
-5.1515
-4.95839
-4.75876
-4.5527
-4.34034
-4.12179
-3.89721
-3.66674
-3.43055
-3.18884
-2.9418
-2.68965
-2.43261
-2.17093
-1.90485
-1.63465
-1.36058
-1.08293
-0.80198
-0.518037
-0.2314
0.0576199
0.348711
0.641555
0.935835
1.23123
1.52741
1.82407
2.12089
2.41755
2.71373
3.00915
3.30348
3.59644
3.88775
4.17713
4.46431
4.74903
5.03105
5.31012
5.58604
5.85858
6.12754
6.39274
6.654
6.91116
7.16407
7.41259
7.6566
7.89598
8.13062
8.36043
8.58533
8.80522
9.02004
9.22972
9.43422
9.63351
9.82759
10.0164
10.2
10.3783
10.5514
10.7192
10.8817
11.0389
11.1908
11.3373
11.4781
11.6135
11.7398
11.8684
11.9358
-6.78978
-6.79698
-6.80595
-6.81405
-6.8207
-6.82634
-6.83137
-6.83608
-6.84068
-6.84537
-6.85032
-6.85567
-6.86152
-6.86796
-6.87507
-6.8829
-6.89148
-6.90085
-6.91101
-6.92198
-6.93374
-6.94631
-6.95966
-6.97379
-6.98868
-7.00431
-7.02066
-7.03771
-7.05546
-7.07388
-7.09296
-7.11268
-7.13303
-7.15401
-7.1756
-7.19779
-7.22057
-7.24392
-7.26785
-7.29232
-7.31732
-7.34284
-7.36885
-7.39531
-7.42221
-7.4495
-7.47714
-7.50508
-7.53328
-7.56168
-7.5902
-7.6188
-7.64737
-7.67586
-7.70415
-7.73217
-7.75981
-7.78696
-7.8135
-7.83932
-7.86428
-7.88826
-7.91112
-7.9327
-7.95287
-7.97147
-7.98834
-8.00331
-8.01623
-8.02692
-8.03521
-8.04092
-8.04388
-8.04391
-8.04084
-8.03448
-8.02466
-8.01119
-7.99391
-7.97263
-7.94717
-7.91738
-7.88308
-7.84411
-7.8003
-7.75149
-7.69754
-7.63829
-7.5736
-7.50332
-7.42733
-7.34548
-7.25764
-7.16369
-7.06349
-6.95694
-6.84395
-6.72442
-6.59829
-6.46551
-6.32601
-6.17978
-6.02678
-5.86702
-5.70049
-5.52722
-5.34724
-5.16061
-4.96739
-4.76767
-4.56153
-4.3491
-4.13049
-3.90586
-3.67536
-3.43915
-3.19743
-2.9504
-2.69827
-2.44127
-2.17963
-1.91362
-1.64348
-1.36949
-1.09193
-0.811091
-0.527268
-0.240761
0.0481218
0.339067
0.63176
0.925881
1.22111
1.51712
1.81361
2.11024
2.40672
2.70272
2.99795
3.29209
3.58487
3.87599
4.16518
4.45218
4.73672
5.01857
5.29748
5.57323
5.84561
6.11443
6.37949
6.64061
6.89765
7.15045
7.39887
7.64278
7.88207
8.11663
8.34637
8.57121
8.79105
9.00582
9.21547
9.41995
9.61924
9.8133
10.0021
10.1857
10.364
10.537
10.7047
10.867
11.024
11.1754
11.3213
11.4612
11.5952
11.7193
11.8456
11.908
-6.79724
-6.80404
-6.81256
-6.82038
-6.82695
-6.83262
-6.83777
-6.84265
-6.84745
-6.85237
-6.85754
-6.8631
-6.86915
-6.87578
-6.88305
-6.89102
-6.89972
-6.90917
-6.91941
-6.93042
-6.94222
-6.95479
-6.96814
-6.98224
-6.99709
-7.01268
-7.02897
-7.04598
-7.06367
-7.08203
-7.10107
-7.12075
-7.14109
-7.16206
-7.18365
-7.20587
-7.22869
-7.25211
-7.27611
-7.30068
-7.3258
-7.35145
-7.3776
-7.40423
-7.43131
-7.45878
-7.48662
-7.51477
-7.54318
-7.57179
-7.60054
-7.62934
-7.65813
-7.68682
-7.71532
-7.74353
-7.77135
-7.79866
-7.82536
-7.85131
-7.8764
-7.90049
-7.92343
-7.94508
-7.9653
-7.98392
-8.0008
-8.01576
-8.02864
-8.03928
-8.04749
-8.05311
-8.05597
-8.05588
-8.05267
-8.04616
-8.03617
-8.02253
-8.00506
-7.98359
-7.95794
-7.92795
-7.89344
-7.85427
-7.81025
-7.76124
-7.70709
-7.64765
-7.58276
-7.51229
-7.43612
-7.35408
-7.26604
-7.17187
-7.07144
-6.96466
-6.85143
-6.73167
-6.60531
-6.4723
-6.33258
-6.18612
-6.03292
-5.87295
-5.70623
-5.53278
-5.35264
-5.16585
-4.97249
-4.77264
-4.5664
-4.35387
-4.13519
-3.91049
-3.67995
-3.44372
-3.20199
-2.95497
-2.70287
-2.44591
-2.18433
-1.91839
-1.64834
-1.37445
-1.09701
-0.816301
-0.532623
-0.246273
0.0424422
0.333209
0.625714
0.919637
1.21466
1.51046
1.80672
2.10313
2.39937
2.69514
2.99013
3.28403
3.57657
3.86745
4.1564
4.44316
4.72747
5.00908
5.28777
5.5633
5.83547
6.10408
6.36894
6.62989
6.88675
7.13938
7.38764
7.6314
7.87055
8.10499
8.33462
8.55935
8.77909
8.99379
9.20338
9.4078
9.60704
9.80107
9.98985
10.1734
10.3516
10.5245
10.6921
10.8542
11.0108
11.1619
11.307
11.4459
11.5784
11.7005
11.8247
11.8829
-6.80656
-6.8128
-6.82066
-6.82798
-6.83424
-6.83975
-6.84482
-6.84967
-6.85448
-6.85942
-6.86462
-6.87021
-6.87629
-6.88293
-6.8902
-6.89816
-6.90683
-6.91624
-6.92642
-6.93737
-6.9491
-6.9616
-6.97486
-6.98889
-7.00366
-7.01917
-7.03541
-7.05236
-7.07001
-7.08836
-7.10739
-7.1271
-7.14747
-7.16849
-7.19017
-7.21248
-7.23543
-7.25899
-7.28315
-7.30789
-7.3332
-7.35905
-7.38542
-7.41227
-7.43956
-7.46727
-7.49533
-7.52371
-7.55234
-7.58117
-7.61012
-7.63912
-7.6681
-7.69695
-7.72561
-7.75395
-7.78188
-7.80929
-7.83607
-7.86207
-7.88719
-7.91128
-7.93421
-7.95582
-7.97598
-7.99452
-8.01128
-8.02611
-8.03885
-8.04931
-8.05734
-8.06275
-8.06539
-8.06506
-8.0616
-8.05484
-8.04459
-8.03068
-8.01293
-7.99118
-7.96525
-7.93498
-7.90021
-7.86075
-7.81647
-7.7672
-7.71279
-7.6531
-7.58797
-7.51728
-7.44086
-7.35857
-7.27024
-7.17578
-7.07506
-6.96798
-6.85446
-6.73442
-6.60779
-6.4745
-6.33453
-6.18784
-6.0344
-5.87422
-5.7073
-5.53367
-5.35336
-5.16643
-4.97294
-4.77298
-4.56664
-4.35403
-4.1353
-3.91057
-3.68
-3.44378
-3.20208
-2.95511
-2.70307
-2.44619
-2.18472
-1.91889
-1.64898
-1.37524
-1.09797
-0.817447
-0.533969
-0.247835
0.0406509
0.331176
0.623427
0.917087
1.21184
1.50735
1.80333
2.09944
2.39538
2.69084
2.98552
3.27911
3.57134
3.86191
4.15056
4.43701
4.72102
5.00233
5.28073
5.55598
5.82787
6.09622
6.36082
6.62152
6.87815
7.13055
7.3786
7.62217
7.86114
8.09541
8.32488
8.54946
8.76908
8.98366
9.19315
9.39749
9.59666
9.79062
9.97934
10.1628
10.3409
10.5137
10.6811
10.843
10.9993
11.1498
11.2942
11.4321
11.5632
11.6834
11.8055
11.8603
-6.81715
-6.82274
-6.82981
-6.83647
-6.84225
-6.8474
-6.85218
-6.85679
-6.8614
-6.86616
-6.8712
-6.87664
-6.88256
-6.88904
-6.89615
-6.90394
-6.91244
-6.92169
-6.9317
-6.94249
-6.95405
-6.9664
-6.97953
-6.99344
-7.0081
-7.02353
-7.0397
-7.05662
-7.07426
-7.09261
-7.11168
-7.13145
-7.15192
-7.17306
-7.19487
-7.21735
-7.24047
-7.26423
-7.2886
-7.31356
-7.3391
-7.36518
-7.39178
-7.41886
-7.44638
-7.4743
-7.50257
-7.53114
-7.55995
-7.58893
-7.61802
-7.64714
-7.67621
-7.70514
-7.73383
-7.7622
-7.79012
-7.8175
-7.84421
-7.87013
-7.89514
-7.91909
-7.94185
-7.96328
-7.98322
-8.00153
-8.01805
-8.03261
-8.04505
-8.05521
-8.06292
-8.068
-8.0703
-8.06962
-8.06581
-8.05869
-8.04808
-8.03382
-8.01572
-7.99363
-7.96737
-7.93677
-7.90167
-7.86191
-7.81733
-7.76777
-7.71309
-7.65313
-7.58775
-7.5168
-7.44009
-7.35747
-7.26882
-7.17403
-7.07299
-6.96561
-6.85179
-6.73146
-6.60455
-6.47101
-6.33079
-6.18387
-6.03023
-5.86985
-5.70277
-5.52898
-5.34854
-5.1615
-4.96793
-4.7679
-4.56152
-4.34889
-4.13016
-3.90545
-3.67494
-3.43879
-3.19718
-2.95033
-2.69843
-2.44171
-2.18041
-1.91479
-1.6451
-1.3716
-1.09458
-0.814333
-0.531143
-0.245312
0.0428553
0.33305
0.624957
0.918262
1.21265
1.50779
1.80339
2.09912
2.39467
2.68974
2.98402
3.27722
3.56905
3.85923
4.14748
4.43355
4.71718
4.99812
5.27615
5.55105
5.8226
6.09061
6.3549
6.61529
6.87162
7.12375
7.37154
7.61486
7.85359
8.08765
8.31692
8.54132
8.76078
8.97521
9.18458
9.38882
9.58789
9.78176
9.9704
10.1538
10.3318
10.5045
10.6716
10.8333
10.9892
11.1391
11.2828
11.4196
11.5493
11.6677
11.7879
11.84
-6.82853
-6.83346
-6.83967
-6.84557
-6.85071
-6.8553
-6.85958
-6.86373
-6.86792
-6.87228
-6.87694
-6.88202
-6.88759
-6.89374
-6.90053
-6.90801
-6.91621
-6.92517
-6.93491
-6.94545
-6.95678
-6.96892
-6.98187
-6.99561
-7.01015
-7.02548
-7.04159
-7.05848
-7.07612
-7.09452
-7.11366
-7.13353
-7.15411
-7.17541
-7.1974
-7.22006
-7.24338
-7.26735
-7.29193
-7.31711
-7.34285
-7.36913
-7.39592
-7.42316
-7.45083
-7.47888
-7.50726
-7.5359
-7.56476
-7.59376
-7.62283
-7.65191
-7.6809
-7.70973
-7.73829
-7.76649
-7.79422
-7.82138
-7.84785
-7.8735
-7.89821
-7.92184
-7.94427
-7.96534
-7.98491
-8.00283
-8.01894
-8.03308
-8.0451
-8.05483
-8.0621
-8.06675
-8.0686
-8.0675
-8.06325
-8.05571
-8.04469
-8.03002
-8.01153
-7.98906
-7.96244
-7.93149
-7.89607
-7.856
-7.81113
-7.7613
-7.70637
-7.64617
-7.58052
-7.50925
-7.4322
-7.34924
-7.26026
-7.16516
-7.06382
-6.95615
-6.84206
-6.72148
-6.59434
-6.46059
-6.32018
-6.17309
-6.01931
-5.85881
-5.69163
-5.51777
-5.33728
-5.15022
-4.95664
-4.75664
-4.55031
-4.33776
-4.11913
-3.89455
-3.66419
-3.42822
-3.18681
-2.94018
-2.68853
-2.43209
-2.17108
-1.90577
-1.63641
-1.36327
-1.08663
-0.806764
-0.523978
-0.238566
0.0491685
0.338917
0.630367
0.923205
1.21711
1.51178
1.80688
2.10212
2.39718
2.69175
2.98553
3.27823
3.56957
3.85926
4.14703
4.43263
4.71579
4.99628
5.27386
5.54833
5.81946
6.08707
6.35096
6.61098
6.86696
7.11876
7.36623
7.60925
7.84771
8.08151
8.31054
8.53473
8.754
8.96827
9.17749
9.3816
9.58056
9.77433
9.96287
10.1461
10.3241
10.4966
10.6636
10.8249
10.9804
11.1298
11.2728
11.4085
11.5368
11.6536
11.7717
11.8219
-6.84085
-6.84515
-6.85051
-6.85554
-6.85986
-6.86366
-6.86717
-6.87057
-6.87404
-6.87773
-6.88175
-6.88622
-6.89123
-6.89684
-6.90312
-6.91013
-6.91788
-6.92643
-6.93578
-6.94596
-6.95697
-6.96882
-6.98152
-6.99506
-7.00943
-7.02463
-7.04066
-7.05749
-7.07513
-7.09356
-7.11276
-7.13272
-7.15342
-7.17485
-7.19698
-7.21979
-7.24326
-7.26736
-7.29207
-7.31736
-7.3432
-7.36954
-7.39636
-7.42361
-7.45124
-7.47922
-7.50749
-7.53599
-7.56467
-7.59346
-7.62228
-7.65107
-7.67975
-7.70823
-7.73642
-7.76421
-7.79152
-7.81823
-7.84423
-7.86939
-7.8936
-7.91672
-7.93862
-7.95915
-7.97818
-7.99555
-8.01111
-8.02471
-8.03619
-8.04538
-8.05212
-8.05625
-8.05759
-8.05599
-8.05127
-8.04327
-8.03181
-8.01673
-7.99785
-7.97502
-7.94805
-7.9168
-7.88109
-7.84077
-7.79568
-7.74565
-7.6905
-7.63004
-7.56409
-7.49249
-7.41513
-7.33188
-7.24263
-7.14728
-7.04571
-6.93783
-6.82356
-6.70281
-6.57554
-6.44167
-6.30118
-6.15403
-6.00021
-5.83972
-5.67255
-5.49875
-5.31834
-5.13138
-4.93794
-4.7381
-4.53196
-4.31963
-4.10125
-3.87694
-3.64688
-3.41124
-3.17019
-2.92393
-2.67268
-2.41666
-2.15611
-1.89127
-1.6224
-1.34977
-1.07365
-0.794328
-0.5121
-0.22726
0.0598893
0.349042
0.639886
0.93211
1.2254
1.51944
1.81392
2.10852
2.40295