/*--------------------------------*- C++ -*----------------------------------*\
  =========                 |
  \\      /  F ield         | OpenFOAM: The Open Source CFD Toolbox
   \\    /   O peration     | Website:  https://openfoam.org
    \\  /    A nd           | Version:  12
     \\/     M anipulation  |
\*---------------------------------------------------------------------------*/
FoamFile
{
    format      ascii;
    class       surfaceScalarField;
    location    "0.12";
    object      phi;
}
// * * * * * * * * * * * * * * * * * * * * * * * * * * * * * * * * * * * * * //

dimensions      [0 3 -1 0 0 0 0];

internalField   nonuniform List<scalar> 
24170
(
3.1336e-06
5.48104e-08
3.04826e-06
8.53371e-08
2.97312e-06
7.51407e-08
2.90426e-06
6.88591e-08
2.8394e-06
6.48601e-08
2.78214e-06
5.72596e-08
2.73319e-06
4.89465e-08
2.69161e-06
4.15813e-08
2.6561e-06
3.55087e-08
2.6255e-06
3.06075e-08
2.59882e-06
2.66797e-08
2.57525e-06
2.35646e-08
2.5541e-06
2.11484e-08
2.53467e-06
1.94307e-08
2.51628e-06
1.83958e-08
2.49698e-06
1.92961e-08
2.47543e-06
2.15463e-08
4.07502e-08
2.43468e-06
3.45361e-06
1.84488e-08
3.45616e-06
8.27875e-08
3.44961e-06
8.1693e-08
3.43798e-06
8.04918e-08
3.42347e-06
7.93648e-08
3.40591e-06
7.48224e-08
3.38625e-06
6.86041e-08
3.36531e-06
6.25205e-08
3.34386e-06
5.69597e-08
3.3225e-06
5.19658e-08
3.30163e-06
4.75489e-08
3.28147e-06
4.37231e-08
3.26214e-06
4.04868e-08
3.2436e-06
3.79686e-08
3.22591e-06
3.6088e-08
3.20888e-06
3.63173e-08
3.19347e-06
3.69647e-08
4.85974e-08
3.18562e-06
3.66535e-06
1.56139e-08
3.67825e-06
6.98939e-08
3.6853e-06
7.46413e-08
3.68957e-06
7.62235e-08
3.69122e-06
7.77089e-08
3.69007e-06
7.59772e-08
3.68659e-06
7.20845e-08
3.68135e-06
6.77517e-08
3.6748e-06
6.35168e-08
3.66726e-06
5.95011e-08
3.65903e-06
5.57837e-08
3.6503e-06
5.24487e-08
3.64123e-06
4.95581e-08
3.63192e-06
4.72809e-08
3.62235e-06
4.56544e-08
3.61299e-06
4.56828e-08
3.60344e-06
4.65148e-08
5.20836e-08
3.59995e-06
3.92465e-06
1.63557e-08
3.93579e-06
5.87488e-08
3.94252e-06
6.79082e-08
3.94799e-06
7.07627e-08
3.95238e-06
7.33166e-08
3.95527e-06
7.30819e-08
3.9568e-06
7.05623e-08
3.95724e-06
6.73066e-08
3.9568e-06
6.39617e-08
3.95561e-06
6.06894e-08
3.9538e-06
5.7587e-08
3.95149e-06
5.47612e-08
3.94875e-06
5.23031e-08
3.94565e-06
5.03743e-08
3.94224e-06
4.90682e-08
3.93897e-06
4.89504e-08
3.93586e-06
4.96293e-08
5.21911e-08
3.93575e-06
4.20776e-06
1.57181e-08
4.21599e-06
5.05242e-08
4.22164e-06
6.22558e-08
4.22656e-06
6.58468e-08
4.23124e-06
6.86385e-08
4.23517e-06
6.91512e-08
4.23823e-06
6.74987e-08
4.24056e-06
6.49755e-08
4.24227e-06
6.22539e-08
4.24344e-06
5.95208e-08
4.24414e-06
5.68812e-08
4.24445e-06
5.44503e-08
4.24443e-06
5.23305e-08
4.24414e-06
5.06589e-08
4.24368e-06
4.95284e-08
4.24341e-06
4.92188e-08
4.24355e-06
4.94966e-08
5.04293e-08
4.24531e-06
4.51044e-06
1.43682e-08
4.51685e-06
4.41093e-08
4.52215e-06
5.69569e-08
4.52679e-06
6.12044e-08
4.53138e-06
6.40473e-08
4.53555e-06
6.49875e-08
4.5391e-06
6.39479e-08
4.5421e-06
6.19712e-08
4.54464e-06
5.97162e-08
4.54677e-06
5.73933e-08
4.54854e-06
5.51131e-08
4.55e-06
5.29911e-08
4.5512e-06
5.11285e-08
4.55222e-06
4.96326e-08
4.55318e-06
4.85702e-08
4.55435e-06
4.80511e-08
4.55596e-06
4.78839e-08
4.78205e-08
4.55857e-06
4.83412e-06
1.29701e-08
4.83957e-06
3.86582e-08
4.84481e-06
5.1718e-08
4.84938e-06
5.66321e-08
4.85387e-06
5.95605e-08
4.85807e-06
6.07871e-08
4.8618e-06
6.02169e-08
4.86509e-06
5.86773e-08
4.86801e-06
5.67941e-08
4.87061e-06
5.47994e-08
4.87291e-06
5.28093e-08
4.87497e-06
5.09338e-08
4.87683e-06
4.92657e-08
4.87858e-06
4.78839e-08
4.88033e-06
4.68244e-08
4.88228e-06
4.61015e-08
4.88462e-06
4.55409e-08
4.48548e-08
4.88758e-06
5.1809e-06
1.16533e-08
5.18569e-06
3.38617e-08
5.19082e-06
4.6597e-08
5.19538e-06
5.20716e-08
5.19982e-06
5.51205e-08
5.20405e-06
5.65561e-08
5.2079e-06
5.63684e-08
5.21137e-06
5.52036e-08
5.21452e-06
5.3638e-08
5.2174e-06
5.19214e-08
5.22004e-06
5.01746e-08
5.22247e-06
4.85004e-08
5.22476e-06
4.69805e-08
5.22697e-06
4.56699e-08
5.22922e-06
4.45796e-08
5.23164e-06
4.36765e-08
5.23437e-06
4.28078e-08
4.17371e-08
5.23749e-06
5.5526e-06
1.0393e-08
5.55684e-06
2.96204e-08
5.56174e-06
4.16933e-08
5.56629e-06
4.75233e-08
5.57072e-06
5.06879e-08
5.575e-06
5.22777e-08
5.57896e-06
5.24068e-08
5.58259e-06
5.1575e-08
5.58594e-06
5.02943e-08
5.58903e-06
4.88236e-08
5.59192e-06
4.72886e-08
5.59464e-06
4.57842e-08
5.59724e-06
4.43808e-08
5.59979e-06
4.31162e-08
5.60238e-06
4.19854e-08
5.60512e-06
4.09385e-08
5.60808e-06
3.98501e-08
3.85536e-08
5.61126e-06
5.95098e-06
9.18615e-09
5.95475e-06
2.5857e-08
5.95939e-06
3.70515e-08
5.9639e-06
4.30078e-08
5.96834e-06
4.62547e-08
5.97266e-06
4.79528e-08
5.97673e-06
4.83365e-08
5.98051e-06
4.77974e-08
5.98403e-06
4.67748e-08
5.98733e-06
4.55259e-08
5.99044e-06
4.418e-08
5.9934e-06
4.2824e-08
5.99626e-06
4.15182e-08
5.99908e-06
4.02895e-08
6.00194e-06
3.9126e-08
6.0049e-06
3.79783e-08
6.008e-06
3.67511e-08
3.53396e-08
6.01122e-06
6.37795e-06
8.04609e-09
6.38132e-06
2.24938e-08
6.38569e-06
3.26803e-08
6.39014e-06
3.85496e-08
6.39457e-06
4.18261e-08
6.39894e-06
4.35905e-08
6.40311e-06
4.41666e-08
6.40703e-06
4.38751e-08
6.41072e-06
4.30833e-08
6.41421e-06
4.2035e-08
6.41753e-06
4.08597e-08
6.42072e-06
3.96374e-08
6.42382e-06
3.842e-08
6.42688e-06
3.72286e-08
6.42995e-06
3.60513e-08
6.43308e-06
3.48482e-08
6.43628e-06
3.35519e-08
3.21054e-08
6.43951e-06
5.74175e-06
7.13399e-09
5.74432e-06
1.99163e-08
5.74781e-06
2.91922e-08
5.75152e-06
3.48396e-08
5.75526e-06
3.80901e-08
5.75897e-06
3.98816e-08
5.76256e-06
4.0574e-08
5.76598e-06
4.04536e-08
5.76923e-06
3.98338e-08
5.77233e-06
3.89392e-08
5.77529e-06
3.78956e-08
5.77815e-06
3.67782e-08
5.78094e-06
3.56338e-08
5.78368e-06
3.44809e-08
5.78642e-06
3.3311e-08
5.78918e-06
3.20947e-08
5.79194e-06
3.07848e-08
2.93551e-08
5.79469e-06
6.99913e-06
6.15932e-09
7.00186e-06
1.71904e-08
7.00563e-06
2.54178e-08
7.00978e-06
3.06907e-08
7.01404e-06
3.38323e-08
7.01831e-06
3.56087e-08
7.0225e-06
3.63868e-08
7.02653e-06
3.64208e-08
7.03039e-06
3.59695e-08
7.0341e-06
3.52316e-08
7.03767e-06
3.43258e-08
7.04113e-06
3.33222e-08
7.0445e-06
3.22625e-08
7.04781e-06
3.11652e-08
7.0511e-06
3.00273e-08
7.05436e-06
2.88312e-08
7.0576e-06
2.75492e-08
2.61785e-08
7.06077e-06
8.53188e-06
5.13117e-09
8.53472e-06
1.43422e-08
8.53876e-06
2.13835e-08
8.54334e-06
2.61082e-08
8.54814e-06
2.90287e-08
8.55303e-06
3.07266e-08
8.55787e-06
3.15423e-08
8.56259e-06
3.16982e-08
8.56716e-06
3.14005e-08
8.57158e-06
3.08159e-08
8.57585e-06
3.00518e-08
8.58e-06
2.91718e-08
8.58405e-06
2.82141e-08
8.58802e-06
2.71976e-08
8.59192e-06
2.61258e-08
8.59576e-06
2.49932e-08
8.59952e-06
2.37874e-08
2.2522e-08
8.60318e-06
1.04003e-05
4.05987e-09
1.04032e-05
1.13885e-08
1.04075e-05
1.71066e-08
1.04125e-05
2.10966e-08
1.04179e-05
2.36552e-08
1.04234e-05
2.51868e-08
1.0429e-05
2.59738e-08
1.04345e-05
2.62024e-08
1.04399e-05
2.60305e-08
1.04451e-05
2.55891e-08
1.04502e-05
2.49684e-08
1.04551e-05
2.42245e-08
1.046e-05
2.33915e-08
1.04647e-05
2.24893e-08
1.04693e-05
2.1527e-08
1.04738e-05
2.0508e-08
1.04781e-05
1.94311e-08
1.83189e-08
1.04823e-05
1.26779e-05
2.95062e-09
1.2681e-05
8.31984e-09
1.26855e-05
1.25769e-08
1.2691e-05
1.56417e-08
1.26969e-05
1.76739e-08
1.27032e-05
1.89255e-08
1.27096e-05
1.95999e-08
1.27159e-05
1.98382e-08
1.27222e-05
1.97532e-08
1.27284e-05
1.94384e-08
1.27344e-05
1.89624e-08
1.27402e-05
1.83704e-08
1.27459e-05
1.76913e-08
1.27515e-05
1.6944e-08
1.27569e-05
1.61405e-08
1.27621e-05
1.52896e-08
1.27671e-05
1.43958e-08
1.34848e-08
1.27719e-05
1.54543e-05
1.79171e-09
1.54576e-05
5.08353e-09
1.54624e-05
7.72431e-09
1.54684e-05
9.66992e-09
1.54751e-05
1.09963e-08
1.54822e-05
1.18343e-08
1.54895e-05
1.22998e-08
1.54968e-05
1.2478e-08
1.55041e-05
1.24361e-08
1.55114e-05
1.223e-08
1.55184e-05
1.19025e-08
1.55253e-05
1.14834e-08
1.5532e-05
1.09935e-08
1.55385e-05
1.04474e-08
1.55448e-05
9.85634e-09
1.55508e-05
9.22976e-09
1.55567e-05
8.57377e-09
7.91239e-09
1.55622e-05
1.88389e-05
5.40795e-10
1.88424e-05
1.54611e-09
1.88478e-05
2.35897e-09
1.88545e-05
2.97087e-09
1.88621e-05
3.40494e-09
1.88702e-05
3.69136e-09
1.88787e-05
3.85301e-09
1.88872e-05
3.90865e-09
1.88958e-05
3.87632e-09
1.89043e-05
3.77192e-09
1.89126e-05
3.60795e-09
1.89206e-05
3.39406e-09
1.89285e-05
3.13814e-09
1.89361e-05
2.84698e-09
1.89434e-05
2.52671e-09
1.89505e-05
2.18367e-09
1.89572e-05
1.82201e-09
1.46096e-09
1.89637e-05
2.29648e-05
-9.10425e-10
2.29689e-05
-2.59692e-09
2.29753e-05
-3.96072e-09
2.29832e-05
-4.9574e-09
2.29922e-05
-5.60264e-09
2.30019e-05
-5.98252e-09
2.30119e-05
-6.19009e-09
2.30221e-05
-6.28402e-09
2.30323e-05
-6.30122e-09
2.30423e-05
-6.27319e-09
2.30522e-05
-6.2255e-09
2.30617e-05
-6.1746e-09
2.3071e-05
-6.12962e-09
2.30799e-05
-6.09544e-09
2.30885e-05
-6.07431e-09
2.30968e-05
-6.06606e-09
2.31047e-05
-6.07064e-09
-6.07561e-09
2.31122e-05
1.68119e-05
-2.06008e-09
1.68151e-05
-5.84338e-09
1.682e-05
-8.90766e-09
1.68262e-05
-1.11073e-08
1.68331e-05
-1.24903e-08
1.68404e-05
-1.32903e-08
1.68479e-05
-1.3711e-08
1.68555e-05
-1.38605e-08
1.6863e-05
-1.3814e-08
1.68704e-05
-1.36422e-08
1.68775e-05
-1.34003e-08
1.68845e-05
-1.31228e-08
1.68912e-05
-1.28304e-08
1.68976e-05
-1.25366e-08
1.69038e-05
-1.22496e-08
1.69097e-05
-1.19734e-08
1.69154e-05
-1.17106e-08
-1.14529e-08
1.69207e-05
1.46357e-05
-3.17333e-09
1.46389e-05
-9.01501e-09
1.46437e-05
-1.37514e-08
1.46496e-05
-1.70159e-08
1.46561e-05
-1.89539e-08
1.46628e-05
-2.00399e-08
1.46697e-05
-2.05757e-08
1.46765e-05
-2.06958e-08
1.46832e-05
-2.05198e-08
1.46897e-05
-2.01644e-08
1.46961e-05
-1.97088e-08
1.47021e-05
-1.91986e-08
1.4708e-05
-1.86627e-08
1.47135e-05
-1.81213e-08
1.47189e-05
-1.75873e-08
1.4724e-05
-1.70675e-08
1.47288e-05
-1.65656e-08
-1.60762e-08
1.47335e-05
1.27412e-05
-4.22584e-09
1.27444e-05
-1.22375e-08
1.27494e-05
-1.87279e-08
1.27552e-05
-2.28354e-08
1.27613e-05
-2.50993e-08
1.27677e-05
-2.63642e-08
1.2774e-05
-2.6934e-08
1.27803e-05
-2.69356e-08
1.27863e-05
-2.65607e-08
1.27921e-05
-2.59808e-08
1.27977e-05
-2.52909e-08
1.28031e-05
-2.45408e-08
1.28082e-05
-2.37647e-08
1.2813e-05
-2.29874e-08
1.28177e-05
-2.22241e-08
1.28221e-05
-2.14821e-08
1.28263e-05
-2.07655e-08
-2.007e-08
1.28303e-05
1.10918e-05
-5.10697e-09
1.10951e-05
-1.55705e-08
1.11005e-05
-2.40406e-08
1.11063e-05
-2.864e-08
1.11121e-05
-3.09688e-08
1.11181e-05
-3.23163e-08
1.1124e-05
-3.28306e-08
1.11297e-05
-3.26308e-08
1.11351e-05
-3.20085e-08
1.11403e-05
-3.11804e-08
1.11453e-05
-3.02436e-08
1.115e-05
-2.92495e-08
1.11545e-05
-2.82378e-08
1.11587e-05
-2.72361e-08
1.11627e-05
-2.62594e-08
1.11666e-05
-2.53144e-08
1.11702e-05
-2.44043e-08
-2.35255e-08
1.11737e-05
9.65583e-06
-5.72446e-09
9.65937e-06
-1.91044e-08
9.66498e-06
-2.96569e-08
9.67069e-06
-3.43434e-08
9.67635e-06
-3.66325e-08
9.68201e-06
-3.79809e-08
9.68748e-06
-3.82977e-08
9.69265e-06
-3.78022e-08
9.69755e-06
-3.69021e-08
9.70219e-06
-3.58197e-08
9.70658e-06
-3.46351e-08
9.71073e-06
-3.33995e-08
9.71465e-06
-3.21581e-08
9.71835e-06
-3.094e-08
9.72185e-06
-2.97596e-08
9.72516e-06
-2.86226e-08
9.72829e-06
-2.75304e-08
-2.6478e-08
9.73124e-06
8.40544e-06
-5.80754e-09
8.40982e-06
-2.34874e-08
8.41533e-06
-3.51731e-08
8.42054e-06
-3.95509e-08
8.42599e-06
-4.20837e-08
8.43149e-06
-4.34768e-08
8.43667e-06
-4.34758e-08
8.44146e-06
-4.25926e-08
8.44592e-06
-4.13632e-08
8.45009e-06
-3.99876e-08
8.45397e-06
-3.85233e-08
8.4576e-06
-3.70222e-08
8.46097e-06
-3.55324e-08
8.46411e-06
-3.40827e-08
8.46704e-06
-3.26869e-08
8.46977e-06
-3.13508e-08
8.47231e-06
-3.00751e-08
-2.88559e-08
8.47469e-06
7.31506e-06
-3.58331e-09
7.32195e-06
-3.03792e-08
7.32741e-06
-4.06338e-08
7.33219e-06
-4.43332e-08
7.33752e-06
-4.74132e-08
7.34292e-06
-4.88713e-08
7.3479e-06
-4.84605e-08
7.35241e-06
-4.70991e-08
7.35648e-06
-4.54341e-08
7.36014e-06
-4.36441e-08
7.3634e-06
-4.1788e-08
7.36631e-06
-3.99293e-08
7.36889e-06
-3.81175e-08
7.37119e-06
-3.63787e-08
7.37323e-06
-3.47245e-08
7.37504e-06
-3.31595e-08
7.37664e-06
-3.16808e-08
-3.0282e-08
7.37807e-06
6.36222e-06
4.25969e-09
6.37295e-06
-4.11097e-08
6.38009e-06
-4.77689e-08
6.38628e-06
-5.05245e-08
6.39226e-06
-5.3396e-08
6.39757e-06
-5.41744e-08
6.40194e-06
-5.28369e-08
6.40554e-06
-5.06953e-08
6.40847e-06
-4.83634e-08
6.41078e-06
-4.59537e-08
6.41252e-06
-4.35338e-08
6.41378e-06
-4.11815e-08
6.4146e-06
-3.89453e-08
6.41507e-06
-3.68447e-08
6.41523e-06
-3.48864e-08
6.41514e-06
-3.30716e-08
6.41485e-06
-3.1392e-08
-2.9827e-08
6.4144e-06
5.53608e-06
1.36429e-08
5.54776e-06
-5.27879e-08
5.55745e-06
-5.74621e-08
5.56603e-06
-5.9102e-08
5.57281e-06
-6.01736e-08
5.57724e-06
-5.86073e-08
5.5794e-06
-5.49972e-08
5.57985e-06
-5.11449e-08
5.57901e-06
-4.7525e-08
5.57717e-06
-4.41092e-08
5.57454e-06
-4.09047e-08
5.57131e-06
-3.79495e-08
5.56762e-06
-3.52569e-08
5.56359e-06
-3.28187e-08
5.55933e-06
-3.06204e-08
5.55491e-06
-2.86591e-08
5.55045e-06
-2.69255e-08
-2.53587e-08
5.54598e-06
4.85751e-06
-1.62577e-08
4.86091e-06
-5.61916e-08
4.86151e-06
-5.80593e-08
4.85885e-06
-5.64409e-08
4.85485e-06
-5.61744e-08
4.84816e-06
-5.19223e-08
4.83892e-06
-4.57561e-08
4.82769e-06
-3.9908e-08
4.81509e-06
-3.49317e-08
4.80173e-06
-3.07501e-08
4.78806e-06
-2.72272e-08
4.77437e-06
-2.42598e-08
4.76087e-06
-2.17572e-08
4.74769e-06
-1.96402e-08
4.73491e-06
-1.78458e-08
4.72262e-06
-1.63641e-08
4.71091e-06
-1.52217e-08
-1.49116e-08
4.70047e-06
4.18642e-06
4.13023e-06
4.07217e-06
4.01573e-06
3.95955e-06
3.90763e-06
3.86187e-06
3.82197e-06
3.78703e-06
3.75628e-06
3.72906e-06
3.7048e-06
3.68304e-06
3.6634e-06
3.64555e-06
3.62919e-06
3.61397e-06
3.59906e-06
1.15645e-08
-1.15645e-08
2.57713e-08
-1.42068e-08
3.72627e-08
-1.14914e-08
4.40885e-08
-6.82584e-09
4.54277e-08
-1.33916e-09
4.12736e-08
4.15408e-09
3.21948e-08
9.07881e-09
1.90164e-08
1.31784e-08
2.64946e-09
1.63669e-08
-1.60952e-08
1.87447e-08
-3.66121e-08
2.05168e-08
-5.85029e-08
2.18908e-08
-8.15368e-08
2.3034e-08
-1.05596e-07
2.4059e-08
-1.30622e-07
2.50265e-08
-1.56582e-07
2.596e-08
-1.83444e-07
2.68613e-08
-2.11168e-07
2.77244e-08
-2.39711e-07
2.8543e-08
-2.69023e-07
2.93116e-08
-2.99051e-07
3.00281e-08
-3.29778e-07
3.07276e-08
-3.61306e-07
3.15278e-08
-3.93766e-07
3.246e-08
-4.26842e-07
3.30761e-08
-4.59834e-07
3.29923e-08
-4.9298e-07
3.3146e-08
-5.2932e-07
3.63398e-08
-5.6499e-07
3.56703e-08
-6.00129e-07
3.51383e-08
-6.37743e-07
3.76139e-08
-6.77281e-07
3.95383e-08
-7.16332e-07
3.90506e-08
-7.55621e-07
3.92892e-08
-7.99706e-07
4.40846e-08
-8.44418e-07
4.47127e-08
-8.8331e-07
3.88914e-08
-9.20065e-07
3.67551e-08
-9.59119e-07
3.90547e-08
-9.99063e-07
3.99435e-08
-1.0395e-06
4.0433e-08
-1.08016e-06
4.0664e-08
-1.12091e-06
4.07472e-08
-1.16165e-06
4.07479e-08
-1.20236e-06
4.07036e-08
-1.24299e-06
4.0636e-08
-1.28355e-06
4.0557e-08
-1.32402e-06
4.04727e-08
-1.36441e-06
4.03852e-08
-1.4047e-06
4.02949e-08
-1.4449e-06
4.02003e-08
-1.485e-06
4.00993e-08
-1.52499e-06
3.99893e-08
-1.56486e-06
3.98672e-08
-1.60459e-06
3.973e-08
-1.64417e-06
3.95748e-08
-1.68356e-06
3.93986e-08
-1.72276e-06
3.91985e-08
-1.76173e-06
3.89721e-08
-1.80045e-06
3.87168e-08
-1.83888e-06
3.84305e-08
-1.87699e-06
3.81112e-08
-1.91475e-06
3.77571e-08
-1.95212e-06
3.73666e-08
-1.98906e-06
3.69385e-08
-2.02553e-06
3.64716e-08
-2.06149e-06
3.59649e-08
-2.09691e-06
3.54179e-08
-2.13174e-06
3.48299e-08
-2.16594e-06
3.42005e-08
-2.19947e-06
3.35296e-08
-2.23229e-06
3.28172e-08
-2.26435e-06
3.20632e-08
-2.29562e-06
3.12679e-08
-2.32605e-06
3.04316e-08
-2.3556e-06
2.95548e-08
-2.38424e-06
2.86379e-08
-2.41192e-06
2.76815e-08
-2.43861e-06
2.66862e-08
-2.46426e-06
2.56525e-08
-2.48884e-06
2.4581e-08
-2.51232e-06
2.34723e-08
-2.53464e-06
2.23268e-08
-2.55579e-06
2.11449e-08
-2.57571e-06
1.99267e-08
-2.59439e-06
1.86721e-08
-2.61177e-06
1.73806e-08
-2.62782e-06
1.60512e-08
-2.6425e-06
1.46822e-08
-2.65577e-06
1.32713e-08
-2.66759e-06
1.1815e-08
-2.67789e-06
1.03077e-08
-2.68664e-06
8.74149e-09
-2.69374e-06
7.10578e-09
-2.69913e-06
5.38434e-09
-2.70269e-06
3.5687e-09
-2.70437e-06
1.6754e-09
-2.70404e-06
-3.30154e-10
-2.70209e-06
-1.94943e-09
-2.69857e-06
-3.52026e-09
-2.69351e-06
-5.06109e-09
-2.68691e-06
-6.59623e-09
-2.67877e-06
-8.13827e-09
-2.66908e-06
-9.68971e-09
-2.65783e-06
-1.12501e-08
-2.64502e-06
-1.28181e-08
-2.63062e-06
-1.43916e-08
-2.61466e-06
-1.59686e-08
-2.59711e-06
-1.7547e-08
-2.57798e-06
-1.91247e-08
-2.55729e-06
-2.06994e-08
-2.53502e-06
-2.22691e-08
-2.51118e-06
-2.38314e-08
-2.4858e-06
-2.53844e-08
-2.45887e-06
-2.69257e-08
-2.43042e-06
-2.84532e-08
-2.40046e-06
-2.99647e-08
-2.369e-06
-3.14581e-08
-2.33607e-06
-3.29311e-08
-2.30169e-06
-3.43818e-08
-2.26588e-06
-3.58081e-08
-2.22867e-06
-3.7208e-08
-2.19009e-06
-3.85795e-08
-2.15017e-06
-3.99207e-08
-2.10894e-06
-4.12297e-08
-2.06644e-06
-4.25047e-08
-2.02269e-06
-4.37438e-08
-1.97775e-06
-4.49451e-08
-1.93164e-06
-4.61072e-08
-1.88441e-06
-4.72284e-08
-1.8361e-06
-4.83073e-08
-1.78676e-06
-4.93426e-08
-1.73643e-06
-5.0333e-08
-1.68515e-06
-5.12771e-08
-1.63298e-06
-5.21739e-08
-1.57995e-06
-5.30224e-08
-1.52613e-06
-5.38218e-08
-1.47156e-06
-5.45715e-08
-1.41629e-06
-5.52708e-08
-1.36037e-06
-5.59193e-08
-1.30385e-06
-5.65165e-08
-1.24679e-06
-5.70625e-08
-1.18923e-06
-5.75572e-08
-1.13123e-06
-5.80008e-08
-1.07284e-06
-5.83936e-08
-1.0141e-06
-5.8736e-08
-9.55075e-07
-5.90288e-08
-8.95802e-07
-5.92729e-08
-8.36333e-07
-5.94691e-08
-7.76715e-07
-5.96186e-08
-7.16992e-07
-5.97228e-08
-6.57209e-07
-5.9783e-08
-5.97408e-07
-5.98009e-08
-5.3763e-07
-5.97778e-08
-4.77915e-07
-5.97154e-08
-4.183e-07
-5.96152e-08
-3.58822e-07
-5.94781e-08
-2.99517e-07
-5.93047e-08
-2.40422e-07
-5.90946e-08
-1.8158e-07
-5.88427e-08
-1.23027e-07
-5.85527e-08
-6.48008e-08
-5.82261e-08
-6.95312e-09
-5.78476e-08
5.04751e-08
-5.74282e-08
1.0746e-07
-5.69847e-08
1.64008e-07
-5.65487e-08
2.20149e-07
-5.61407e-08
2.75903e-07
-5.57537e-08
3.3128e-07
-5.5377e-08
3.86279e-07
-5.49991e-08
4.40885e-07
-5.46055e-08
4.95058e-07
-5.41739e-08
5.48725e-07
-5.36662e-08
6.01739e-07
-5.30146e-08
6.53823e-07
-5.2084e-08
7.04423e-07
-5.05998e-08
7.52259e-07
-4.7836e-08
7.94332e-07
-4.20728e-08
8.22189e-07
-2.78568e-08
1.52109e-08
8.06978e-07
1.17678e-08
-2.33323e-08
1.80889e-08
-2.05279e-08
1.87891e-08
-1.21915e-08
1.52725e-08
-3.30931e-09
8.42054e-09
5.51284e-09
-1.35676e-09
1.39314e-08
-1.39396e-08
2.16616e-08
-2.92405e-08
2.84793e-08
-4.71561e-08
3.42825e-08
-6.75143e-08
3.91029e-08
-9.0084e-08
4.30866e-08
-1.14624e-07
4.6431e-08
-1.40919e-07
4.93285e-08
-1.68794e-07
5.19339e-08
-1.98122e-07
5.43548e-08
-2.28818e-07
5.66564e-08
-2.6083e-07
5.88732e-08
-2.94128e-07
6.10224e-08
-3.28697e-07
6.31118e-08
-3.64529e-07
6.51437e-08
-4.01622e-07
6.71206e-08
-4.39959e-07
6.9065e-08
-4.79459e-07
7.10274e-08
-5.19989e-07
7.29907e-08
-5.61656e-07
7.47429e-08
-6.04786e-07
7.61223e-08
-6.49102e-07
7.74618e-08
-6.91959e-07
7.91971e-08
-7.36679e-07
8.03894e-08
-7.82461e-07
8.09211e-08
-8.26963e-07
8.21152e-08
-8.70394e-07
8.29697e-08
-9.14615e-07
8.32717e-08
-9.58678e-07
8.33522e-08
-9.9886e-07
8.42669e-08
-1.03822e-06
8.4074e-08
-1.08153e-06
8.21993e-08
-1.12548e-06
8.07092e-08
-1.16677e-06
8.03373e-08
-1.20688e-06
8.00583e-08
-1.24622e-06
7.97679e-08
-1.28501e-06
7.94606e-08
-1.3234e-06
7.91382e-08
-1.36146e-06
7.88085e-08
-1.39924e-06
7.84777e-08
-1.43675e-06
7.81494e-08
-1.47402e-06
7.78245e-08
-1.51105e-06
7.75017e-08
-1.54784e-06
7.7178e-08
-1.5844e-06
7.68492e-08
-1.62071e-06
7.65103e-08
-1.65676e-06
7.61559e-08
-1.69255e-06
7.57805e-08
-1.72806e-06
7.53785e-08
-1.76328e-06
7.49445e-08
-1.79818e-06
7.44733e-08
-1.83274e-06
7.39599e-08
-1.86694e-06
7.33999e-08
-1.90076e-06
7.27889e-08
-1.93416e-06
7.21231e-08
-1.96713e-06
7.13991e-08
-1.99963e-06
7.06139e-08
-2.03164e-06
6.97647e-08
-2.06313e-06
6.88493e-08
-2.09405e-06
6.78656e-08
-2.12439e-06
6.68121e-08
-2.15412e-06
6.56874e-08
-2.18319e-06
6.44906e-08
-2.21158e-06
6.32209e-08
-2.23926e-06
6.1878e-08
-2.26619e-06
6.04616e-08
-2.29234e-06
5.89718e-08
-2.31769e-06
5.74088e-08
-2.34219e-06
5.57732e-08
-2.36583e-06
5.40654e-08
-2.38856e-06
5.22863e-08
-2.41036e-06
5.04367e-08
-2.43119e-06
4.85176e-08
-2.45104e-06
4.65299e-08
-2.46986e-06
4.44747e-08
-2.48763e-06
4.23532e-08
-2.50433e-06
4.01661e-08
-2.51991e-06
3.79145e-08
-2.53437e-06
3.55992e-08
-2.54766e-06
3.32207e-08
-2.55977e-06
3.07795e-08
-2.57066e-06
2.82758e-08
-2.58032e-06
2.57094e-08
-2.58872e-06
2.30799e-08
-2.59584e-06
2.03868e-08
-2.60165e-06
1.76295e-08
-2.60615e-06
1.48076e-08
-2.60933e-06
1.19217e-08
-2.6112e-06
8.97486e-09
-2.61179e-06
5.97446e-09
-2.61116e-06
2.93447e-09
-2.60944e-06
-4.11193e-11
-2.60665e-06
-3.11858e-09
-2.60254e-06
-6.06322e-09
-2.59701e-06
-9.0423e-09
-2.59003e-06
-1.20509e-08
-2.58154e-06
-1.50845e-08
-2.57153e-06
-1.81428e-08
-2.56e-06
-2.12232e-08
-2.54693e-06
-2.43225e-08
-2.53231e-06
-2.74369e-08
-2.51614e-06
-3.05623e-08
-2.49841e-06
-3.36947e-08
-2.47913e-06
-3.68295e-08
-2.45829e-06
-3.99626e-08
-2.4359e-06
-4.30897e-08
-2.41196e-06
-4.62065e-08
-2.38649e-06
-4.93086e-08
-2.35948e-06
-5.23918e-08
-2.33095e-06
-5.54517e-08
-2.30092e-06
-5.84841e-08
-2.2694e-06
-6.14846e-08
-2.23641e-06
-6.44489e-08
-2.20197e-06
-6.73727e-08
-2.1661e-06
-7.02519e-08
-2.12882e-06
-7.30824e-08
-2.09017e-06
-7.58603e-08
-2.05017e-06
-7.85816e-08
-2.00885e-06
-8.12425e-08
-1.96624e-06
-8.38394e-08
-1.92237e-06
-8.63684e-08
-1.87729e-06
-8.88259e-08
-1.83103e-06
-9.12085e-08
-1.78362e-06
-9.35127e-08
-1.73512e-06
-9.57355e-08
-1.68555e-06
-9.78741e-08
-1.63497e-06
-9.99258e-08
-1.58341e-06
-1.01888e-07
-1.53093e-06
-1.03758e-07
-1.47757e-06
-1.05534e-07
-1.42338e-06
-1.07214e-07
-1.3684e-06
-1.08796e-07
-1.3127e-06
-1.10279e-07
-1.25631e-06
-1.11662e-07
-1.19928e-06
-1.12943e-07
-1.14168e-06
-1.14123e-07
-1.08354e-06
-1.152e-07
-1.02492e-06
-1.16175e-07
-9.65873e-07
-1.17049e-07
-9.06445e-07
-1.17821e-07
-8.46688e-07
-1.18493e-07
-7.8665e-07
-1.19067e-07
-7.2638e-07
-1.19543e-07
-6.65924e-07
-1.19924e-07
-6.05331e-07
-1.20212e-07
-5.44643e-07
-1.2041e-07
-4.83906e-07
-1.20521e-07
-4.2316e-07
-1.20547e-07
-3.62447e-07
-1.20491e-07
-3.01804e-07
-1.20358e-07
-2.4127e-07
-1.2015e-07
-1.80879e-07
-1.19869e-07
-1.20667e-07
-1.19517e-07
-6.06675e-08
-1.19094e-07
-9.1326e-10
-1.18597e-07
5.85638e-08
-1.1803e-07
1.17728e-07
-1.1739e-07
1.76563e-07
-1.16683e-07
2.35058e-07
-1.15923e-07
2.93209e-07
-1.15136e-07
3.51016e-07
-1.14355e-07
4.08473e-07
-1.13598e-07
4.65582e-07
-1.12863e-07
5.22342e-07
-1.12137e-07
5.78744e-07
-1.11401e-07
6.34767e-07
-1.10629e-07
6.90368e-07
-1.09775e-07
7.45464e-07
-1.08762e-07
7.99906e-07
-1.07457e-07
8.53418e-07
-1.05596e-07
9.05488e-07
-1.0267e-07
9.55113e-07
-9.74615e-08
1.0006e-06
-8.75637e-08
1.03867e-06
-6.59265e-08
-1.5405e-08
1.06929e-06
4.16764e-09
-2.74999e-08
1.18222e-09
-1.75425e-08
-5.67962e-09
-5.32964e-09
-1.52334e-08
6.24446e-09
-2.69426e-08
1.7222e-08
-4.05724e-08
2.75612e-08
-5.60639e-08
3.71531e-08
-7.34631e-08
4.58785e-08
-9.28443e-08
5.36638e-08
-1.14255e-07
6.0514e-08
-1.37682e-07
6.65135e-08
-1.63051e-07
7.17997e-08
-1.9025e-07
7.65273e-08
-2.19154e-07
8.08384e-08
-2.49646e-07
8.48464e-08
-2.8162e-07
8.8631e-08
-3.1499e-07
9.22424e-08
-3.49675e-07
9.57081e-08
-3.85602e-07
9.90386e-08
-4.2269e-07
1.02231e-07
-4.60844e-07
1.05275e-07
-4.99941e-07
1.08161e-07
-5.39789e-07
1.10876e-07
-5.8017e-07
1.13372e-07
-6.20974e-07
1.15547e-07
-6.62181e-07
1.17329e-07
-7.03503e-07
1.18784e-07
-7.44284e-07
1.19978e-07
-7.84752e-07
1.20858e-07
-8.25177e-07
1.21346e-07
-8.64731e-07
1.21668e-07
-9.03474e-07
1.21713e-07
-9.41682e-07
1.2148e-07
-9.7938e-07
1.21051e-07
-1.01563e-06
1.20513e-07
-1.05117e-06
1.19619e-07
-1.08734e-06
1.18365e-07
-1.12377e-06
1.17137e-07
-1.15958e-06
1.16155e-07
-1.19485e-06
1.15322e-07
-1.22967e-06
1.14588e-07
-1.26413e-06
1.13924e-07
-1.2983e-06
1.1331e-07
-1.33223e-06
1.12734e-07
-1.36594e-06
1.12188e-07
-1.39945e-06
1.11663e-07
-1.43278e-06
1.11153e-07
-1.46593e-06
1.10651e-07
-1.4989e-06
1.10147e-07
-1.53169e-06
1.09635e-07
-1.56428e-06
1.09106e-07
-1.59668e-06
1.08552e-07
-1.62886e-06
1.07965e-07
-1.66082e-06
1.07337e-07
-1.69254e-06
1.06661e-07
-1.72399e-06
1.05929e-07
-1.75517e-06
1.05136e-07
-1.78604e-06
1.04274e-07
-1.81659e-06
1.03339e-07
-1.84679e-06
1.02325e-07
-1.87662e-06
1.01228e-07
-1.90605e-06
1.00043e-07
-1.93505e-06
9.87667e-08
-1.9636e-06
9.73961e-08
-1.99166e-06
9.59284e-08
-2.01921e-06
9.43613e-08
-2.04622e-06
9.26931e-08
-2.07265e-06
9.09223e-08
-2.09848e-06
8.90478e-08
-2.12367e-06
8.70691e-08
-2.14819e-06
8.49857e-08
-2.17202e-06
8.27977e-08
-2.19511e-06
8.05052e-08
-2.21745e-06
7.8109e-08
-2.23899e-06
7.56096e-08
-2.25972e-06
7.3008e-08
-2.27959e-06
7.03055e-08
-2.29857e-06
6.75033e-08
-2.31664e-06
6.46029e-08
-2.33377e-06
6.16056e-08
-2.34993e-06
5.85132e-08
-2.3651e-06
5.53271e-08
-2.37923e-06
5.20489e-08
-2.39231e-06
4.86802e-08
-2.40431e-06
4.52223e-08
-2.41521e-06
4.16767e-08
-2.42498e-06
3.80446e-08
-2.4336e-06
3.43274e-08
-2.44104e-06
3.05263e-08
-2.4473e-06
2.66433e-08
-2.45235e-06
2.26804e-08
-2.45618e-06
1.86413e-08
-2.45879e-06
1.4531e-08
-2.46018e-06
1.0357e-08
-2.46033e-06
6.13004e-09
-2.45926e-06
1.86641e-09
-2.4569e-06
-2.40629e-09
-2.45329e-06
-6.72341e-09
-2.44829e-06
-1.10617e-08
-2.44189e-06
-1.54507e-08
-2.43405e-06
-1.98905e-08
-2.42475e-06
-2.43767e-08
-2.41399e-06
-2.89036e-08
-2.40175e-06
-3.34655e-08
-2.38802e-06
-3.80564e-08
-2.37278e-06
-4.26702e-08
-2.35605e-06
-4.73006e-08
-2.3378e-06
-5.19412e-08
-2.31804e-06
-5.65857e-08
-2.29678e-06
-6.12276e-08
-2.27401e-06
-6.58607e-08
-2.24973e-06
-7.04785e-08
-2.22397e-06
-7.50747e-08
-2.19672e-06
-7.9643e-08
-2.16799e-06
-8.41768e-08
-2.13781e-06
-8.86699e-08
-2.10618e-06
-9.31158e-08
-2.07312e-06
-9.7508e-08
-2.03865e-06
-1.0184e-07
-2.00279e-06
-1.06107e-07
-1.96558e-06
-1.10301e-07
-1.92702e-06
-1.14417e-07
-1.88715e-06
-1.18449e-07
-1.846e-06
-1.22391e-07
-1.8036e-06
-1.26239e-07
-1.75999e-06
-1.29986e-07
-1.71518e-06
-1.33627e-07
-1.66924e-06
-1.37157e-07
-1.62218e-06
-1.4057e-07
-1.57405e-06
-1.43863e-07
-1.52489e-06
-1.47031e-07
-1.47475e-06
-1.5007e-07
-1.42366e-06
-1.52976e-07
-1.37167e-06
-1.55745e-07
-1.31883e-06
-1.58375e-07
-1.26519e-06
-1.60862e-07
-1.21078e-06
-1.63204e-07
-1.15566e-06
-1.65398e-07
-1.09988e-06
-1.67444e-07
-1.04348e-06
-1.6934e-07
-9.86517e-07
-1.71084e-07
-9.29041e-07
-1.72677e-07
-8.71098e-07
-1.74118e-07
-8.12739e-07
-1.75408e-07
-7.54012e-07
-1.76548e-07
-6.94967e-07
-1.77539e-07
-6.3565e-07
-1.78383e-07
-5.7611e-07
-1.79084e-07
-5.16391e-07
-1.79643e-07
-4.5654e-07
-1.80064e-07
-3.966e-07
-1.80351e-07
-3.36612e-07
-1.80508e-07
-2.76619e-07
-1.8054e-07
-2.16659e-07
-1.80451e-07
-1.56769e-07
-1.80247e-07
-9.69863e-08
-1.79933e-07
-3.73431e-08
-1.79512e-07
2.21276e-08
-1.78987e-07
8.13936e-08
-1.7836e-07
1.40428e-07
-1.77631e-07
1.99202e-07
-1.76804e-07
2.57699e-07
-1.75886e-07
3.15912e-07
-1.74896e-07
3.73846e-07
-1.73858e-07
4.31499e-07
-1.7279e-07
4.88857e-07
-1.71713e-07
5.45904e-07
-1.70645e-07
6.02631e-07
-1.6959e-07
6.5903e-07
-1.68535e-07
7.15088e-07
-1.67459e-07
7.7078e-07
-1.66321e-07
8.26062e-07
-1.65057e-07
8.80855e-07
-1.63555e-07
9.35019e-07
-1.6162e-07
9.88312e-07
-1.58889e-07
1.04032e-06
-1.54679e-07
1.0904e-06
-1.47541e-07
1.13762e-06
-1.34782e-07
1.18157e-06
-1.0988e-07
-6.04257e-08
1.22659e-06
-5.18454e-09
-2.23154e-08
-1.53504e-08
-7.37664e-09
-2.76683e-08
6.98824e-09
-4.15353e-08
2.01115e-08
-5.6749e-08
3.24357e-08
-7.32566e-08
4.40688e-08
-9.10931e-08
5.49896e-08
-1.10349e-07
6.51345e-08
-1.31137e-07
7.44515e-08
-1.53553e-07
8.29297e-08
-1.77649e-07
9.06097e-08
-2.03423e-07
9.75736e-08
-2.30822e-07
1.03926e-07
-2.59758e-07
1.09774e-07
-2.9012e-07
1.15209e-07
-3.21787e-07
1.20298e-07
-3.54631e-07
1.25087e-07
-3.88519e-07
1.29595e-07
-4.23307e-07
1.33827e-07
-4.58844e-07
1.37768e-07
-4.94965e-07
1.41396e-07
-5.31487e-07
1.44684e-07
-5.68212e-07
1.476e-07
-6.04945e-07
1.50105e-07
-6.41552e-07
1.52154e-07
-6.77946e-07
1.53724e-07
-7.14011e-07
1.54848e-07
-7.49608e-07
1.55575e-07
-7.8468e-07
1.5593e-07
-8.19277e-07
1.55944e-07
-8.53292e-07
1.55683e-07
-8.86758e-07
1.55179e-07
-9.1974e-07
1.54462e-07
-9.52269e-07
1.5358e-07
-9.84321e-07
1.52565e-07
-1.01609e-06
1.51387e-07
-1.04782e-06
1.50097e-07
-1.07952e-06
1.48837e-07
-1.11106e-06
1.47689e-07
-1.14239e-06
1.46657e-07
-1.17353e-06
1.45725e-07
-1.20448e-06
1.44879e-07
-1.23527e-06
1.44102e-07
-1.26592e-06
1.43381e-07
-1.29643e-06
1.42701e-07
-1.32682e-06
1.42051e-07
-1.35709e-06
1.4142e-07
-1.38723e-06
1.40797e-07
-1.41726e-06
1.4017e-07
-1.44715e-06
1.39528e-07
-1.47691e-06
1.38861e-07
-1.50651e-06
1.38158e-07
-1.53596e-06
1.37409e-07
-1.56522e-06
1.36604e-07
-1.5943e-06
1.35734e-07
-1.62316e-06
1.3479e-07
-1.65179e-06
1.33765e-07
-1.68016e-06
1.3265e-07
-1.70826e-06
1.31438e-07
-1.73606e-06
1.30124e-07
-1.76353e-06
1.28701e-07
-1.79065e-06
1.27164e-07
-1.81739e-06
1.25509e-07
-1.84373e-06
1.23731e-07
-1.86963e-06
1.21828e-07
-1.89506e-06
1.19796e-07
-1.92e-06
1.17633e-07
-1.94442e-06
1.15337e-07
-1.96828e-06
1.12907e-07
-1.99155e-06
1.10342e-07
-2.01421e-06
1.07641e-07
-2.03621e-06
1.04804e-07
-2.05754e-06
1.01832e-07
-2.07816e-06
9.87251e-08
-2.09803e-06
9.5484e-08
-2.11713e-06
9.21102e-08
-2.13543e-06
8.86052e-08
-2.1529e-06
8.49705e-08
-2.16951e-06
8.1208e-08
-2.18522e-06
7.73197e-08
-2.20001e-06
7.33078e-08
-2.21386e-06
6.91745e-08
-2.22673e-06
6.4922e-08
-2.23861e-06
6.05526e-08
-2.24945e-06
5.60686e-08
-2.25925e-06
5.14725e-08
-2.26797e-06
4.67665e-08
-2.2756e-06
4.19532e-08
-2.28211e-06
3.70352e-08
-2.28748e-06
3.20158e-08
-2.2917e-06
2.68988e-08
-2.29474e-06
2.1689e-08
-2.29661e-06
1.63925e-08
-2.29727e-06
1.10166e-08
-2.29671e-06
5.5705e-09
-2.2949e-06
5.95072e-11
-2.29181e-06
-5.49948e-09
-2.28741e-06
-1.11233e-08
-2.28166e-06
-1.68113e-08
-2.27454e-06
-2.25714e-08
-2.26603e-06
-2.84001e-08
-2.25611e-06
-3.42912e-08
-2.24478e-06
-4.02373e-08
-2.23201e-06
-4.62302e-08
-2.21781e-06
-5.22617e-08
-2.20215e-06
-5.83236e-08
-2.18505e-06
-6.44074e-08
-2.16648e-06
-7.05049e-08
-2.14646e-06
-7.66075e-08
-2.12498e-06
-8.2707e-08
-2.10205e-06
-8.87949e-08
-2.07766e-06
-9.48628e-08
-2.05184e-06
-1.00902e-07
-2.02457e-06
-1.06905e-07
-1.99589e-06
-1.12863e-07
-1.96579e-06
-1.18768e-07
-1.9343e-06
-1.2461e-07
-1.90142e-06