/*--------------------------------*- C++ -*----------------------------------*\
  =========                 |
  \\      /  F ield         | OpenFOAM: The Open Source CFD Toolbox
   \\    /   O peration     | Website:  https://openfoam.org
    \\  /    A nd           | Version:  12
     \\/     M anipulation  |
\*---------------------------------------------------------------------------*/
FoamFile
{
    format      ascii;
    class       volVectorField;
    location    "0.12";
    object      U;
}
// * * * * * * * * * * * * * * * * * * * * * * * * * * * * * * * * * * * * * //

dimensions      [0 1 -1 0 0 0 0];

internalField   nonuniform List<vector> 
12225
(
(9.86107 -0.874317 0)
(9.67245 -0.700188 0)
(9.4589 -0.387584 0)
(9.22453 -0.188465 0)
(9.00327 -0.0843786 0)
(8.81008 -0.0328565 0)
(8.64466 -0.00752542 0)
(8.50351 0.00505735 0)
(8.38314 0.0113782 0)
(8.28002 0.0145261 0)
(8.19076 0.0160373 0)
(8.11247 0.0167296 0)
(8.04271 0.0170496 0)
(7.97964 0.0173004 0)
(7.92017 0.0176779 0)
(7.86531 0.0190225 0)
(7.79293 0.0221093 0)
(7.76625 0.032841 0)
(10.0547 0.263071 0)
(10.1201 0.360748 0)
(10.118 0.273833 0)
(10.0826 0.187108 0)
(10.0405 0.131189 0)
(9.99377 0.096962 0)
(9.9399 0.075603 0)
(9.88008 0.0618088 0)
(9.8174 0.0524197 0)
(9.75434 0.0456244 0)
(9.69233 0.0404823 0)
(9.63219 0.0365372 0)
(9.57428 0.0335398 0)
(9.51897 0.0314905 0)
(9.46542 0.0302386 0)
(9.41628 0.0317045 0)
(9.36389 0.0332608 0)
(9.33965 0.0557201 0)
(9.99919 0.0460901 0)
(10.0244 0.0342204 0)
(10.0538 0.0149686 0)
(10.0707 0.0218401 0)
(10.0777 0.0367127 0)
(10.0781 0.0460612 0)
(10.072 0.0500166 0)
(10.0599 0.0512263 0)
(10.0435 0.0511567 0)
(10.024 0.0504713 0)
(10.0023 0.0495445 0)
(9.97908 0.0486282 0)
(9.95468 0.0478806 0)
(9.92958 0.0475584 0)
(9.90369 0.0477508 0)
(9.8781 0.0499322 0)
(9.85191 0.0532269 0)
(9.83188 0.0660957 0)
(9.9968 0.00643214 0)
(10.0085 0.0250319 0)
(10.0342 0.0389616 0)
(10.0527 0.0503375 0)
(10.0643 0.057157 0)
(10.0729 0.05923 0)
(10.0787 0.0589384 0)
(10.0813 0.0580436 0)
(10.0812 0.0570689 0)
(10.0789 0.0560927 0)
(10.0751 0.0551718 0)
(10.0698 0.0543998 0)
(10.0633 0.0538772 0)
(10.0559 0.0538213 0)
(10.0475 0.054389 0)
(10.039 0.0565563 0)
(10.0307 0.0599835 0)
(10.0252 0.0675041 0)
(9.99922 0.00674313 0)
(10.0081 0.0335919 0)
(10.0271 0.0460748 0)
(10.0417 0.0508914 0)
(10.0523 0.0539775 0)
(10.062 0.0555868 0)
(10.0706 0.0559584 0)
(10.0771 0.0558053 0)
(10.0818 0.0554757 0)
(10.0852 0.055064 0)
(10.0874 0.0546493 0)
(10.0886 0.0543438 0)
(10.0889 0.054268 0)
(10.0885 0.0546173 0)
(10.0876 0.0555665 0)
(10.0866 0.0576691 0)
(10.0862 0.0607409 0)
(10.0879 0.065366 0)
(10.0002 0.00908144 0)
(10.0078 0.0321476 0)
(10.0225 0.0419505 0)
(10.0349 0.0457228 0)
(10.0447 0.0492037 0)
(10.054 0.0517651 0)
(10.0628 0.0529343 0)
(10.0702 0.0533234 0)
(10.0763 0.0534104 0)
(10.0814 0.0533627 0)
(10.0857 0.053277 0)
(10.0892 0.0532687 0)
(10.0922 0.0534594 0)
(10.0946 0.05401 0)
(10.0968 0.0550638 0)
(10.099 0.056898 0)
(10.1019 0.0593515 0)
(10.1064 0.0622821 0)
(10.0003 0.00880964 0)
(10.0068 0.0275458 0)
(10.0189 0.0371303 0)
(10.0302 0.0418099 0)
(10.0394 0.0457556 0)
(10.0481 0.0486099 0)
(10.0564 0.0500556 0)
(10.0638 0.0506925 0)
(10.0702 0.0510091 0)
(10.0758 0.0511812 0)
(10.0809 0.0513006 0)
(10.0854 0.0514743 0)
(10.0894 0.0518133 0)
(10.0931 0.0524412 0)
(10.0967 0.053455 0)
(10.1004 0.054965 0)
(10.1047 0.0568023 0)
(10.1101 0.0586286 0)
(10.0004 0.00784847 0)
(10.0057 0.0237282 0)
(10.016 0.0334254 0)
(10.0263 0.0386689 0)
(10.035 0.042593 0)
(10.0431 0.0454207 0)
(10.051 0.0470155 0)
(10.0581 0.0478449 0)
(10.0645 0.0483364 0)
(10.0703 0.0486672 0)
(10.0756 0.0489292 0)
(10.0805 0.0492206 0)
(10.085 0.0496376 0)
(10.0894 0.0502694 0)
(10.0936 0.0511694 0)
(10.0981 0.0523526 0)
(10.1029 0.0536473 0)
(10.1086 0.0547191 0)
(10.0004 0.00696435 0)
(10.0049 0.0207467 0)
(10.0136 0.0301007 0)
(10.0229 0.0354958 0)
(10.0311 0.0393135 0)
(10.0388 0.0421124 0)
(10.0462 0.0438484 0)
(10.0531 0.044849 0)
(10.0594 0.0454816 0)
(10.0652 0.0459308 0)
(10.0705 0.0462928 0)
(10.0756 0.0466558 0)
(10.0803 0.0470997 0)
(10.085 0.0476853 0)
(10.0896 0.0484323 0)
(10.0943 0.0493078 0)
(10.0994 0.0501528 0)
(10.105 0.0507037 0)
(10.0004 0.00617949 0)
(10.0042 0.018167 0)
(10.0115 0.0268729 0)
(10.0199 0.0322467 0)
(10.0276 0.0359927 0)
(10.0348 0.0387655 0)
(10.0419 0.0405997 0)
(10.0485 0.0417311 0)
(10.0547 0.042472 0)
(10.0604 0.0430083 0)
(10.0657 0.043438 0)
(10.0708 0.0438382 0)
(10.0757 0.0442731 0)
(10.0805 0.0447818 0)
(10.0852 0.045363 0)
(10.0901 0.0459651 0)
(10.0951 0.0464538 0)
(10.1005 0.0466447 0)
(10.0003 0.00544463 0)
(10.0036 0.0158501 0)
(10.0098 0.0237964 0)
(10.0172 0.0290309 0)
(10.0244 0.0326896 0)
(10.0313 0.0354003 0)
(10.0379 0.0372732 0)
(10.0443 0.0384908 0)
(10.0503 0.0393103 0)
(10.0559 0.0399076 0)
(10.0613 0.0403785 0)
(10.0664 0.04079 0)
(10.0713 0.0411924 0)
(10.0761 0.0416099 0)
(10.0809 0.0420308 0)
(10.0857 0.0424021 0)
(10.0907 0.042619 0)
(10.0958 0.0425636 0)
(10.0003 0.00479394 0)
(10.0031 0.0139102 0)
(10.0085 0.021131 0)
(10.0152 0.026136 0)
(10.0219 0.029671 0)
(10.0283 0.0322908 0)
(10.0347 0.0341538 0)
(10.0408 0.0354122 0)
(10.0467 0.0362765 0)
(10.0522 0.0369066 0)
(10.0574 0.0373936 0)
(10.0625 0.0377964 0)
(10.0674 0.0381548 0)
(10.0722 0.0384847 0)
(10.077 0.0387711 0)
(10.0818 0.0389688 0)
(10.0866 0.0389987 0)
(10.0914 0.0387914 0)
(10.0003 0.00418918 0)
(10.0027 0.0121481 0)
(10.0074 0.018625 0)
(10.0134 0.0233099 0)
(10.0196 0.0266783 0)
(10.0257 0.029183 0)
(10.0318 0.0310014 0)
(10.0376 0.0322679 0)
(10.0433 0.0331531 0)
(10.0487 0.0337968 0)
(10.0539 0.0342837 0)
(10.0589 0.0346658 0)
(10.0638 0.034975 0)
(10.0686 0.0352223 0)
(10.0733 0.0353937 0)
(10.0779 0.0354539 0)
(10.0826 0.0353459 0)
(10.0872 0.0350356 0)
(10.0003 0.0035591 0)
(10.0024 0.0103152 0)
(10.0064 0.0159415 0)
(10.0117 0.0201752 0)
(10.0174 0.0232892 0)
(10.0231 0.0256201 0)
(10.0288 0.0273421 0)
(10.0344 0.0285741 0)
(10.0399 0.0294491 0)
(10.0452 0.0300824 0)
(10.0502 0.030549 0)
(10.0552 0.0308938 0)
(10.06 0.0311425 0)
(10.0647 0.031303 0)
(10.0693 0.0313656 0)
(10.0738 0.0313065 0)
(10.0783 0.0310894 0)
(10.0827 0.030707 0)
(10.0002 0.002902 0)
(10.002 0.00841012 0)
(10.0055 0.0130899 0)
(10.0101 0.0167374 0)
(10.0153 0.0194874 0)
(10.0206 0.0215666 0)
(10.0259 0.023125 0)
(10.0313 0.0242644 0)
(10.0365 0.025084 0)
(10.0416 0.0256728 0)
(10.0466 0.0260926 0)
(10.0514 0.0263811 0)
(10.0561 0.0265588 0)
(10.0607 0.026633 0)
(10.0651 0.0265993 0)
(10.0695 0.0264454 0)
(10.0737 0.0261519 0)
(10.0779 0.0257295 0)
(10.0002 0.00221801 0)
(10.0017 0.00643304 0)
(10.0047 0.0100744 0)
(10.0087 0.0129965 0)
(10.0134 0.0152537 0)
(10.0183 0.0169821 0)
(10.0233 0.0182932 0)
(10.0283 0.0192659 0)
(10.0333 0.0199706 0)
(10.0382 0.02047 0)
(10.043 0.0208105 0)
(10.0477 0.0210215 0)
(10.0523 0.0211195 0)
(10.0567 0.0211118 0)
(10.061 0.0209989 0)
(10.0652 0.0207775 0)
(10.0692 0.0204401 0)
(10.0732 0.0200072 0)
(10.0002 0.00150371 0)
(10.0015 0.00436647 0)
(10.0041 0.00687113 0)
(10.0077 0.00892676 0)
(10.0118 0.0105491 0)
(10.0164 0.0118087 0)
(10.021 0.0127729 0)
(10.0258 0.0134929 0)
(10.0306 0.0140124 0)
(10.0353 0.0143697 0)
(10.0399 0.0145946 0)
(10.0444 0.0147069 0)
(10.0488 0.0147184 0)
(10.0531 0.0146358 0)
(10.0572 0.0144621 0)
(10.0612 0.0141995 0)
(10.0651 0.0138465 0)
(10.0688 0.0134272 0)
(10.0001 0.000740999 0)
(10.0013 0.00215325 0)
(10.0037 0.00339864 0)
(10.0069 0.00443712 0)
(10.0108 0.00527205 0)
(10.015 0.00592876 0)
(10.0195 0.00643267 0)
(10.024 0.00680413 0)
(10.0286 0.00706093 0)
(10.0331 0.0072187 0)
(10.0375 0.00728958 0)
(10.0419 0.00728177 0)
(10.0461 0.0072006 0)
(10.0502 0.00704963 0)
(10.0542 0.00683152 0)
(10.058 0.00654936 0)
(10.0617 0.00620397 0)
(10.0652 0.00581755 0)
(10.0001 -0.000117351 0)
(10.0013 -0.00034041 0)
(10.0035 -0.000535015 0)
(10.0067 -0.000687567 0)
(10.0104 -0.000794745 0)
(10.0146 -0.000869863 0)
(10.0189 -0.000931852 0)
(10.0233 -0.000994471 0)
(10.0278 -0.0010665 0)
(10.0322 -0.00115541 0)
(10.0365 -0.00126818 0)
(10.0407 -0.00141038 0)
(10.0449 -0.00158592 0)
(10.0488 -0.00179726 0)
(10.0526 -0.00204566 0)
(10.0563 -0.00233067 0)
(10.0598 -0.0026529 0)
(10.0632 -0.00299561 0)
(10.0001 -0.000943725 0)
(10.0014 -0.00274802 0)
(10.0038 -0.00433937 0)
(10.0071 -0.0056349 0)
(10.0111 -0.00662772 0)
(10.0154 -0.00737899 0)
(10.0198 -0.00795548 0)
(10.0243 -0.00840243 0)
(10.0288 -0.00875452 0)
(10.0333 -0.00904401 0)
(10.0376 -0.0092978 0)
(10.0418 -0.00953496 0)
(10.0459 -0.00976845 0)
(10.0498 -0.0100074 0)
(10.0536 -0.0102582 0)
(10.0571 -0.0105243 0)
(10.0606 -0.0108088 0)
(10.0639 -0.0111008 0)
(10.0002 -0.00166021 0)
(10.0015 -0.00485906 0)
(10.0042 -0.00767519 0)
(10.008 -0.00990462 0)
(10.0123 -0.0115623 0)
(10.0169 -0.0128048 0)
(10.0216 -0.0137495 0)
(10.0263 -0.014456 0)
(10.0309 -0.0149785 0)
(10.0355 -0.0153763 0)
(10.0399 -0.0156967 0)
(10.0441 -0.0159702 0)
(10.0482 -0.0162168 0)
(10.0521 -0.0164508 0)
(10.0558 -0.0166824 0)
(10.0594 -0.0169175 0)
(10.0628 -0.017161 0)
(10.066 -0.0174054 0)
(10.0002 -0.00234473 0)
(10.0017 -0.00695549 0)
(10.0049 -0.0110241 0)
(10.0092 -0.014092 0)
(10.0141 -0.0162529 0)
(10.0191 -0.017844 0)
(10.0241 -0.0190457 0)
(10.029 -0.0199222 0)
(10.0339 -0.0205457 0)
(10.0385 -0.0209991 0)
(10.043 -0.0213441 0)
(10.0473 -0.021619 0)
(10.0514 -0.0218503 0)
(10.0553 -0.0220577 0)
(10.059 -0.0222544 0)
(10.0626 -0.0224486 0)
(10.066 -0.0226457 0)
(10.0692 -0.0228407 0)
(10.0002 -0.00298278 0)
(10.0018 -0.00907177 0)
(10.0056 -0.0144181 0)
(10.0109 -0.0182361 0)
(10.0164 -0.0208284 0)
(10.0218 -0.0226948 0)
(10.0271 -0.02403 0)
(10.0323 -0.0249397 0)
(10.0374 -0.0255617 0)
(10.0422 -0.0260077 0)
(10.0468 -0.0263379 0)
(10.0511 -0.0265877 0)
(10.0553 -0.0267858 0)
(10.0592 -0.0269553 0)
(10.0629 -0.0271112 0)
(10.0665 -0.0272621 0)
(10.0699 -0.0274134 0)
(10.073 -0.0275621 0)
(10.0001 -0.00356112 0)
(10.0019 -0.0115094 0)
(10.0065 -0.0178827 0)
(10.0127 -0.0219885 0)
(10.019 -0.0249497 0)
(10.0249 -0.0272273 0)
(10.0306 -0.0287458 0)
(10.0361 -0.0296347 0)
(10.0413 -0.0301709 0)
(10.0463 -0.0305327 0)
(10.0509 -0.0307862 0)
(10.0554 -0.0309636 0)
(10.0595 -0.0310946 0)
(10.0635 -0.0312028 0)
(10.0672 -0.031302 0)
(10.0707 -0.0313994 0)
(10.0741 -0.0314986 0)
(10.0772 -0.0315955 0)
(9.99997 -0.00368314 0)
(10.0018 -0.0151593 0)
(10.0076 -0.0226154 0)
(10.0148 -0.0259297 0)
(10.0215 -0.028476 0)
(10.0278 -0.0309207 0)
(10.0341 -0.032681 0)
(10.0401 -0.0337017 0)
(10.0457 -0.0342838 0)
(10.0508 -0.0346364 0)
(10.0556 -0.034843 0)
(10.06 -0.0349525 0)
(10.0642 -0.0350073 0)
(10.0681 -0.0350371 0)
(10.0717 -0.0350585 0)
(10.075 -0.0350799 0)
(10.0782 -0.0351049 0)
(10.0811 -0.0351312 0)
(9.99898 -0.00130425 0)
(10 -0.0179587 0)
(10.0085 -0.0290428 0)
(10.0174 -0.0326551 0)
(10.0245 -0.0340658 0)
(10.0313 -0.0352782 0)
(10.0383 -0.0362109 0)
(10.045 -0.0368387 0)
(10.0509 -0.0372743 0)
(10.0562 -0.0375581 0)
(10.0609 -0.0377048 0)
(10.0651 -0.0377504 0)
(10.0688 -0.0377363 0)
(10.0722 -0.0376922 0)
(10.0751 -0.0376363 0)
(10.0777 -0.03758 0)
(10.0801 -0.0375269 0)
(10.0821 -0.0374762 0)
(9.99528 0.00387242 0)
(9.99334 -0.0103015 0)
(10.007 -0.027086 0)
(10.0212 -0.0388999 0)
(10.0311 -0.0448278 0)
(10.0392 -0.0464237 0)
(10.0467 -0.0459292 0)
(10.0531 -0.0449611 0)
(10.0582 -0.0440745 0)
(10.0623 -0.0432905 0)
(10.0655 -0.042566 0)
(10.0678 -0.0418979 0)
(10.0694 -0.0412929 0)
(10.0704 -0.0407507 0)
(10.0709 -0.0402689 0)
(10.0709 -0.0398466 0)
(10.0706 -0.0394743 0)
(10.07 -0.0391252 0)
(9.99144 -0.0172911 0)
(9.99189 0.00037277 0)
(10.01 0.0176778 0)
(10.0296 0.0116064 0)
(10.0442 -0.00508318 0)
(10.0542 -0.0187923 0)
(10.0601 -0.0271323 0)
(10.0624 -0.032003 0)
(10.0618 -0.0348781 0)
(10.0593 -0.0364769 0)
(10.0552 -0.0372472 0)
(10.0498 -0.0375142 0)
(10.0435 -0.0374908 0)
(10.0365 -0.0373066 0)
(10.029 -0.0370454 0)
(10.0212 -0.0367684 0)
(10.0131 -0.036531 0)
(10.005 -0.0363022 0)
(10.0235 -0.206006 0)
(10.0684 -0.312334 0)
(10.0789 -0.255583 0)
(10.0704 -0.184164 0)
(10.0606 -0.134884 0)
(10.0499 -0.102705 0)
(10.0343 -0.0811403 0)
(10.013 -0.0665898 0)
(9.98794 -0.0565941 0)
(9.96075 -0.0494345 0)
(9.93258 -0.0440734 0)
(9.90413 -0.0399213 0)
(9.87588 -0.03662 0)
(9.84819 -0.0339367 0)
(9.82127 -0.0317235 0)
(9.79525 -0.029917 0)
(9.77038 -0.0284868 0)
(9.74667 -0.0277494 0)
(9.94226 0.671596 0)
(9.87997 0.567458 0)
(9.77447 0.338472 0)
(9.63243 0.183327 0)
(9.48774 0.094915 0)
(9.35666 0.0470938 0)
(9.24114 0.0213112 0)
(9.13969 0.00709214 0)
(9.05081 -0.000964871 0)
(8.97288 -0.00560377 0)
(8.90418 -0.00829069 0)
(8.84318 -0.00985076 0)
(8.78862 -0.0107542 0)
(8.73951 -0.0112699 0)
(8.69504 -0.0115586 0)
(8.65449 -0.011745 0)
(8.61702 -0.0119229 0)
(8.58224 -0.0124535 0)
(0.00501872 -0.00941854 -3.53573e-20)
(0.0172212 -0.0167407 3.44686e-20)
(0.0285949 -0.0165397 0)
(0.0370176 -0.0119797 0)
(0.0409193 -0.00518811 0)
(0.0396774 0.00217793 -3.13922e-20)
(0.0336508 0.00886447 0)
(0.0235851 0.014183 0)
(0.0102576 0.0179401 0)
(-0.00553833 0.0203285 0)
(-0.0231272 0.021761 2.83516e-20)
(-0.0420856 0.0226541 0)
(-0.0621555 0.0233123 0)
(-0.0831929 0.0239165 0)
(-0.10513 0.0245462 0)
(-0.127933 0.0252139 2.4876e-20)
(-0.151578 0.0258981 0)
(-0.176035 0.026572 0)
(-0.20127 0.0272183 0)
(-0.227239 0.0278283 0)
(-0.253888 0.0284034 0)
(-0.281195 0.0290488 0)
(-0.309242 0.030109 0)
(-0.338071 0.0316627 2.18389e-20)
(-0.367531 0.0324643 -2.16084e-20)
(-0.397419 0.0316871 2.13923e-20)
(-0.427825 0.0324023 2.11904e-20)
(-0.458214 0.0423618 0)
(-0.49063 0.0368261 0)
(-0.524302 0.0337093 -2.12432e-20)
(-0.556046 0.0416732 -2.04424e-20)
(-0.590867 0.0472511 0)
(-0.626591 0.0435384 0)
(-0.663863 0.0447829 -2.03852e-20)
(-0.700901 0.0624475 0)
(-0.740509 0.0633119 0)
(-0.77926 0.0399806 2.17112e-20)
(-0.814442 0.0283255 0)
(-0.848267 0.0319146 2.12353e-20)
(-0.884737 0.0326495 4.1988e-20)
(-0.921604 0.0330295 0)
(-0.958875 0.0331077 0)
(-0.996315 0.0330264 0)
(-1.03384 0.0328596 0)
(-1.07139 0.0326494 0)
(-1.10893 0.0324193 3.93473e-20)
(-1.14646 0.0321822 3.895e-20)
(-1.18397 0.0319448 3.85635e-20)
(-1.22145 0.0317096 0)
(-1.25891 0.031477 -3.78195e-20)
(-1.29634 0.031246 0)
(-1.33373 0.0310147 3.711e-20)
(-1.37109 0.030781 3.67667e-20)
(-1.40839 0.0305422 0)
(-1.44564 0.0302961 0)
(-1.48281 0.03004 0)
(-1.51989 0.0297718 3.54558e-20)
(-1.55685 0.0294893 0)
(-1.59368 0.0291907 0)
(-1.63035 0.0288741 0)
(-1.66683 0.0285383 0)
(-1.70309 0.0281818 0)
(-1.7391 0.0278038 0)
(-1.77484 0.0274034 0)
(-1.81026 0.02698 0)
(-1.84533 0.0265331 -3.27327e-20)
(-1.88002 0.0260626 0)
(-1.91428 0.0255683 0)
(-1.94809 0.0250503 3.18475e-20)
(-1.98139 0.0245089 3.15507e-20)
(-2.01415 0.0239442 0)
(-2.04634 0.0233569 -3.09515e-20)
(-2.07792 0.0227473 3.06481e-20)
(-2.10884 0.0221161 0)
(-2.13906 0.0214639 -3.00315e-20)
(-2.16855 0.0207915 0)
(-2.19728 0.0200996 0)
(-2.22519 0.0193889 2.90746e-20)
(-2.25225 0.0186601 0)
(-2.27844 0.017914 -2.84099e-20)
(-2.3037 0.0171511 0)
(-2.328 0.0163719 2.77198e-20)
(-2.35131 0.0155767 2.73641e-20)
(-2.37358 0.0147657 2.70007e-20)
(-2.39479 0.0139387 5.32586e-20)
(-2.4149 0.013095 -5.24989e-20)
(-2.43388 0.0122336 0)
(-2.45167 0.0113525 0)
(-2.46825 0.0104491 0)
(-2.48357 0.0095198 -4.92773e-20)
(-2.4976 0.00856023 -4.84229e-20)
(-2.51028 0.00756565 4.75479e-20)
(-2.52155 0.00653059 0)
(-2.53136 0.00544988 -4.57342e-20)
(-2.53963 0.00432403 -4.47949e-20)
(-2.54629 0.00316969 -4.38343e-20)
(-2.55122 0.00202403 0)
(-2.5543 0.000925541 0)
(-2.55557 -7.19973e-05 0)
(-2.5555 -0.000929484 -3.97441e-20)
(-2.55395 -0.00175373 0)
(-2.55097 -0.00256415 0)
(-2.54654 -0.0033692 3.6397e-20)
(-2.54066 -0.00417051 0)
(-2.5333 -0.00496822 0)
(-2.52445 -0.00576174 3.2808e-20)
(-2.51411 -0.00655029 0)
(-2.50227 -0.00733296 0)
(-2.48891 -0.00810887 -2.89756e-20)
(-2.47404 -0.00887709 -2.76443e-20)
(-2.45765 -0.00963673 0)
(-2.43974 -0.0103869 2.49025e-20)
(-2.4203 -0.0111267 0)
(-2.39935 -0.0118554 -2.20571e-20)
(-2.37688 -0.0125719 0)
(-2.3529 -0.0132756 -1.91115e-20)
(-2.32743 -0.0139656 -1.76024e-20)
(-2.30047 -0.0146411 0)
(-2.27204 -0.0153014 0)
(-2.24214 -0.0159457 0)
(-2.21081 -0.0165733 0)
(-2.17805 -0.0171835 0)
(-2.14389 -0.0177758 0)
(-2.10834 -0.0183494 0)
(-2.07144 -0.0189039 -4.7563e-21)
(-2.03322 -0.0194385 3.06716e-21)
(-1.99369 -0.0199528 0)
(-1.95289 -0.0204462 0)
(-1.91085 -0.0209184 0)
(-1.8676 -0.0213688 0)
(-1.82319 -0.0217971 -1.11614e-20)
(-1.77764 -0.0222031 0)
(-1.73099 -0.0225863 1.82215e-20)
(-1.68328 -0.0229466 -2.17711e-20)
(-1.63456 -0.0232837 0)
(-1.58487 -0.0235974 0)
(-1.53424 -0.0238877 0)
(-1.48272 -0.0241546 3.60345e-20)
(-1.43036 -0.024398 3.9602e-20)
(-1.3772 -0.0246181 0)
(-1.32329 -0.0248148 4.6718e-20)
(-1.26867 -0.0249884 5.02606e-20)
(-1.21339 -0.0251392 -5.3789e-20)
(-1.1575 -0.0252675 0)
(-1.10104 -0.0253735 0)
(-1.04405 -0.0254577 -6.42598e-20)
(-0.986596 -0.0255208 0)
(-0.928708 -0.025563 0)
(-0.870435 -0.0255852 0)
(-0.81182 -0.0255879 0)
(-0.752906 -0.0255719 8.11597e-20)
(-0.693736 -0.0255379 8.44327e-20)
(-0.634349 -0.0254867 0)
(-0.574784 -0.025419 9.08521e-20)
(-0.51508 -0.0253358 0)
(-0.455273 -0.0252377 0)
(-0.395397 -0.0251253 1.00131e-19)
(-0.335487 -0.0249985 0)
(-0.275579 -0.0248567 1.06059e-19)
(-0.21571 -0.0246966 0)
(-0.155917 -0.0245102 0)
(-0.0962347 -0.0242961 1.14532e-19)
(-0.0366873 -0.0240453 0)
(0.0226214 -0.0236896 1.19175e-19)
(0.0816572 -0.0232509 0)
(0.140476 -0.0228273 0)
(0.19908 -0.022431 0)
(0.257488 -0.022055 -1.22665e-19)
(0.315716 -0.0216924 0)
(0.373773 -0.021338 1.23924e-19)
(0.431653 -0.0209858 0)
(0.48933 -0.0206274 0)
(0.54675 -0.0202497 0)
(0.603801 -0.0198291 0)
(0.660296 -0.0193191 0)
(0.715701 -0.0186265 0)
(0.769602 -0.0174928 0)
(0.817633 -0.0152717 -2.53708e-19)
(0.864294 -0.0100512 0)
(0.860527 0.00777027 0)
(0.00667812 -0.0364163 1.04753e-19)
(0.0150949 -0.0380336 -9.87897e-20)
(0.0171822 -0.0267956 0)
(0.0157395 -0.0132452 5.80935e-20)
(0.0111432 0.00068114 0)
(0.00379047 0.0139272 2.70414e-20)
(-0.00613454 0.0257496 -5.25532e-20)
(-0.0185556 0.0357019 -5.1098e-20)
(-0.033392 0.0436574 0)
(-0.0505019 0.0497749 -4.84364e-20)
(-0.0696956 0.0544186 -2.36028e-20)
(-0.0907601 0.0580104 0)
(-0.113491 0.0609147 0)
(-0.137718 0.0633947 0)
(-0.163311 0.065614 0)
(-0.190179 0.0676579 -2.09058e-20)
(-0.218267 0.0695628 0)
(-0.247541 0.0713415 4.01568e-20)
(-0.277984 0.072998 0)
(-0.309589 0.0745313 0)
(-0.342362 0.075944 -3.83629e-20)
(-0.376308 0.0772771 0)
(-0.411349 0.0786335 3.75673e-20)
(-0.447348 0.0800229 -1.86794e-20)
(-0.484397 0.0810952 1.85607e-20)
(-0.522845 0.0815068 -1.84445e-20)
(-0.562362 0.0817297 -1.83282e-20)
(-0.601439 0.0828011 0)
(-0.641999 0.0847121 0)
(-0.682335 0.0848293 1.80208e-20)
(-0.723549 0.0854029 -1.77639e-20)
(-0.763402 0.085862 0)
(-0.804055 0.0866068 0)
(-0.843525 0.0859653 1.73485e-20)
(-0.881403 0.085641 0)
(-0.918263 0.0860535 0)
(-0.956615 0.0862978 -1.70238e-20)
(-0.996235 0.0864308 0)
(-1.03529 0.0869308 1.65366e-20)
(-1.07267 0.0869302 -3.28601e-20)
(-1.10917 0.0865459 0)
(-1.14514 0.0859498 0)
(-1.18075 0.0852293 -6.3427e-20)
(-1.21608 0.0844439 -6.2762e-20)
(-1.25118 0.0836288 -6.21169e-20)
(-1.28609 0.0828044 3.06667e-20)
(-1.32082 0.0819812 -3.052e-20)
(-1.35538 0.0811634 -9.05134e-20)
(-1.38977 0.080351 5.97118e-20)
(-1.42401 0.0795417 2.96543e-20)
(-1.45807 0.0787317 0)
(-1.49196 0.0779161 -2.91101e-20)
(-1.52566 0.0770899 2.86847e-20)
(-1.55917 0.076248 0)
(-1.59247 0.0753854 0)
(-1.62555 0.0744975 0)
(-1.65837 0.0735799 -2.78355e-20)
(-1.69094 0.0726288 0)
(-1.72321 0.0716408 5.45434e-20)
(-1.75518 0.070613 0)
(-1.78681 0.069543 5.35962e-20)
(-1.81809 0.0684286 0)
(-1.84897 0.0672684 -5.26625e-20)
(-1.87945 0.0660612 0)
(-1.90948 0.0648063 5.17363e-20)
(-1.93904 0.0635031 -2.55642e-20)
(-1.9681 0.0621518 0)
(-1.99664 0.0607524 -5.03475e-20)
(-2.02461 0.0593056 -2.50094e-20)
(-2.05199 0.057812 -2.47735e-20)
(-2.07876 0.0562728 0)
(-2.10487 0.0546891 -2.41689e-20)
(-2.13031 0.0530622 -2.4053e-20)
(-2.15503 0.0513937 0)
(-2.17902 0.0496852 2.35586e-20)
(-2.20223 0.0479385 -4.6502e-20)
(-2.22464 0.0461552 0)
(-2.24623 0.0443373 -2.27884e-20)
(-2.26695 0.0424866 0)
(-2.28679 0.0406048 6.66655e-20)
(-2.30572 0.0386937 0)
(-2.32369 0.0367549 -6.50026e-20)
(-2.3407 0.0347901 -2.1406e-20)
(-2.35671 0.0328005 2.10448e-20)
(-2.37168 0.0307873 4.15005e-20)
(-2.38561 0.0287514 -4.08981e-20)
(-2.39845 0.0266933 0)
(-2.41019 0.0246132 0)
(-2.42079 0.0225106 0)
(-2.43024 0.0203845 1.15142e-19)
(-2.4385 0.0182332 3.77075e-20)
(-2.44557 0.0160547 -3.69998e-20)
(-2.45143 0.0138465 0)
(-2.45608 0.0116047 -3.55396e-20)
(-2.45953 0.0093253 3.47743e-20)
(-2.46182 0.00701456 3.3998e-20)
(-2.46303 0.00471418 0)
(-2.46326 0.00249456 0)
(-2.46247 0.000354609 0)
(-2.46034 -0.00169111 3.06825e-20)
(-2.45684 -0.00370067 0)
(-2.45196 -0.0056882 -5.794e-20)
(-2.44565 -0.0076611 -8.4121e-20)
(-2.43789 -0.00962008 5.42761e-20)
(-2.42869 -0.011564 0)
(-2.41801 -0.0134907 2.53253e-20)
(-2.40586 -0.0153979 0)
(-2.39221 -0.0172832 4.65017e-20)
(-2.37707 -0.0191442 -2.23515e-20)
(-2.36043 -0.0209784 -2.13239e-20)
(-2.34229 -0.0227835 0)
(-2.32264 -0.0245574 -5.70776e-20)
(-2.30149 -0.0262978 3.5971e-20)
(-2.27884 -0.0280027 1.67232e-20)
(-2.25468 -0.0296699 0)
(-2.22904 -0.0312975 1.44511e-20)
(-2.20192 -0.0328836 4.0237e-20)
(-2.17333 -0.0344263 0)
(-2.14328 -0.0359238 2.22515e-20)
(-2.11179 -0.0373746 1.98638e-20)
(-2.07887 -0.038777 1.74505e-20)
(-2.04454 -0.0401297 0)
(-2.00883 -0.0414314 0)
(-1.97175 -0.0426808 0)
(-1.93333 -0.0438766 -4.01681e-21)
(-1.8936 -0.045018 -2.28853e-21)
(-1.85259 -0.0461038 0)
(-1.81031 -0.047133 3.43331e-23)
(-1.76681 -0.0481051 2.59724e-21)
(-1.72212 -0.0490193 0)
(-1.67628 -0.0498753 8.27478e-21)
(-1.62931 -0.0506727 2.06892e-20)
(-1.58126 -0.0514112 -1.34755e-20)
(-1.53216 -0.0520907 -1.49978e-20)
(-1.48206 -0.0527112 0)
(-1.431 -0.0532726 0)
(-1.37902 -0.0537754 0)
(-1.32615 -0.05422 -2.64926e-20)
(-1.27246 -0.054607 2.79532e-20)
(-1.21798 -0.054937 6.21932e-20)
(-1.16275 -0.0552107 -3.42348e-20)
(-1.10682 -0.0554291 3.56491e-20)
(-1.05025 -0.0555934 3.93354e-20)
(-0.993066 -0.0557047 0)
(-0.935323 -0.0557645 0)
(-0.877066 -0.055774 -4.57121e-20)
(-0.818341 -0.0557352 0)
(-0.759192 -0.0556496 0)
(-0.699663 -0.0555191 1.07229e-19)
(-0.639799 -0.0553457 0)
(-0.57964 -0.0551315 5.78088e-20)
(-0.519229 -0.0548787 -6.12648e-20)
(-0.458606 -0.0545893 0)
(-0.397808 -0.0542656 6.47306e-20)
(-0.336873 -0.0539097 0)
(-0.275838 -0.0535234 0)
(-0.214735 -0.0531083 -7.24242e-20)
(-0.153598 -0.0526644 1.48035e-19)
(-0.0924596 -0.0521908 -7.66327e-20)
(-0.0313516 -0.0516861 0)
(0.0296944 -0.0511463 0)
(0.090645 -0.0505717 8.041e-20)
(0.151482 -0.0499747 0)
(0.212178 -0.0493459 8.25882e-20)
(0.272733 -0.0486849 0)
(0.333157 -0.048026 0)
(0.393442 -0.0473891 0)
(0.45359 -0.0467734 8.73896e-20)
(0.513602 -0.0461723 0)
(0.573477 -0.0455774 -8.9006e-20)
(0.633204 -0.0449772 0)
(0.692751 -0.0443538 0)
(0.752061 -0.0436776 1.81362e-19)
(0.811019 -0.0428962 -1.82581e-19)
(0.86943 -0.0419059 0)
(0.926842 -0.0405067 0)
(0.9828 -0.0381695 0)
(1.03465 -0.033893 5.62127e-19)
(1.085 -0.0240819 0)
(1.11304 -0.000472415 -3.82329e-19)
(0.00318599 -0.0525788 -4.98112e-23)
(0.00348496 -0.0395079 1.27605e-19)
(-0.00152996 -0.0190416 0)
(-0.00883571 0.000664406 -1.06936e-19)
(-0.0182678 0.0192378 0)
(-0.0295328 0.0364607 0)
(-0.0424841 0.0520776 8.56256e-24)
(-0.057116 0.0658467 4.49078e-20)
(-0.0734933 0.077653 4.36975e-20)
(-0.0916801 0.0875614 4.26142e-20)
(-0.111695 0.0958026 0)
(-0.133499 0.102701 0)
(-0.157008 0.108593 -3.96834e-20)
(-0.182113 0.113767 -7.76183e-20)
(-0.208708 0.118442 7.59802e-20)
(-0.236695 0.122763 0)
(-0.265991 0.12682 7.30569e-20)
(-0.296525 0.130663 -3.59011e-20)
(-0.328233 0.134321 0)
(-0.361047 0.137804 6.95439e-20)
(-0.3949 0.141116 3.43054e-20)
(-0.429702 0.144271 -6.77111e-20)
(-0.465303 0.147287 -3.34725e-20)
(-0.501495 0.150093 0)
(-0.53815 0.152485 6.548e-20)
(-0.575259 0.154319 6.47708e-20)
(-0.61266 0.155797 0)
(-0.649851 0.157088 6.3327e-20)
(-0.686742 0.157696 0)
(-0.723443 0.157733 6.18819e-20)
(-0.759823 0.157797 3.05805e-20)
(-0.795489 0.157394 0)
(-0.830607 0.15631 0)
(-0.865226 0.15498 0)
(-0.898896 0.153671 0)
(-0.931636 0.151284 0)
(-0.964566 0.147863 0)
(-0.997966 0.144791 5.60375e-20)
(-1.03121 0.142522 -8.30333e-20)
(-1.06391 0.140564 0)
(-1.0962 0.138768 0)
(-1.12818 0.137064 0)
(-1.15991 0.135422 8.30934e-23)
(-1.19145 0.133827 5.22312e-20)
(-1.22282 0.132273 1.0322e-19)
(-1.25405 0.130755 -1.02097e-19)
(-1.28516 0.129267 -5.04552e-20)
(-1.31615 0.127802 5.00167e-20)
(-1.34702 0.126352 -9.67502e-23)
(-1.37778 0.124909 4.88933e-20)
(-1.40841 0.123464 0)
(-1.43891 0.12201 4.791e-20)
(-1.46927 0.120537 -1.02032e-22)
(-1.49947 0.119038 0)
(-1.52952 0.117505 0)
(-1.55938 0.115933 -4.60516e-20)
(-1.58905 0.114314 0)
(-1.61849 0.112644 0)
(-1.6477 0.110918 4.46252e-20)
(-1.67666 0.109132 8.85965e-20)
(-1.70533 0.107283 -4.39743e-20)
(-1.7337 0.105368 0)
(-1.76174 0.103386 4.31279e-20)
(-1.78942 0.101336 0)
(-1.81672 0.099215 4.2091e-20)
(-1.84362 0.0970243 4.18707e-20)
(-1.87007 0.0947638 -8.27133e-20)
(-1.89607 0.092434 -4.08456e-20)
(-1.92157 0.0900357 0)
(-1.94655 0.0875704 8.02049e-20)
(-1.97097 0.0850396 0)
(-1.99482 0.0824451 1.17855e-19)
(-2.01805 0.0797891 7.76586e-20)
(-2.04065 0.0770739 7.67961e-20)
(-2.06257 0.074302 -7.59248e-20)
(-2.08379 0.0714758 1.12639e-19)
(-2.10428 0.0685982 0)
(-2.12402 0.0656718 0)
(-2.14296 0.0626994 -7.23313e-20)
(-2.16109 0.0596838 -1.0716e-19)
(-2.17837 0.0566276 0)
(-2.19478 0.0535335 3.47981e-20)
(-2.21029 0.0504041 0)
(-2.22486 0.0472415 -1.01322e-19)
(-2.23848 0.0440482 -7.65606e-23)
(-2.25112 0.040826 6.73176e-23)
(-2.26276 0.0375768 6.44169e-20)
(-2.27336 0.0343024 0)
(-2.28291 0.0310044 -6.22456e-20)
(-2.29138 0.0276847 -2.79839e-23)
(-2.29876 0.0243456 0)
(-2.30503 0.0209904 0)
(-2.31018 0.0176244 0)
(-2.31421 0.0142556 5.6405e-20)
(-2.3171 0.0108951 0)
(-2.31886 0.00755753 0)
(-2.31945 0.00426236 0)
(-2.31888 0.00103053 0)
(-2.31708 -0.00216793 0)
(-2.31396 -0.00536629 4.85406e-20)
(-2.3095 -0.00855495 0)
(-2.30368 -0.0117295 4.5586e-20)
(-2.29648 -0.0148862 4.41112e-20)
(-2.28788 -0.0180213 -4.26101e-20)
(-2.27787 -0.0211309 0)
(-2.26643 -0.0242108 -3.95296e-20)
(-2.25356 -0.027257 0)
(-2.23923 -0.0302654 -3.63464e-20)
(-2.22346 -0.033232 3.47171e-20)
(-2.20622 -0.0361531 9.95984e-20)
(-2.18753 -0.0390248 0)
(-2.16737 -0.0418437 8.95081e-20)
(-2.14575 -0.0446061 2.84381e-20)
(-2.12266 -0.0473088 0)
(-2.09813 -0.0499485 4.94167e-20)
(-2.07214 -0.052522 4.58629e-20)
(-2.04471 -0.0550263 -6.31217e-20)
(-2.01585 -0.0574585 0)
(-1.98558 -0.0598157 -1.71826e-20)
(-1.95389 -0.0620955 -1.53221e-20)
(-1.92082 -0.0642953 -4.09825e-20)
(-1.88638 -0.0664131 0)
(-1.85059 -0.0684466 0)
(-1.81347 -0.0703941 0)
(-1.77505 -0.0722538 -6.52225e-21)
(-1.73535 -0.0740241 0)
(-1.69439 -0.0757033 0)
(-1.65221 -0.0772902 -2.62594e-23)
(-1.60883 -0.0787837 -1.98444e-21)
(-1.5643 -0.0801829 0)
(-1.51863 -0.0814873 0)
(-1.47188 -0.0826964 -1.57602e-20)
(-1.42407 -0.08381 0)
(-1.37523 -0.0848281 2.36287e-20)
(-1.32542 -0.0857505 2.67215e-20)
(-1.27467 -0.0865776 0)
(-1.22303 -0.0873101 0)
(-1.17052 -0.0879489 -3.84282e-20)
(-1.1172 -0.0884951 -8.60406e-22)
(-1.06312 -0.0889499 -8.64476e-22)
(-1.0083 -0.0893144 0)
(-0.952807 -0.0895905 -1.08495e-19)
(-0.896675 -0.0897802 0)
(-0.83995 -0.0898855 0)
(-0.782678 -0.0899089 0)
(-0.724902 -0.0898526 6.96569e-20)
(-0.666668 -0.0897196 0)
(-0.608019 -0.0895127 -1.52138e-19)
(-0.548998 -0.0892352 -8.05161e-20)
(-0.489646 -0.0888901 0)
(-0.430006 -0.088481 -8.75456e-20)
(-0.370117 -0.0880115 0)
(-0.310018 -0.0874851 0)
(-0.249747 -0.0869054 -2.91531e-19)
(-0.189338 -0.0862758 2.00399e-19)
(-0.128827 -0.0855993 0)
(-0.0682464 -0.0848786 2.13287e-19)
(-0.00762699 -0.0841162 -1.10428e-19)
(0.0530008 -0.0833134 0)
(0.113609 -0.0824699 0)
(0.174172 -0.0815865 0)
(0.234666 -0.0806653 -3.55626e-19)
(0.29508 -0.0797186 0)
(0.355416 -0.078761 -1.22787e-19)
(0.415687 -0.0778039 0)
(0.47588 -0.0768577 0)
(0.53598 -0.0759319 0)
(0.595977 -0.0750264 0)
(0.655866 -0.074135 0)
(0.715638 -0.0732468 0)
(0.775279 -0.072345 -2.66897e-19)
(0.834756 -0.0714018 0)
(0.894012 -0.0703706 -1.36677e-19)
(0.952936 -0.0691697 4.12473e-19)
(1.01135 -0.0676461 0)
(1.06888 -0.0655078 0)
(1.12519 -0.0621082 -2.81526e-19)
(1.17851 -0.0562084 -2.85019e-19)
(1.23157 -0.0446094 2.87101e-19)
(1.27231 -0.0204986 2.92102e-19)
(-0.00200449 -0.0501964 -2.05304e-19)
(-0.0088006 -0.0258759 -1.8567e-19)
(-0.0188971 -0.000498585 -1.09719e-19)
(-0.0303919 0.0227313 -4.98164e-20)
(-0.0433003 0.0442698 0)
(-0.0574126 0.0642217 8.81158e-20)
(-0.0726881 0.0825191 -4.22926e-20)
(-0.0891887 0.0990477 0)
(-0.107017 0.113741 -3.97892e-20)
(-0.126274 0.126633 0)
(-0.147032 0.137868 7.57572e-20)
(-0.169315 0.14767 0)
(-0.193099 0.156297 3.62287e-20)
(-0.218321 0.16399 7.09378e-20)
(-0.244891 0.170952 -6.95023e-20)
(-0.272707 0.177331 0)
(-0.30166 0.183225 -6.68854e-20)
(-0.331634 0.188686 0)
(-0.362509 0.193736 0)
(-0.394156 0.198367 -6.35574e-20)
(-0.426436 0.202555 0)
(-0.459195 0.206268 -8.40464e-24)
(-0.492261 0.209466 0)
(-0.525446 0.212079 0)
(-0.558604 0.214002 1.29211e-23)
(-0.591647 0.215183 -5.82589e-20)
(-0.624489 0.215698 -5.74489e-20)
(-0.657002 0.215656 -5.6616e-20)
(-0.689095 0.215004 0)
(-0.720768 0.21381 -1.10062e-19)
(-0.752 0.212258 0)
(-0.782759 0.210338 -5.34814e-20)
(-0.813093 0.208054 0)
(-0.843028 0.205536 0)
(-0.872558 0.202906 5.126e-20)
(-0.901777 0.19992 0)
(-0.930919 0.196599 -4.98624e-20)
(-0.960102 0.193353 -9.15006e-24)
(-0.989229 0.19039 9.70955e-20)
(-1.01821 0.18766 -9.58247e-20)
(-1.04706 0.185117 0)
(-1.07576 0.182722 0)
(-1.10435 0.180444 -4.61219e-20)
(-1.13285 0.178262 0)
(-1.16125 0.176156 -4.51048e-20)
(-1.18958 0.174111 4.4589e-20)
(-1.21784 0.172113 4.40869e-20)
(-1.24604 0.170147 0)
(-1.27416 0.168201 -4.31205e-20)
(-1.30222 0.166262 -4.26542e-20)
(-1.33019 0.164317 8.43026e-20)
(-1.35808 0.162356 -4.17513e-20)
(-1.38587 0.160367 -4.13132e-20)
(-1.41354 0.15834 0)
(-1.4411 0.156265 0)
(-1.46851 0.154135 4.0044e-20)
(-1.49576 0.151941 0)