# Selection :     patch(inlet)
# Faces  :        1
# Area   :        1.0000000000e-01
# Time            	areaAverage(p)
1                 	1.0000019260e+05
