/*--------------------------------*- C++ -*----------------------------------*\
  =========                 |
  \\      /  F ield         | OpenFOAM: The Open Source CFD Toolbox
   \\    /   O peration     | Website:  https://openfoam.org
    \\  /    A nd           | Version:  12
     \\/     M anipulation  |
\*---------------------------------------------------------------------------*/
FoamFile
{
    format      ascii;
    class       volScalarField;
    location    "13.68";
    object      p;
}
// * * * * * * * * * * * * * * * * * * * * * * * * * * * * * * * * * * * * * //

dimensions      [1 -1 -2 0 0 0 0];

internalField   nonuniform List<scalar> 
3829
(
-610.652
-610.653
-610.656
-610.659
-610.664
-610.671
-610.679
-610.689
-610.7
-610.713
-610.728
-610.745
-610.764
-610.785
-610.808
-610.833
-610.861
-610.892
-610.925
-610.961
-610.999
-611.04
-611.085
-611.132
-611.183
-611.236
-611.293
-611.353
-611.416
-611.482
-611.551
-611.623
-611.699
-611.777
-611.857
-611.94
-612.025
-612.113
-612.202
-612.293
-612.385
-612.479
-612.573
-612.668
-612.762
-612.857
-612.951
-613.044
-613.135
-613.225
-613.313
-613.398
-613.48
-613.558
-613.633
-613.703
-613.769
-613.83
-613.886
-613.936
-613.981
-614.02
-614.054
-614.081
-614.102
-614.117
-614.125
-614.128
-614.126
-614.118
-614.106
-614.089
-614.068
-614.045
-614.019
-613.991
-613.962
-613.933
-613.905
-613.878
-613.854
-613.833
-613.816
-613.803
-613.796
-613.794
-613.799
-613.812
-613.831
-613.858
-613.891
-613.931
-613.976
-614.027
-614.083
-614.142
-614.203
-614.265
-614.326
-614.386
-614.442
-614.493
-614.538
-614.575
-614.602
-614.62
-614.627
-614.622
-614.606
-614.578
-614.54
-614.493
-614.439
-614.379
-614.315
-614.249
-614.185
-614.124
-614.07
-614.024
-613.989
-613.966
-613.956
-613.963
-613.985
-614.02
-614.069
-614.127
-614.194
-614.267
-614.341
-614.412
-614.477
-614.534
-614.577
-614.606
-614.618
-614.611
-614.587
-614.548
-614.495
-614.432
-614.364
-614.294
-614.228
-614.171
-614.126
-614.096
-614.085
-614.092
-614.117
-614.158
-614.209
-614.267
-614.326
-614.38
-614.424
-614.454
-614.466
-614.46
-614.436
-614.397
-614.348
-614.294
-614.241
-614.197
-614.167
-614.154
-614.161
-614.188
-614.232
-614.288
-614.351
-614.411
-614.463
-614.5
-614.52
-614.52
-614.502
-614.47
-614.43
-614.382
-614.342
-614.31
-614.289
-614.28
-614.281
-614.291
-614.303
-614.315
-614.324
-614.328
-614.328
-614.323
-614.316
-614.309
-614.303
-614.299
-614.297
-614.296
-1768.9
-1768.91
-1768.91
-1768.91
-1768.92
-1768.92
-1768.93
-1768.94
-1768.95
-1768.96
-1768.97
-1768.99
-1769
-1769.02
-1769.04
-1769.07
-1769.09
-1769.12
-1769.16
-1769.19
-1769.23
-1769.27
-1769.32
-1769.37
-1769.42
-1769.48
-1769.54
-1769.6
-1769.67
-1769.74
-1769.82
-1769.9
-1769.98
-1770.06
-1770.15
-1770.25
-1770.34
-1770.44
-1770.54
-1770.64
-1770.75
-1770.85
-1770.96
-1771.06
-1771.17
-1771.27
-1771.38
-1771.48
-1771.58
-1771.68
-1771.78
-1771.87
-1771.96
-1772.05
-1772.13
-1772.2
-1772.27
-1772.34
-1772.39
-1772.45
-1772.49
-1772.53
-1772.56
-1772.58
-1772.6
-1772.61
-1772.61
-1772.6
-1772.59
-1772.57
-1772.55
-1772.52
-1772.49
-1772.45
-1772.41
-1772.37
-1772.33
-1772.29
-1772.25
-1772.21
-1772.18
-1772.15
-1772.12
-1772.1
-1772.09
-1772.09
-1772.09
-1772.1
-1772.12
-1772.15
-1772.19
-1772.24
-1772.3
-1772.36
-1772.42
-1772.49
-1772.57
-1772.64
-1772.72
-1772.79
-1772.86
-1772.92
-1772.98
-1773.02
-1773.05
-1773.08
-1773.09
-1773.08
-1773.05
-1773.02
-1772.97
-1772.91
-1772.84
-1772.77
-1772.69
-1772.61
-1772.53
-1772.46
-1772.39
-1772.33
-1772.29
-1772.26
-1772.25
-1772.26
-1772.29
-1772.33
-1772.39
-1772.46
-1772.54
-1772.63
-1772.72
-1772.81
-1772.89
-1772.96
-1773.01
-1773.04
-1773.05
-1773.04
-1773.01
-1772.96
-1772.9
-1772.82
-1772.74
-1772.65
-1772.57
-1772.5
-1772.45
-1772.41
-1772.4
-1772.41
-1772.45
-1772.5
-1772.56
-1772.63
-1772.71
-1772.77
-1772.83
-1772.86
-1772.88
-1772.87
-1772.84
-1772.79
-1772.73
-1772.66
-1772.59
-1772.54
-1772.5
-1772.49
-1772.5
-1772.53
-1772.58
-1772.65
-1772.72
-1772.79
-1772.85
-1772.9
-1772.92
-1772.92
-1772.89
-1772.85
-1772.8
-1772.75
-1772.7
-1772.67
-1772.64
-1772.64
-1772.64
-1772.66
-1772.67
-1772.69
-1772.7
-1772.7
-1772.7
-1772.7
-1772.69
-1772.68
-1772.67
-1772.67
-1772.66
-1772.66
-2794.9
-2794.9
-2794.9
-2794.9
-2794.9
-2794.9
-2794.9
-2794.91
-2794.91
-2794.92
-2794.93
-2794.94
-2794.95
-2794.96
-2794.98
-2795
-2795.02
-2795.05
-2795.08
-2795.12
-2795.16
-2795.2
-2795.25
-2795.3
-2795.36
-2795.42
-2795.49
-2795.56
-2795.64
-2795.73
-2795.82
-2795.91
-2796.01
-2796.11
-2796.22
-2796.33
-2796.44
-2796.55
-2796.67
-2796.79
-2796.91
-2797.04
-2797.16
-2797.29
-2797.41
-2797.53
-2797.66
-2797.78
-2797.9
-2798.01
-2798.12
-2798.23
-2798.33
-2798.43
-2798.52
-2798.6
-2798.68
-2798.75
-2798.81
-2798.86
-2798.91
-2798.94
-2798.97
-2798.98
-2798.99
-2798.99
-2798.97
-2798.95
-2798.92
-2798.89
-2798.84
-2798.79
-2798.74
-2798.68
-2798.62
-2798.55
-2798.49
-2798.42
-2798.36
-2798.3
-2798.25
-2798.2
-2798.16
-2798.13
-2798.11
-2798.1
-2798.1
-2798.11
-2798.14
-2798.18
-2798.23
-2798.29
-2798.36
-2798.44
-2798.53
-2798.62
-2798.72
-2798.82
-2798.92
-2799.02
-2799.11
-2799.19
-2799.26
-2799.32
-2799.36
-2799.39
-2799.4
-2799.39
-2799.36
-2799.31
-2799.24
-2799.16
-2799.07
-2798.97
-2798.86
-2798.75
-2798.64
-2798.54
-2798.45
-2798.38
-2798.32
-2798.28
-2798.27
-2798.28
-2798.32
-2798.38
-2798.46
-2798.55
-2798.67
-2798.78
-2798.9
-2799.02
-2799.13
-2799.21
-2799.28
-2799.32
-2799.34
-2799.32
-2799.28
-2799.21
-2799.12
-2799.01
-2798.9
-2798.79
-2798.68
-2798.59
-2798.52
-2798.48
-2798.46
-2798.48
-2798.53
-2798.6
-2798.69
-2798.79
-2798.89
-2798.98
-2799.05
-2799.1
-2799.12
-2799.1
-2799.06
-2798.99
-2798.9
-2798.81
-2798.72
-2798.65
-2798.6
-2798.58
-2798.59
-2798.63
-2798.7
-2798.79
-2798.89
-2798.98
-2799.06
-2799.11
-2799.13
-2799.12
-2799.09
-2799.03
-2798.97
-2798.9
-2798.84
-2798.8
-2798.78
-2798.77
-2798.78
-2798.81
-2798.83
-2798.85
-2798.87
-2798.87
-2798.87
-2798.86
-2798.85
-2798.84
-2798.83
-2798.82
-2798.82
-2798.82
-3703.75
-3703.75
-3703.74
-3703.74
-3703.74
-3703.73
-3703.73
-3703.72
-3703.71
-3703.71
-3703.7
-3703.7
-3703.7
-3703.7
-3703.71
-3703.72
-3703.73
-3703.75
-3703.77
-3703.8
-3703.83
-3703.88
-3703.93
-3703.98
-3704.04
-3704.12
-3704.19
-3704.28
-3704.37
-3704.47
-3704.58
-3704.69
-3704.81
-3704.94
-3705.07
-3705.2
-3705.35
-3705.49
-3705.64
-3705.79
-3705.94
-3706.09
-3706.25
-3706.4
-3706.55
-3706.7
-3706.85
-3707
-3707.14
-3707.28
-3707.42
-3707.55
-3707.67
-3707.78
-3707.89
-3707.98
-3708.07
-3708.14
-3708.21
-3708.26
-3708.31
-3708.34
-3708.35
-3708.36
-3708.35
-3708.33
-3708.3
-3708.26
-3708.2
-3708.14
-3708.06
-3707.98
-3707.89
-3707.8
-3707.7
-3707.61
-3707.51
-3707.41
-3707.32
-3707.23
-3707.15
-3707.08
-3707.02
-3706.97
-3706.93
-3706.92
-3706.91
-3706.93
-3706.96
-3707.01
-3707.08
-3707.16
-3707.26
-3707.37
-3707.49
-3707.62
-3707.75
-3707.89
-3708.02
-3708.16
-3708.28
-3708.39
-3708.49
-3708.56
-3708.62
-3708.65
-3708.66
-3708.64
-3708.6
-3708.53
-3708.44
-3708.33
-3708.2
-3708.06
-3707.91
-3707.76
-3707.61
-3707.47
-3707.35
-3707.24
-3707.17
-3707.12
-3707.1
-3707.12
-3707.17
-3707.25
-3707.36
-3707.5
-3707.65
-3707.81
-3707.98
-3708.14
-3708.28
-3708.4
-3708.49
-3708.54
-3708.56
-3708.53
-3708.47
-3708.37
-3708.24
-3708.1
-3707.94
-3707.78
-3707.64
-3707.52
-3707.43
-3707.37
-3707.37
-3707.39
-3707.46
-3707.57
-3707.69
-3707.83
-3707.97
-3708.09
-3708.19
-3708.25
-3708.27
-3708.25
-3708.18
-3708.09
-3707.97
-3707.84
-3707.72
-3707.62
-3707.55
-3707.52
-3707.54
-3707.6
-3707.69
-3707.81
-3707.94
-3708.06
-3708.16
-3708.22
-3708.25
-3708.23
-3708.18
-3708.1
-3708.01
-3707.92
-3707.85
-3707.8
-3707.78
-3707.78
-3707.8
-3707.84
-3707.87
-3707.9
-3707.92
-3707.93
-3707.92
-3707.9
-3707.89
-3707.87
-3707.86
-3707.86
-3707.86
-3707.86
-4508.9
-4508.89
-4508.88
-4508.87
-4508.86
-4508.84
-4508.81
-4508.79
-4508.76
-4508.73
-4508.7
-4508.67
-4508.65
-4508.62
-4508.61
-4508.59
-4508.59
-4508.59
-4508.6
-4508.62
-4508.64
-4508.68
-4508.73
-4508.8
-4508.87
-4508.95
-4509.05
-4509.16
-4509.27
-4509.4
-4509.54
-4509.68
-4509.84
-4509.99
-4510.16
-4510.33
-4510.5
-4510.68
-4510.86
-4511.05
-4511.23
-4511.42
-4511.61
-4511.8
-4511.99
-4512.18
-4512.36
-4512.54
-4512.71
-4512.88
-4513.04
-4513.19
-4513.34
-4513.47
-4513.59
-4513.7
-4513.8
-4513.89
-4513.96
-4514.01
-4514.05
-4514.08
-4514.09
-4514.08
-4514.05
-4514
-4513.95
-4513.87
-4513.79
-4513.69
-4513.57
-4513.45
-4513.32
-4513.19
-4513.04
-4512.9
-4512.76
-4512.62
-4512.48
-4512.36
-4512.24
-4512.14
-4512.05
-4511.98
-4511.93
-4511.91
-4511.9
-4511.92
-4511.96
-4512.03
-4512.12
-4512.23
-4512.36
-4512.51
-4512.67
-4512.84
-4513.03
-4513.21
-4513.4
-4513.57
-4513.74
-4513.89
-4514.02
-4514.12
-4514.19
-4514.24
-4514.24
-4514.22
-4514.16
-4514.07
-4513.94
-4513.79
-4513.61
-4513.42
-4513.21
-4513.01
-4512.8
-4512.61
-4512.45
-4512.31
-4512.2
-4512.14
-4512.12
-4512.15
-4512.22
-4512.33
-4512.48
-4512.67
-4512.87
-4513.09
-4513.32
-4513.53
-4513.72
-4513.88
-4513.99
-4514.06
-4514.08
-4514.04
-4513.95
-4513.81
-4513.64
-4513.44
-4513.23
-4513.02
-4512.82
-4512.66
-4512.54
-4512.48
-4512.47
-4512.51
-4512.61
-4512.76
-4512.93
-4513.12
-4513.31
-4513.47
-4513.6
-4513.68
-4513.71
-4513.67
-4513.58
-4513.45
-4513.28
-4513.11
-4512.94
-4512.81
-4512.71
-4512.68
-4512.7
-4512.79
-4512.91
-4513.07
-4513.24
-4513.4
-4513.53
-4513.61
-4513.63
-4513.61
-4513.53
-4513.43
-4513.3
-4513.19
-4513.1
-4513.03
-4513.01
-4513.02
-4513.06
-4513.12
-4513.17
-4513.21
-4513.23
-4513.23
-4513.22
-4513.2
-4513.18
-4513.16
-4513.14
-4513.14
-4513.14
-4513.14
-5222.3
-5222.29
-5222.27
-5222.24
-5222.2
-5222.15
-5222.09
-5222.03
-5221.96
-5221.88
-5221.81
-5221.73
-5221.66
-5221.59
-5221.53
-5221.48
-5221.44
-5221.41
-5221.39
-5221.39
-5221.41
-5221.44
-5221.49
-5221.56
-5221.64
-5221.75
-5221.86
-5222
-5222.15
-5222.31
-5222.48
-5222.67
-5222.86
-5223.06
-5223.27
-5223.48
-5223.7
-5223.93
-5224.16
-5224.39
-5224.62
-5224.85
-5225.08
-5225.31
-5225.54
-5225.77
-5225.99
-5226.21
-5226.42
-5226.62
-5226.82
-5227
-5227.17
-5227.33
-5227.47
-5227.6
-5227.71
-5227.81
-5227.88
-5227.94
-5227.97
-5227.98
-5227.97
-5227.95
-5227.9
-5227.84
-5227.75
-5227.64
-5227.51
-5227.37
-5227.21
-5227.04
-5226.86
-5226.67
-5226.47
-5226.27
-5226.08
-5225.89
-5225.7
-5225.53
-5225.37
-5225.23
-5225.11
-5225.02
-5224.95
-5224.91
-5224.9
-5224.93
-5224.98
-5225.07
-5225.18
-5225.33
-5225.5
-5225.7
-5225.92
-5226.15
-5226.39
-5226.64
-5226.88
-5227.11
-5227.33
-5227.53
-5227.7
-5227.83
-5227.93
-5227.98
-5227.99
-5227.96
-5227.87
-5227.75
-5227.58
-5227.37
-5227.14
-5226.88
-5226.6
-5226.33
-5226.06
-5225.81
-5225.59
-5225.41
-5225.27
-5225.19
-5225.17
-5225.2
-5225.3
-5225.45
-5225.66
-5225.9
-5226.17
-5226.47
-5226.76
-5227.04
-5227.29
-5227.49
-5227.64
-5227.73
-5227.74
-5227.69
-5227.56
-5227.38
-5227.15
-5226.88
-5226.6
-5226.32
-5226.07
-5225.86
-5225.71
-5225.62
-5225.62
-5225.68
-5225.82
-5226.02
-5226.25
-5226.5
-5226.75
-5226.97
-5227.14
-5227.24
-5227.27
-5227.22
-5227.1
-5226.92
-5226.7
-5226.46
-5226.24
-5226.06
-5225.94
-5225.9
-5225.94
-5226.05
-5226.22
-5226.42
-5226.64
-5226.84
-5227
-5227.1
-5227.13
-5227.09
-5226.99
-5226.85
-5226.68
-5226.54
-5226.42
-5226.35
-5226.33
-5226.35
-5226.41
-5226.49
-5226.56
-5226.61
-5226.63
-5226.64
-5226.62
-5226.58
-5226.55
-5226.53
-5226.51
-5226.51
-5226.52
-5226.52
-5854.5
-5854.48
-5854.44
-5854.38
-5854.3
-5854.2
-5854.09
-5853.96
-5853.81
-5853.66
-5853.5
-5853.34
-5853.18
-5853.03
-5852.9
-5852.78
-5852.68
-5852.61
-5852.56
-5852.53
-5852.53
-5852.56
-5852.61
-5852.7
-5852.81
-5852.95
-5853.11
-5853.29
-5853.5
-5853.72
-5853.95
-5854.19
-5854.44
-5854.7
-5854.96
-5855.23
-5855.5
-5855.78
-5856.05
-5856.33
-5856.61
-5856.89
-5857.17
-5857.45
-5857.72
-5857.99
-5858.26
-5858.52
-5858.77
-5859.01
-5859.24
-5859.46
-5859.66
-5859.84
-5860.01
-5860.16
-5860.29
-5860.39
-5860.47
-5860.53
-5860.56
-5860.56
-5860.54
-5860.49
-5860.42
-5860.32
-5860.19
-5860.04
-5859.87
-5859.67
-5859.46
-5859.23
-5858.98
-5858.73
-5858.47
-5858.21
-5857.95
-5857.7
-5857.46
-5857.23
-5857.03
-5856.84
-5856.69
-5856.57
-5856.48
-5856.43
-5856.41
-5856.44
-5856.51
-5856.63
-5856.78
-5856.97
-5857.19
-5857.44
-5857.72
-5858.02
-5858.33
-5858.65
-5858.96
-5859.27
-5859.55
-5859.8
-5860.02
-5860.19
-5860.31
-5860.38
-5860.39
-5860.34
-5860.23
-5860.06
-5859.84
-5859.57
-5859.27
-5858.93
-5858.58
-5858.22
-5857.88
-5857.56
-5857.27
-5857.04
-5856.86
-5856.76
-5856.74
-5856.79
-5856.91
-5857.11
-5857.38
-5857.69
-5858.05
-5858.42
-5858.8
-5859.15
-5859.47
-5859.73
-5859.92
-5860.03
-5860.04
-5859.96
-5859.8
-5859.56
-5859.25
-5858.91
-5858.54
-5858.19
-5857.87
-5857.6
-5857.41
-5857.31
-5857.31
-5857.4
-5857.59
-5857.84
-5858.15
-5858.48
-5858.8
-5859.07
-5859.29
-5859.42
-5859.45
-5859.38
-5859.22
-5858.98
-5858.69
-5858.39
-5858.11
-5857.88
-5857.73
-5857.68
-5857.73
-5857.87
-5858.09
-5858.35
-5858.63
-5858.88
-5859.08
-5859.2
-5859.22
-5859.16
-5859.03
-5858.85
-5858.64
-5858.46
-5858.32
-5858.24
-5858.22
-5858.26
-5858.34
-5858.44
-5858.53
-5858.6
-5858.63
-5858.62
-5858.59
-5858.55
-5858.51
-5858.48
-5858.46
-5858.47
-5858.47
-5858.48
-6414.97
-6414.93
-6414.85
-6414.73
-6414.56
-6414.35
-6414.11
-6413.83
-6413.52
-6413.21
-6412.9
-6412.62
-6412.35
-6412.11
-6411.89
-6411.7
-6411.54
-6411.42
-6411.33
-6411.28
-6411.27
-6411.3
-6411.37
-6411.49
-6411.64
-6411.84
-6412.08
-6412.35
-6412.65
-6412.95
-6413.26
-6413.57
-6413.89
-6414.2
-6414.52
-6414.85
-6415.17
-6415.5
-6415.83
-6416.16
-6416.49
-6416.82
-6417.15
-6417.48
-6417.8
-6418.12
-6418.43
-6418.74
-6419.03
-6419.32
-6419.59
-6419.84
-6420.08
-6420.29
-6420.49
-6420.66
-6420.8
-6420.92
-6421.01
-6421.06
-6421.09
-6421.08
-6421.04
-6420.97
-6420.86
-6420.73
-6420.56
-6420.36
-6420.13
-6419.88
-6419.6
-6419.3
-6418.99
-6418.67
-6418.34
-6418.01
-6417.68
-6417.36
-6417.05
-6416.76
-6416.5
-6416.27
-6416.07
-6415.92
-6415.81
-6415.74
-6415.73
-6415.77
-6415.86
-6416
-6416.19
-6416.43
-6416.71
-6417.03
-6417.38
-6417.76
-6418.15
-6418.55
-6418.94
-6419.32
-6419.67
-6419.99
-6420.26
-6420.47
-6420.62
-6420.71
-6420.72
-6420.65
-6420.51
-6420.3
-6420.01
-6419.67
-6419.29
-6418.86
-6418.42
-6417.97
-6417.54
-6417.14
-6416.78
-6416.49
-6416.28
-6416.15
-6416.12
-6416.19
-6416.35
-6416.61
-6416.94
-6417.34
-6417.79
-6418.26
-6418.73
-6419.17
-6419.56
-6419.89
-6420.12
-6420.24
-6420.25
-6420.15
-6419.94
-6419.63
-6419.25
-6418.81
-6418.36
-6417.91
-6417.51
-6417.18
-6416.95
-6416.83
-6416.84
-6416.96
-6417.2
-6417.53
-6417.91
-6418.33
-6418.72
-6419.07
-6419.34
-6419.5
-6419.53
-6419.43
-6419.23
-6418.93
-6418.57
-6418.18
-6417.83
-6417.55
-6417.37
-6417.31
-6417.37
-6417.55
-6417.83
-6418.15
-6418.5
-6418.81
-6419.05
-6419.18
-6419.21
-6419.12
-6418.95
-6418.72
-6418.46
-6418.24
-6418.07
-6417.98
-6417.97
-6418.03
-6418.13
-6418.27
-6418.38
-6418.46
-6418.5
-6418.49
-6418.45
-6418.39
-6418.34
-6418.3
-6418.28
-6418.29
-6418.3
-6418.31
-6912.11
-6912.05
-6911.92
-6911.73
-6911.48
-6911.17
-6910.83
-6910.45
-6910
-6909.48
-6908.96
-6908.46
-6907.99
-6907.56
-6907.18
-6906.85
-6906.56
-6906.34
-6906.17
-6906.07
-6906.03
-6906.05
-6906.14
-6906.29
-6906.51
-6906.78
-6907.11
-6907.49
-6907.88
-6908.28
-6908.68
-6909.08
-6909.47
-6909.85
-6910.24
-6910.61
-6910.99
-6911.37
-6911.75
-6912.13
-6912.5
-6912.88
-6913.26
-6913.64
-6914.01
-6914.38
-6914.74
-6915.09
-6915.44
-6915.76
-6916.08
-6916.37
-6916.64
-6916.89
-6917.12
-6917.31
-6917.47
-6917.6
-6917.7
-6917.76
-6917.78
-6917.76
-6917.7
-6917.6
-6917.46
-6917.28
-6917.07
-6916.81
-6916.53
-6916.21
-6915.86
-6915.49
-6915.11
-6914.71
-6914.3
-6913.89
-6913.48
-6913.09
-6912.71
-6912.36
-6912.03
-6911.75
-6911.51
-6911.32
-6911.18
-6911.11
-6911.09
-6911.14
-6911.25
-6911.42
-6911.66
-6911.95
-6912.3
-6912.69
-6913.13
-6913.59
-6914.07
-6914.56
-6915.04
-6915.5
-6915.93
-6916.32
-6916.65
-6916.91
-6917.09
-6917.19
-6917.2
-6917.11
-6916.94
-6916.67
-6916.32
-6915.91
-6915.43
-6914.91
-6914.36
-6913.82
-6913.28
-6912.79
-6912.36
-6912.01
-6911.75
-6911.6
-6911.56
-6911.65
-6911.86
-6912.17
-6912.58
-6913.08
-6913.62
-6914.2
-6914.77
-6915.31
-6915.79
-6916.18
-6916.45
-6916.6
-6916.61
-6916.48
-6916.21
-6915.83
-6915.36
-6914.82
-6914.26
-6913.72
-6913.23
-6912.83
-6912.56
-6912.42
-6912.43
-6912.6
-6912.89
-6913.3
-6913.78
-6914.28
-6914.77
-6915.2
-6915.52
-6915.7
-6915.73
-6915.61
-6915.36
-6914.99
-6914.54
-6914.07
-6913.64
-6913.3
-6913.09
-6913.02
-6913.1
-6913.33
-6913.66
-6914.06
-6914.48
-6914.85
-6915.13
-6915.29
-6915.31
-6915.2
-6914.98
-6914.69
-6914.38
-6914.12
-6913.92
-6913.82
-6913.81
-6913.9
-6914.04
-6914.2
-6914.34
-6914.43
-6914.47
-6914.46
-6914.4
-6914.33
-6914.26
-6914.22
-6914.21
-6914.21
-6914.23
-6914.25
-7353.46
-7353.37
-7353.17
-7352.86
-7352.42
-7351.82
-7351.04
-7350.01
-7348.64
-7347.66
-7346.79
-7346.03
-7345.37
-7344.82
-7344.36
-7343.97
-7343.67
-7343.44
-7343.28
-7343.19
-7343.17
-7343.23
-7343.37
-7343.6
-7343.95
-7344.41
-7344.98
-7345.98
-7346.65
-7347.21
-7347.71
-7348.17
-7348.59
-7349.01
-7349.42
-7349.84
-7350.25
-7350.67
-7351.09
-7351.51
-7351.93
-7352.36
-7352.79
-7353.21
-7353.64
-7354.05
-7354.47
-7354.87
-7355.26
-7355.64
-7356
-7356.33
-7356.64
-7356.93
-7357.18
-7357.4
-7357.59
-7357.73
-7357.83
-7357.89
-7357.91
-7357.88
-7357.8
-7357.67
-7357.49
-7357.27
-7357.01
-7356.7
-7356.35
-7355.96
-7355.54
-7355.09
-7354.63
-7354.14
-7353.65
-7353.15
-7352.67
-7352.19
-7351.74
-7351.31
-7350.93
-7350.59
-7350.3
-7350.07
-7349.91
-7349.82
-7349.8
-7349.86
-7350
-7350.21
-7350.49
-7350.85
-7351.26
-7351.74
-7352.26
-7352.81
-7353.39
-7353.97
-7354.55
-7355.1
-7355.62
-7356.08
-7356.47
-7356.78
-7357
-7357.12
-7357.12
-7357.02
-7356.8
-7356.48
-7356.06
-7355.56
-7354.98
-7354.36
-7353.7
-7353.05
-7352.41
-7351.82
-7351.31
-7350.89
-7350.58
-7350.41
-7350.37
-7350.48
-7350.73
-7351.11
-7351.61
-7352.2
-7352.86
-7353.54
-7354.23
-7354.87
-7355.44
-7355.9
-7356.22
-7356.39
-7356.39
-7356.23
-7355.91
-7355.44
-7354.87
-7354.23
-7353.56
-7352.92
-7352.34
-7351.87
-7351.54
-7351.39
-7351.41
-7351.61
-7351.98
-7352.47
-7353.04
-7353.65
-7354.23
-7354.74
-7355.11
-7355.33
-7355.36
-7355.21
-7354.9
-7354.45
-7353.93
-7353.34
-7352.84
-7352.44
-7352.19
-7352.11
-7352.22
-7352.49
-7352.89
-7353.37
-7353.86
-7354.3
-7354.62
-7354.8
-7354.82
-7354.68
-7354.41
-7354.07
-7353.7
-7353.39
-7353.16
-7353.05
-7353.06
-7353.17
-7353.34
-7353.54
-7353.7
-7353.81
-7353.85
-7353.83
-7353.76
-7353.67
-7353.59
-7353.54
-7353.53
-7353.54
-7353.57
-7353.59
-7745.5
-7745.39
-7745.15
-7744.79
-7744.3
-7743.69
-7743
-7742.15
-7740.13
-7738.62
-7737.25
-7736.08
-7735.07
-7734.2
-7733.47
-7732.87
-7732.38
-7732.01
-7731.75
-7731.59
-7731.55
-7731.62
-7731.8
-7732.11
-7732.55
-7733.13
-7733.78
-7734.94
-7735.46
-7736.03
-7736.58
-7737.1
-7737.59
-7738.07
-7738.52
-7738.96
-7739.4
-7739.85
-7740.3
-7740.76
-7741.22
-7741.69
-7742.16
-7742.64
-7743.11
-7743.58
-7744.05
-7744.51
-7744.95
-7745.38
-7745.78
-7746.16
-7746.52
-7746.84
-7747.13
-7747.37
-7747.58
-7747.74
-7747.85
-7747.91
-7747.92
-7747.87
-7747.77
-7747.62
-7747.4
-7747.14
-7746.82
-7746.45
-7746.03
-7745.57
-7745.08
-7744.55
-7744
-7743.42
-7742.84
-7742.26
-7741.69
-7741.13
-7740.59
-7740.1
-7739.64
-7739.25
-7738.91
-7738.65
-7738.46
-7738.35
-7738.33
-7738.4
-7738.56
-7738.81
-7739.15
-7739.57
-7740.06
-7740.62
-7741.23
-7741.88
-7742.56
-7743.25
-7743.92
-7744.57
-7745.18
-7745.72
-7746.18
-7746.54
-7746.79
-7746.93
-7746.93
-7746.8
-7746.55
-7746.17
-7745.67
-7745.07
-7744.4
-7743.66
-7742.89
-7742.12
-7741.38
-7740.69
-7740.09
-7739.6
-7739.24
-7739.04
-7739
-7739.14
-7739.43
-7739.89
-7740.47
-7741.17
-7741.94
-7742.75
-7743.55
-7744.3
-7744.96
-7745.49
-7745.87
-7746.06
-7746.05
-7745.85
-7745.47
-7744.92
-7744.25
-7743.5
-7742.71
-7741.95
-7741.28
-7740.73
-7740.36
-7740.18
-7740.22
-7740.47
-7740.9
-7741.48
-7742.16
-7742.87
-7743.55
-7744.14
-7744.58
-7744.83
-7744.86
-7744.68
-7744.3
-7743.78
-7743.17
-7742.46
-7741.88
-7741.42
-7741.13
-7741.04
-7741.17
-7741.5
-7741.97
-7742.53
-7743.1
-7743.61
-7743.98
-7744.18
-7744.19
-7744.01
-7743.69
-7743.29
-7742.87
-7742.5
-7742.25
-7742.13
-7742.15
-7742.28
-7742.49
-7742.73
-7742.92
-7743.05
-7743.09
-7743.05
-7742.96
-7742.86
-7742.76
-7742.71
-7742.7
-7742.72
-7742.75
-7742.78
-8094.38
-8094.39
-8094.42
-8094.51
-8094.65
-8094.9
-8095.32
-8095.79
-8082.08
-8082.11
-8082.02
-8082.14
-8082.34
-8082.61
-8082.94
-8083.32
-8083.72
-8084.15
-8084.61
-8085.08
-8085.57
-8086.08
-8086.59
-8087.11
-8087.64
-8088.16
-8088.69
-8089.21
-8089.72
-8090.22
-8090.7
-8091.15
-8091.58
-8091.98
-8092.34
-8092.66
-8092.94
-8093.17
-8093.34
-8093.46
-8093.53
-8093.53
-8093.47
-8093.34
-8093.16
-8092.9
-8092.59
-8092.22
-8091.79
-8091.3
-8090.77
-8090.19
-8089.58
-8088.94
-8088.28
-8087.61
-8086.94
-8086.27
-8085.63
-8085.01
-8084.44
-8083.92
-8083.46
-8083.08
-8082.77
-8082.56
-8082.44
-8082.42
-8082.5
-8082.69
-8082.98
-8083.37
-8083.86
-8084.43
-8085.07
-8085.78
-8086.53
-8087.31
-8088.1
-8088.88
-8089.63
-8090.33
-8090.95
-8091.48
-8091.9
-8092.19
-8092.33
-8092.34
-8092.19
-8091.89
-8091.45
-8090.87
-8090.18
-8089.4
-8088.55
-8087.66
-8086.77
-8085.91
-8085.12
-8084.43
-8083.87
-8083.46
-8083.24
-8083.2
-8083.36
-8083.7
-8084.23
-8084.91
-8085.71
-8086.6
-8087.54
-8088.46
-8089.32
-8090.08
-8090.68
-8091.11
-8091.32
-8091.31
-8091.07
-8090.62
-8089.98
-8089.21
-8088.34
-8087.43
-8086.56
-8085.79
-8085.16
-8084.74
-8084.55
-8084.6
-8084.89
-8085.4
-8086.07
-8086.85
-8087.68
-8088.46
-8089.14
-8089.64
-8089.91
-8089.94
-8089.73
-8089.29
-8088.68
-8087.99
-8087.15
-8086.5
-8085.97
-8085.64
-8085.55
-8085.71
-8086.08
-8086.63
-8087.27
-8087.93
-8088.5
-8088.92
-8089.14
-8089.14
-8088.93
-8088.56
-8088.09
-8087.61
-8087.19
-8086.91
-8086.78
-8086.82
-8086.98
-8087.23
-8087.5
-8087.73
-8087.87
-8087.91
-8087.86
-8087.75
-8087.62
-8087.52
-8087.46
-8087.45
-8087.48
-8087.52
-8087.55
-8403.19
-8403.19
-8403.19
-8403.2
-8403.18
-8403.17
-8403.2
-8403.08
-8386.74
-8387.01
-8387.11
-8387.35
-8387.63
-8387.93
-8388.28
-8388.66
-8389.07
-8389.52
-8390
-8390.5
-8391.02
-8391.57
-8392.13
-8392.7
-8393.28
-8393.86
-8394.44
-8395.02
-8395.58
-8396.14
-8396.67
-8397.18
-8397.65
-8398.1
-8398.5
-8398.85
-8399.16
-8399.41
-8399.6
-8399.73
-8399.8
-8399.79
-8399.72
-8399.57
-8399.35
-8399.06
-8398.7
-8398.28
-8397.78
-8397.23
-8396.62
-8395.97
-8395.27
-8394.54
-8393.79
-8393.03
-8392.26
-8391.51
-8390.78
-8390.08
-8389.43
-8388.84
-8388.33
-8387.89
-8387.55
-8387.31
-8387.17
-8387.15
-8387.25
-8387.47
-8387.8
-8388.25
-8388.8
-8389.45
-8390.18
-8390.98
-8391.84
-8392.73
-8393.62
-8394.51
-8395.36
-8396.15
-8396.85
-8397.45
-8397.92
-8398.24
-8398.41
-8398.41
-8398.24
-8397.89
-8397.39
-8396.73
-8395.94
-8395.05
-8394.09
-8393.08
-8392.07
-8391.1
-8390.2
-8389.42
-8388.79
-8388.33
-8388.08
-8388.04
-8388.23
-8388.63
-8389.23
-8390
-8390.92
-8391.93
-8392.98
-8394.03
-8395
-8395.85
-8396.54
-8397.01
-8397.25
-8397.22
-8396.94
-8396.43
-8395.7
-8394.82
-8393.83
-8392.8
-8391.82
-8390.95
-8390.25
-8389.78
-8389.56
-8389.63
-8389.97
-8390.55
-8391.32
-8392.21
-8393.15
-8394.03
-8394.79
-8395.36
-8395.66
-8395.69
-8395.43
-8394.93
-8394.24
-8393.45
-8392.51
-8391.77
-8391.18
-8390.81
-8390.71
-8390.89
-8391.32
-8391.95
-8392.67
-8393.41
-8394.05
-8394.53
-8394.77
-8394.75
-8394.51
-8394.08
-8393.55
-8393
-8392.54
-8392.22
-8392.09
-8392.14
-8392.34
-8392.63
-8392.94
-8393.19
-8393.34
-8393.38
-8393.32
-8393.2
-8393.05
-8392.93
-8392.86
-8392.85
-8392.89
-8392.95
-8392.98
-8676.71
-8676.71
-8676.7
-8676.71
-8676.7
-8676.71
-8676.72
-8676.71
-8657.36
-8657.55
-8657.6
-8657.79
-8658.04
-8658.33
-8658.68
-8659.07
-8659.51
-8659.98
-8660.48
-8661.02
-8661.59
-8662.17
-8662.78
-8663.41
-8664.04
-8664.68
-8665.32
-8665.95
-8666.57
-8667.18
-8667.77
-8668.33
-8668.85
-8669.34
-8669.78
-8670.17
-8670.51
-8670.78
-8670.99
-8671.13
-8671.2
-8671.19
-8671.1
-8670.93
-8670.68
-8670.36
-8669.95
-8669.46
-8668.91
-8668.29
-8667.61
-8666.87
-8666.09
-8665.27
-8664.43
-8663.58
-8662.72
-8661.88
-8661.06
-8660.28
-8659.56
-8658.9
-8658.33
-8657.84
-8657.46
-8657.19
-8657.05
-8657.03
-8657.14
-8657.38
-8657.76
-8658.26
-8658.88
-8659.61
-8660.43
-8661.33
-8662.29
-8663.28
-8664.28
-8665.27
-8666.22
-8667.11
-8667.89
-8668.56
-8669.08
-8669.44
-8669.63
-8669.62
-8669.43
-8669.04
-8668.47
-8667.73
-8666.85
-8665.85
-8664.77
-8663.64
-8662.51
-8661.43
-8660.43
-8659.55
-8658.85
-8658.35
-8658.07
-8658.03
-8658.24
-8658.69
-8659.37
-8660.24
-8661.27
-8662.39
-8663.58
-8664.74
-8665.82
-8666.77
-8667.53
-8668.06
-8668.31
-8668.28
-8667.96
-8667.37
-8666.56
-8665.57
-8664.47
-8663.3
-8662.21
-8661.25
-8660.47
-8659.95
-8659.72
-8659.81
-8660.19
-8660.85
-8661.71
-8662.71
-8663.76
-8664.75
-8665.59
-8666.22
-8666.55
-8666.57
-8666.28
-8665.71
-8664.93
-8664.04
-8663.02
-8662.19
-8661.53
-8661.12
-8661.01
-8661.22
-8661.71
-8662.41
-8663.22
-8664.04
-8664.75
-8665.27
-8665.53
-8665.51
-8665.22
-8664.74
-8664.14
-8663.53
-8663.02
-8662.68
-8662.54
-8662.61
-8662.84
-8663.17
-8663.51
-8663.79
-8663.96
-8664
-8663.93
-8663.78
-8663.61
-8663.48
-8663.4
-8663.4
-8663.45
-8663.51
-8663.56
-8919.02
-8919.01
-8919.01
-8919.02
-8919.01
-8919.02
-8919.02
-8919.02
-8896.83
-8896.98
-8897.06
-8897.25
-8897.5
-8897.8
-8898.16
-8898.56
-8899.02
-8899.52
-8900.06
-8900.63
-8901.24
-8901.88
-8902.53
-8903.21
-8903.9
-8904.59
-8905.29
-8905.98
-8906.66
-8907.33
-8907.97
-8908.58
-8909.15
-8909.69
-8910.17
-8910.59
-8910.96
-8911.26
-8911.48
-8911.63
-8911.7
-8911.69
-8911.58
-8911.39
-8911.12
-8910.75
-8910.29
-8909.76
-8909.14
-8908.45
-8907.7
-8906.88
-8906.02
-8905.11
-8904.19
-8903.24
-8902.3
-8901.37
-8900.46
-8899.61
-8898.81
-8898.08
-8897.45
-8896.92
-8896.5
-8896.21
-8896.05
-8896.03
-8896.16
-8896.43
-8896.84
-8897.4
-8898.09
-8898.89
-8899.8
-8900.8
-8901.86
-8902.95
-8904.06
-8905.16
-8906.21
-8907.18
-8908.04
-8908.78
-8909.36
-8909.75
-8909.95
-8909.94
-8909.72
-8909.29
-8908.66
-8907.84
-8906.86
-8905.76
-8904.56
-8903.31
-8902.07
-8900.87
-8899.77
-8898.81
-8898.04
-8897.48
-8897.18
-8897.15
-8897.38
-8897.89
-8898.64
-8899.6
-8900.74
-8901.98
-8903.29
-8904.57
-8905.76
-8906.81
-8907.64
-8908.21
-8908.48
-8908.44
-8908.08
-8907.43
-8906.53
-8905.43
-8904.22
-8902.92
-8901.73
-8900.67
-8899.82
-8899.25
-8899.01
-8899.1
-8899.54
-8900.27
-8901.23
-8902.33
-8903.49
-8904.58
-8905.51
-8906.19
-8906.56
-8906.57
-8906.24
-8905.61
-8904.74
-8903.74
-8902.64
-8901.72
-8900.99
-8900.55
-8900.44
-8900.68
-8901.22
-8901.99
-8902.88
-8903.78
-8904.56
-8905.13
-8905.4
-8905.37
-8905.05
-8904.51
-8903.85
-8903.18
-8902.62
-8902.25
-8902.11
-8902.19
-8902.46
-8902.83
-8903.21
-8903.52
-8903.7
-8903.73
-8903.65
-8903.48
-8903.29
-8903.14
-8903.06
-8903.06
-8903.12
-8903.2
-8903.25
-9133.67
-9133.67
-9133.67
-9133.67
-9133.66
-9133.67
-9133.67
-9133.67
-9108.85
-9108.99
-9109.09
-9109.28
-9109.54
-9109.85
-9110.23
-9110.66
-9111.14
-9111.67
-9112.25
-9112.86
-9113.51
-9114.2
-9114.91
-9115.64
-9116.38
-9117.14
-9117.89
-9118.64
-9119.38
-9120.1
-9120.79
-9121.45
-9122.08
-9122.65
-9123.17
-9123.63
-9124.03
-9124.35
-9124.59
-9124.75
-9124.82
-9124.8
-9124.69
-9124.47
-9124.17
-9123.76
-9123.26
-9122.67
-9122
-9121.24
-9120.42
-9119.52
-9118.58
-9117.59
-9116.58
-9115.55
-9114.52
-9113.5
-9112.52
-9111.58
-9110.71
-9109.92
-9109.23
-9108.65
-9108.2
-9107.88
-9107.71
-9107.69
-9107.83
-9108.13
-9108.59
-9109.2
-9109.95
-9110.84
-9111.83
-9112.92
-9114.07
-9115.27
-9116.49
-9117.68
-9118.82
-9119.88
-9120.83
-9121.63
-9122.26
-9122.69
-9122.9
-9122.89
-9122.65
-9122.17
-9121.48
-9120.58
-9119.51
-9118.3
-9116.99
-9115.63
-9114.27
-9112.97
-9111.76
-9110.72
-9109.88
-9109.28
-9108.95
-9108.92
-9109.19
-9109.74
-9110.57
-9111.62
-9112.86
-9114.22
-9115.65
-9117.04
-9118.34
-9119.48
-9120.38
-9121
-9121.29
-9121.24
-9120.84
-9120.12
-9119.13
-9117.93
-9116.62
-9115.18
-9113.89
-9112.74
-9111.82
-9111.2
-9110.94
-9111.06
-9111.54
-9112.34
-9113.4
-9114.61
-9115.87
-9117.05
-9118.07
-9118.8
-9119.2
-9119.21
-9118.84
-9118.14
-9117.18
-9116.09
-9114.91
-9113.9
-9113.11
-9112.63
-9112.52
-9112.78
-9113.38
-9114.22
-9115.2
-9116.17
-9117.02
-9117.63
-9117.92
-9117.87
-9117.51
-9116.92
-9116.2
-9115.48
-9114.87
-9114.47
-9114.32
-9114.43
-9114.73
-9115.13
-9115.55
-9115.88
-9116.08
-9116.11
-9116.01
-9115.82
-9115.62
-9115.45
-9115.37
-9115.37
-9115.44
-9115.53
-9115.58
-9323.82
-9323.82
-9323.82
-9323.82
-9323.82
-9323.82
-9323.82
-9323.82
-9296.6
-9296.73
-9296.85
-9297.04
-9297.32
-9297.64
-9298.04
-9298.5
-9299.01
-9299.57
-9300.19
-9300.84
-9301.54
-9302.28
-9303.04
-9303.82
-9304.62
-9305.43
-9306.24
-9307.04
-9307.84
-9308.61
-9309.36
-9310.07
-9310.73
-9311.35
-9311.91
-9312.41
-9312.83
-9313.17
-9313.43
-9313.6
-9313.67
-9313.65
-9313.52
-9313.29
-9312.95
-9312.51
-9311.97
-9311.33
-9310.6
-9309.78
-9308.88
-9307.92
-9306.89
-9305.83
-9304.73
-9303.62
-9302.5
-9301.41
-9300.34
-9299.33
-9298.39
-9297.54
-9296.8
-9296.17
-9295.68
-9295.34
-9295.16
-9295.15
-9295.3
-9295.63
-9296.13
-9296.79
-9297.6
-9298.56
-9299.63
-9300.81
-9302.06
-9303.36
-9304.67
-9305.96
-9307.2
-9308.34
-9309.36
-9310.23
-9310.9
-9311.37
-9311.6
-9311.58
-9311.31
-9310.8
-9310.04
-9309.07
-9307.91
-9306.6
-9305.18
-9303.71
-9302.24
-9300.83
-9299.53
-9298.41
-9297.5
-9296.86
-9296.51
-9296.48
-9296.77
-9297.38
-9298.27
-9299.42
-9300.76
-9302.23
-9303.77
-9305.28
-9306.68
-9307.9
-9308.87
-9309.53
-9309.84
-9309.78
-9309.34
-9308.56
-9307.48
-9306.19
-9304.77
-9303.21
-9301.82
-9300.58
-9299.59
-9298.93
-9298.66
-9298.79
-9299.32
-9300.19
-9301.34
-9302.65
-9304.01
-9305.29
-9306.38
-9307.17
-9307.59
-9307.59
-9307.19
-9306.42
-9305.39
-9304.2
-9302.94
-9301.85
-9301
-9300.49
-9300.37
-9300.66
-9301.31
-9302.22
-9303.28
-9304.33
-9305.23
-9305.88
-9306.19
-9306.13
-9305.74
-9305.09
-9304.31
-9303.53
-9302.88
-9302.46
-9302.31
-9302.43
-9302.76
-9303.2
-9303.66
-9304.02
-9304.22
-9304.25
-9304.13
-9303.93
-9303.7
-9303.53
-9303.44
-9303.45
-9303.52
-9303.62
-9303.69
-9492.26
-9492.26
-9492.26
-9492.26
-9492.26
-9492.27
-9492.26
-9492.27
-9462.85
-9462.97
-9463.11
-9463.31
-9463.6
-9463.95
-9464.37