/*--------------------------------*- C++ -*----------------------------------*\
  =========                 |
  \\      /  F ield         | OpenFOAM: The Open Source CFD Toolbox
   \\    /   O peration     | Website:  https://openfoam.org
    \\  /    A nd           | Version:  12
     \\/     M anipulation  |
\*---------------------------------------------------------------------------*/
FoamFile
{
    format      ascii;
    class       volScalarField;
    location    "14.84";
    object      p_rgh;
}
// * * * * * * * * * * * * * * * * * * * * * * * * * * * * * * * * * * * * * //

dimensions      [1 -1 -2 0 0 0 0];

internalField   nonuniform List<scalar> 
3829
(
0.0282832
0.0283305
0.0284196
0.0285575
0.0287489
0.0290011
0.0293225
0.0297228
0.030213
0.0308047
0.0315099
0.0323408
0.0333091
0.0344249
0.0356969
0.0371313
0.0387302
0.0404926
0.0424125
0.0444783
0.0466729
0.0489728
0.0513464
0.0537537
0.0561457
0.0584641
0.0606409
0.062597
0.064244
0.0654843
0.0662086
0.0662997
0.0656324
0.0640743
0.0614888
0.0577333
0.052663
0.0461328
0.0380704
0.0283477
0.0168575
0.00351255
-0.0117531
-0.0289825
-0.0481969
-0.0693924
-0.0925408
-0.117586
-0.144443
-0.172995
-0.203093
-0.234554
-0.267158
-0.300654
-0.334754
-0.369145
-0.403473
-0.437362
-0.470413
-0.502208
-0.532314
-0.560282
-0.585664
-0.608006
-0.626871
-0.641824
-0.652442
-0.658446
-0.659501
-0.655343
-0.645768
-0.630655
-0.609982
-0.583154
-0.550719
-0.512992
-0.470281
-0.422957
-0.371499
-0.315297
-0.257182
-0.1972
-0.136127
-0.0748597
-0.0143671
0.0443384
0.100195
0.152143
0.199162
0.240273
0.27457
0.301271
0.319705
0.329449
0.328805
0.318379
0.298508
0.269636
0.232337
0.187342
0.135651
0.0784964
0.017332
-0.0461992
-0.110319
-0.173135
-0.232726
-0.287193
-0.33472
-0.37367
-0.402644
-0.42056
-0.426702
-0.418356
-0.397436
-0.364782
-0.321449
-0.26886
-0.208928
-0.143928
-0.0763234
-0.00955029
0.0536871
0.110449
0.157959
0.193793
0.21608
0.223622
0.214611
0.19005
0.151286
0.100145
0.0391827
-0.0284483
-0.0987097
-0.167048
-0.229543
-0.282134
-0.321254
-0.344187
-0.349292
-0.33478
-0.302311
-0.254041
-0.193123
-0.123576
-0.0395555
0.0305647
0.0924399
0.141013
0.171987
0.182369
0.170986
0.138189
0.0869917
0.0216857
-0.0520343
-0.128008
-0.197292
-0.253974
-0.29257
-0.309457
-0.30323
-0.274207
-0.226631
-0.165978
-0.0994825
-0.0350647
0.0191127
0.0569003
0.0737114
0.0679323
0.0406454
-0.00336843
-0.0582866
-0.116501
-0.16697
-0.203792
-0.2215
-0.216406
-0.191209
-0.149354
-0.0965475
-0.0451189
-0.00208925
0.0257887
0.0339878
0.0212741
-0.00948221
-0.0526653
-0.100669
-0.14562
-0.179979
-0.199657
-0.203049
-0.19235
-0.167877
-0.143589
-0.122725
-0.110655
0.0262104
0.0261518
0.0260338
0.0258619
0.0256469
0.0254053
0.0251586
0.0249332
0.0247615
0.02468
0.0247303
0.0249567
0.0254052
0.0261236
0.0271595
0.0285585
0.0303629
0.0326087
0.0353242
0.038527
0.0422225
0.0464005
0.0510357
0.0560854
0.0614884
0.0671645
0.0730135
0.0789178
0.0847408
0.0903285
0.0955121
0.10011
0.103931
0.106775
0.108446
0.108759
0.107573
0.104057
0.0982119
0.0899337
0.0791203
0.0657014
0.0496372
0.0309106
0.00950825
-0.0145649
-0.0412866
-0.0706035
-0.102425
-0.136622
-0.173013
-0.211367
-0.251403
-0.292796
-0.335175
-0.378131
-0.421208
-0.463922
-0.505757
-0.546179
-0.584633
-0.620537
-0.653327
-0.682427
-0.707125
-0.727186
-0.742006
-0.75112
-0.754109
-0.750644
-0.740447
-0.723289
-0.698922
-0.667671
-0.629601
-0.584964
-0.534125
-0.4776
-0.41606
-0.350285
-0.276586
-0.204773
-0.131401
-0.0576462
0.0152396
0.0859702
0.153214
0.215644
0.271998
0.321054
0.361707
0.392966
0.414002
0.4242
0.422141
0.408348
0.383088
0.346784
0.300093
0.243951
0.179643
0.108718
0.032996
-0.0454864
-0.124528
-0.201778
-0.274871
-0.341464
-0.3993
-0.44633
-0.480783
-0.501272
-0.506857
-0.496253
-0.470219
-0.429552
-0.375524
-0.310014
-0.23549
-0.154772
-0.0709045
0.0116618
0.0896993
0.159549
0.217768
0.261355
0.287956
0.295984
0.284079
0.253116
0.204498
0.140544
0.064573
-0.0194618
-0.106576
-0.191105
-0.268181
-0.33279
-0.380581
-0.408118
-0.41324
-0.394789
-0.354287
-0.294334
-0.219164
-0.134377
-0.0294777
0.055582
0.131165
0.190663
0.228698
0.24143
0.22615
0.185088
0.121889
0.0419394
-0.048058
-0.142976
-0.226621
-0.294342
-0.339752
-0.358496
-0.348703
-0.311864
-0.252334
-0.177204
-0.0954767
-0.0166714
0.0488854
0.0938333
0.112751
0.103548
0.0685997
0.0132769
-0.0548681
-0.126096
-0.187514
-0.231706
-0.251979
-0.245077
-0.213574
-0.161951
-0.0968936
-0.034681
0.0169181
0.0497299
0.0584919
0.0423936
0.00479767
-0.0471407
-0.104237
-0.156309
-0.195214
-0.215807
-0.217212
-0.201459
-0.17161
-0.140932
-0.11495
-0.0999142
0.0268574
0.0263644
0.0253776
0.0239129
0.0220042
0.0197053
0.0170887
0.0142451
0.011283
0.00832708
0.00551231
0.00297984
0.00086782
-0.000683629
-0.00152292
-0.00150151
-0.000480059
0.00166801
0.00505133
0.00975525
0.0158362
0.0233177
0.0321855
0.0423855
0.0538219
0.0663558
0.0798042
0.0939405
0.108499
0.123184
0.137665
0.151578
0.164536
0.176125
0.185917
0.193465
0.198277
0.200944
0.2007
0.197153
0.189983
0.178912
0.163701
0.144166
0.120201
0.0917757
0.058938
0.0218054
-0.019435
-0.0645267
-0.113155
-0.164948
-0.219469
-0.276227
-0.334669
-0.394199
-0.454152
-0.51383
-0.572502
-0.629408
-0.683755
-0.734608
-0.781392
-0.823236
-0.859377
-0.889079
-0.911665
-0.926535
-0.933163
-0.931167
-0.920304
-0.900517
-0.86867
-0.827946
-0.77824
-0.719768
-0.65294
-0.578365
-0.496851
-0.409377
-0.317
-0.220866
-0.123433
-0.0256751
0.0707752
0.16421
0.252849
0.334919
0.408719
0.472589
0.525045
0.56469
0.5905
0.601589
0.596693
0.576275
0.540531
0.48994
0.425371
0.348154
0.260077
0.163277
0.0602348
-0.0462693
-0.153268
-0.257521
-0.355821
-0.444994
-0.522012
-0.584116
-0.628967
-0.654594
-0.659595
-0.64376
-0.607169
-0.550719
-0.476111
-0.38602
-0.283842
-0.173474
-0.0591748
0.0529757
0.158641
0.252863
0.33097
0.38889
0.423397
0.432235
0.414513
0.370959
0.303401
0.215111
0.110775
-0.00408332
-0.122812
-0.237652
-0.341912
-0.428802
-0.492461
-0.528329
-0.533321
-0.506958
-0.450669
-0.367969
-0.264707
-0.148133
-0.0145748
0.101337
0.203439
0.283354
0.334635
0.35328
0.328396
0.271117
0.185263
0.0784474
-0.0386217
-0.175692
-0.282635
-0.370178
-0.428072
-0.449988
-0.433518
-0.381385
-0.299199
-0.196884
-0.0866334
0.0190402
0.105432
0.163341
0.185664
0.169975
0.120044
0.0433468
-0.0496345
-0.145039
-0.226712
-0.284349
-0.30921
-0.298319
-0.254583
-0.18467
-0.096696
-0.0146107
0.0526219
0.094298
0.103804
0.080877
0.0303793
-0.0377869
-0.111806
-0.176835
-0.223793
-0.246105
-0.243221
-0.218115
-0.177627
-0.135375
-0.0999984
-0.0796281
0.0556251
0.0539631
0.0506214
0.0456279
0.0390541
0.0310403
0.0217857
0.0114533
0.000381633
-0.0110839
-0.0225703
-0.0336874
-0.0440298
-0.0531873
-0.0607686
-0.0663727
-0.0696154
-0.0701433
-0.0676499
-0.0618962
-0.0527141
-0.040014
-0.0237992
-0.00416709
0.0186862
0.0444673
0.0727887
0.103182
0.135101
0.167932
0.200992
0.233571
0.264943
0.294381
0.321196
0.344814
0.364361
0.378194
0.386329
0.388605
0.384808
0.374717
0.358114
0.334832
0.304765
0.267897
0.2243
0.174147
0.117709
0.0553613
-0.0124229
-0.0850711
-0.161926
-0.242242
-0.325198
-0.409906
-0.495404
-0.580691
-0.6647
-0.746314
-0.824376
-0.897831
-0.965506
-1.02629
-1.07909
-1.12289
-1.15671
-1.17963
-1.19091
-1.18983
-1.1758
-1.1483
-1.10948
-1.05743
-0.992291
-0.914568
-0.825041
-0.724686
-0.614728
-0.496612
-0.371945
-0.242542
-0.110586
0.0217613
0.15223
0.278456
0.39797
0.508356
0.607256
0.692415
0.76177
0.813451
0.84597
0.858152
0.84902
0.818709
0.76736
0.695637
0.604816
0.496794
0.374077
0.239636
0.0969121
-0.0502391
-0.197744
-0.341019
-0.475768
-0.597612
-0.702326
-0.786111
-0.845711
-0.878583
-0.88308
-0.858979
-0.806228
-0.726069
-0.620978
-0.494732
-0.352104
-0.198535
-0.0400351
0.115114
0.260817
0.390192
0.496857
0.575238
0.620887
0.63064
0.604029
0.541622
0.445983
0.321938
0.176101
0.0162277
-0.148433
-0.307166
-0.450715
-0.569728
-0.655962
-0.703384
-0.708089
-0.6696
-0.589734
-0.473516
-0.3292
-0.166735
0.0091474
0.169177
0.308857
0.416959
0.485
0.509939
0.472326
0.392249
0.273232
0.125172
-0.0389473
-0.212931
-0.361232
-0.479547
-0.555776
-0.582059
-0.555645
-0.480552
-0.365151
-0.223313
-0.0717081
0.0724934
0.188472
0.264525
0.291204
0.265499
0.193139
0.0851595
-0.043842
-0.174036
-0.284628
-0.361146
-0.392146
-0.374702
-0.312673
-0.216147
-0.0951456
0.015219
0.104507
0.15835
0.168392
0.134941
0.0656102
-0.025515
-0.124455
-0.207329
-0.265158
-0.289455
-0.279876
-0.241276
-0.185071
-0.126498
-0.0779053
-0.0501589
0.152915
0.148521
0.139549
0.12601
0.108108
0.0862925
0.0608126
0.0324011
0.00181969
-0.0300582
-0.0624344
-0.0944042
-0.125022
-0.153261
-0.178122
-0.198589
-0.213737
-0.222792
-0.225025
-0.219952
-0.207269
-0.186837
-0.158734
-0.123244
-0.0808629
-0.0322807
0.0216053
0.079766
0.141001
0.204045
0.267566
0.330207
0.390557
0.447201
0.498833
0.544199
0.582694
0.614268
0.637682
0.651971
0.656405
0.650466
0.633845
0.60641
0.568183
0.519334
0.460166
0.391105
0.312706
0.225633
0.130661
0.0286704
-0.0793296
-0.19226
-0.30893
-0.428064
-0.548279
-0.668141
-0.78615
-0.900862
-1.0107
-1.11411
-1.20953
-1.2954
-1.37026
-1.43271
-1.48148
-1.51536
-1.53332
-1.53447
-1.51813
-1.48375
-1.43198
-1.36239
-1.27525
-1.1712
-1.05127
-0.916719
-0.769206
-0.610691
-0.443383
-0.269747
-0.0925621
0.0849985
0.259898
0.42892
0.588718
0.735993
0.867512
0.980274
1.07147
1.13858
1.17955
1.19278
1.17786
1.13423
1.06202
0.962223
0.836701
0.688087
0.519807
0.335924
0.141175
-0.0592359
-0.259591
-0.453893
-0.636107
-0.800332
-0.940943
-1.05284
-1.13158
-1.17363
-1.17662
-1.14103
-1.06642
-0.954516
-0.808925
-0.63485
-0.43889
-0.228562
-0.0119948
0.199526
0.397575
0.57278
0.716434
0.82105
0.880695
0.89125
0.852291
0.764446
0.631412
0.459966
0.259247
0.0400388
-0.184942
-0.401116
-0.595888
-0.756452
-0.871934
-0.933811
-0.937393
-0.882245
-0.770731
-0.610263
-0.412168
-0.190272
0.0444724
0.261021
0.448807
0.591888
0.677153
0.693575
0.654377
0.547628
0.38569
0.184061
-0.0391059
-0.266646
-0.466144
-0.623656
-0.72302
-0.754123
-0.713969
-0.608047
-0.448629
-0.254707
-0.048546
0.143791
0.298322
0.397299
0.428926
0.389097
0.28667
0.137435
-0.0386807
-0.213989
-0.361851
-0.462272
-0.500498
-0.473335
-0.386682
-0.255132
-0.0915153
0.0552316
0.172519
0.241328
0.251201
0.203297
0.108873
-0.0135538
-0.141061
-0.247702
-0.318948
-0.345034
-0.326293
-0.270019
-0.193251
-0.113923
-0.048714
-0.0118029
0.370381
0.361578
0.344074
0.318018
0.283296
0.239255
0.1789
0.111849
0.0393094
-0.036994
-0.115194
-0.192909
-0.267844
-0.337576
-0.399782
-0.452256
-0.493049
-0.520461
-0.53328
-0.530689
-0.512283
-0.478004
-0.428217
-0.363658
-0.285547
-0.195425
-0.0953693
0.012429
0.125408
0.241091
0.356751
0.469794
0.577637
0.678178
0.769786
0.849329
0.91656
0.970606
1.01061
1.03586
1.04583
1.04019
1.0188
0.981734
0.929215
0.861651
0.779604
0.683791
0.57509
0.454511
0.323204
0.182459
0.0336923
-0.121569
-0.281681
-0.444907
-0.609388
-0.773093
-0.934237
-1.0907
-1.24042
-1.38129
-1.51127
-1.62834
-1.73057
-1.81615
-1.88334
-1.9307
-1.95687
-1.96084
-1.94191
-1.8972
-1.82964
-1.73854
-1.62417
-1.48747
-1.32979
-1.15283
-0.958809
-0.750314
-0.530289
-0.302028
-0.0687698
0.164439
0.393948
0.615513
0.824709
1.01717
1.18864
1.33512
1.45291
1.5387
1.58978
1.6041
1.58149
1.52079
1.4223
1.28745
1.11881
0.919897
0.695258
0.450348
0.191444
-0.0745533
-0.339854
-0.596765
-0.837244
-1.05342
-1.23784
-1.3837
-1.48529
-1.53817
-1.53936
-1.48875
-1.38623
-1.23446
-1.03831
-0.80479
-0.542656
-0.262023
0.0259639
0.307026
0.569551
0.800987
0.989832
1.12617
1.20236
1.21335
1.15824
1.038
0.858135
0.62768
0.358893
0.0661157
-0.233234
-0.520086
-0.777626
-0.988988
-1.13989
-1.2192
-1.22055
-1.14368
-0.992323
-0.776656
-0.511896
-0.216655
0.0917634
0.377662
0.624447
0.811197
0.920965
0.942851
0.88374
0.738957
0.522293
0.254342
-0.0407725
-0.336896
-0.598085
-0.802569
-0.929186
-0.965022
-0.90697
-0.762295
-0.548208
-0.290005
-0.0169537
0.234551
0.435186
0.561088
0.5981
0.539305
0.399173
0.198816
-0.0352174
-0.265582
-0.458586
-0.587411
-0.633419
-0.593048
-0.475328
-0.300277
-0.0851836
0.10566
0.256416
0.342402
0.351065
0.284754
0.159177
-0.00165412
-0.163651
-0.298244
-0.384751
-0.412019
-0.38154
-0.30341
-0.201558
-0.0974735
-0.0126794
0.0350016
0.802183
0.778003
0.729279
0.656095
0.559247
0.441614
0.315215
0.16973
0.013276
-0.148074
-0.309473
-0.465535
-0.611978
-0.744399
-0.85924
-0.953386
-1.02443
-1.0706
-1.09068
-1.08372
-1.04909
-0.986407
-0.89612
-0.779165
-0.637774
-0.474858
-0.295084
-0.103656
0.0939352
0.292696
0.487274
0.672779
0.845522
1.0033
1.14254
1.26473
1.36689
1.44763
1.50617
1.54213
1.55539
1.54607
1.51451
1.46124
1.38693
1.29245
1.17882
1.0472
0.898877
0.735315
0.558116
0.369002
0.16987
-0.0372548
-0.250215
-0.46676
-0.684384
-0.900792
-1.11333
-1.3194
-1.51636
-1.70151
-1.87224
-2.02594
-2.16018
-2.27258
-2.36096
-2.4233
-2.45794
-2.46346
-2.43873
-2.38413
-2.29848
-2.182
-2.03541
-1.85999
-1.65755
-1.43034
-1.18122
-0.913653
-0.631461
-0.339089
-0.0385485
0.259817
0.553461
0.836753
1.10394
1.34937
1.5676
1.75346
1.90221
2.00971
2.07233
2.08759
2.05529
1.97387
1.84386
1.66727
1.44744
1.18892
0.897642
0.580669
0.246102
-0.097238
-0.43903
-0.769397
-1.07806
-1.35492
-1.59041
-1.77594
-1.90416
-1.96917
-1.96719
-1.89816
-1.76209
-1.56267
-1.30633
-1.00213
-0.661546
-0.29775
0.0746512
0.437623
0.775949
1.07347
1.3152
1.48839
1.58335
1.59407
1.5188
1.35943
1.1234
0.822708
0.473108
0.0931466
-0.293905
-0.663947
-0.995182
-1.26595
-1.45756
-1.55652
-1.55431
-1.4509
-1.25178
-0.970326
-0.62657
-0.244511
0.151299
0.518695
0.834696
1.07239
1.21091
1.23718
1.15442
0.963187
0.681003
0.334307
-0.0456829
-0.42322
-0.756156
-1.01478
-1.17226
-1.21239
-1.13215
-0.941093
-0.662104
-0.327895
0.0237103
0.344618
0.598312
0.754181
0.796395
0.713708
0.528712
0.267892
-0.0343517
-0.329027
-0.574246
-0.735418
-0.789405
-0.732108
-0.576891
-0.350231
-0.075707
0.166427
0.355468
0.460311
0.46646
0.377863
0.215449
0.00942168
-0.192865
-0.35872
-0.461601
-0.489357
-0.444545
-0.340406
-0.209466
-0.0771603
0.0297109
0.089495
1.70912
1.67019
1.59297
1.47888
1.33013
1.14578
0.919136
0.668342
0.396143
0.11191
-0.177257
-0.463241
-0.739256
-0.997653
-1.23168
-1.43498
-1.60156
-1.72583
-1.80287
-1.82846
-1.80023
-1.71747
-1.58098
-1.39325
-1.15904
-0.884698
-0.580232
-0.259782
0.0684853
0.391584
0.699434
0.98463
1.24413
1.47451
1.67522
1.8435
1.97903
2.08191
2.15246
2.19127
2.19909
2.17684
2.12555
2.04642
1.9407
1.80973
1.655
1.47812
1.28082
1.06498
0.832642
0.586034
0.327544
0.0596774
-0.214873
-0.493172
-0.772377
-1.04934
-1.32089
-1.58376
-1.83465
-2.07025
-2.2873
-2.48258
-2.65297
-2.79562
-2.90784
-2.9872
-3.03147
-3.03893
-3.00825
-2.94018
-2.83297
-2.68698
-2.50319
-2.28328
-2.02951
-1.74475
-1.43265
-1.09748
-0.744073
-0.377791
-0.00387935
0.369479
0.736355
1.08982
1.4228
1.72817
1.99921
2.22943
2.41297
2.54466
2.6201
2.6361
2.59212
2.48654
2.32018
2.09568
1.81727
1.49067
1.12339
0.724303
0.303592
-0.127478
-0.556227
-0.970048
-1.35598
-1.70146
-1.99455
-2.22444
-2.38188
-2.45986
-2.45416
-2.36335
-2.18837
-1.93409
-1.60867
-1.22358
-0.793382
-0.33451
0.134165
0.590284
1.01461
1.38685
1.68835
1.90299
2.0186
2.02787
1.92869
1.72395
1.42308
1.04151
0.599499
0.120107
-0.366882
-0.831579
-1.24627
-1.58372
-1.82095
-1.94092
-1.93391
-1.79935
-1.54493
-1.18791
-0.753654
-0.272629
0.222609
0.6825
1.07665
1.37172
1.54185
1.57167
1.46118
1.2161
0.858629
0.421947
-0.0546906
-0.524791
-0.938581
-1.25773
-1.44898
-1.49289
-1.38598
-1.14137
-0.788159
-0.367503
0.0740781
0.473224
0.785806
0.973414
1.01134
0.909001
0.673003
0.342973
-0.0365679
-0.403862
-0.707451
-0.904115
-0.965839
-0.888096
-0.689348
-0.403678
-0.062723
0.237
0.468397
0.593467
0.595457
0.480834
0.276532
0.0186609
-0.228613
-0.428392
-0.548678
-0.57566
-0.514053
-0.379902
-0.21655
-0.0532255
0.0776914
0.15061
3.0924
3.01388
2.8559
2.6139
2.28363
1.86698
1.36528
0.768929
0.183004
-0.382246
-0.936791
-1.45913
-1.94374
-2.37648
-2.74757
-3.05007
-3.27946
-3.43259
-3.50691
-3.5002
-3.4097
-3.23293
-2.96984
-2.61895
-2.18447
-1.67195
-1.09534
-0.491567
0.0969148
0.628267
1.10143
1.51139
1.86239
2.15954
2.40796
2.60935
2.76472
2.87584
2.94467
2.97312
2.96301
2.91616
2.83426
2.71901
2.57214
2.39543
2.19071
1.95999
1.70539
1.42922
1.13394
0.82218
0.496822
0.160915
-0.182291
-0.529399
-0.876806
-1.22076
-1.5574
-1.88283
-2.19306
-2.48404
-2.75184
-2.99254
-3.20244
-3.37802
-3.51607
-3.61363
-3.66815
-3.67758
-3.64041
-3.55613
-3.42417
-3.24493
-3.01952
-2.74998
-2.43915
-2.09058
-1.70869
-1.29877
-0.866727
-0.4192
0.0371028
0.492727
0.940123
1.3708
1.77607
2.14729
2.47625
2.75506
2.97653
3.13443
3.22358
3.23992
3.18252
3.04975
2.84283
2.56501
2.22154
1.81956
1.36826
0.878458
0.362742
-0.165683
-0.690003
-1.19549
-1.66629
-2.08701
-2.44305
-2.72129
-2.91068
-3.00271
-2.99163
-2.87615
-2.65765
-2.3422
-1.93997
-1.46511
-0.935485
-0.37134
0.203793
0.76275
1.2818
1.7362
2.10305
2.36288
2.50068
2.50743
2.38087
2.125
1.75175
1.28001
0.735325
0.146122
-0.451364
-1.02042
-1.52683
-1.93736
-2.22419
-2.36636
-2.35302
-2.18302
-1.86659
-1.42533
-0.890732
-0.300042
0.305022
0.866651
1.34643
1.7038
1.9077
1.9398
1.79804
1.49279
1.05139
0.515045
-0.0681035
-0.640248
-1.1426
-1.52746
-1.75475
-1.80154
-1.66391
-1.35935
-0.923998
-0.408045
0.134062
0.618609
0.994851
1.21726
1.25914
1.12391
0.829528
0.422553
-0.0423428
-0.489099
-0.856141
-1.09062
-1.15957
-1.05809
-0.810439
-0.459306
-0.0460984
0.316405
0.593434
0.739552
0.735627
0.591602
0.341424
0.0250921
-0.270435
-0.506026
-0.644035
-0.66917
-0.588817
-0.420645
-0.222525
-0.0261299
0.130275
0.217046
5.25526
5.15445
4.95505
4.64839
4.22421
3.66072
2.94369
2.11405
1.09227
0.071313
-0.818348
-1.62708
-2.34801
-2.97708
-3.51523
-3.95922
-4.30607
-4.55201
-4.69307
-4.72542
-4.64319
-4.43977
-4.11375
-3.65414
-3.05931
-2.32166
-1.3749
-0.401284
0.489277
1.16338
1.75201
2.26521
2.70048
3.06046
3.34738
3.56528
3.72077
3.82062
3.86958
3.87133
3.82894
3.74493
3.62139
3.46031
3.2636
3.03322
2.77125
2.47986
2.16145
1.81861
1.4542
1.0713
0.673252
0.263597
-0.153894
-0.575231
-0.996071
-1.41205
-1.8186
-2.21111
-2.58487
-2.93509
-3.2571
-3.54626
-3.79818
-4.00873
-4.174
-4.2906
-4.35555
-4.36639
-4.32133
-4.2195
-4.06057
-3.8451
-3.57449
-3.25122
-2.87868
-2.46112
-2.00395
-1.5135
-0.996845
-0.461935
0.0835122
0.627481
1.16126
1.67471
2.15746
2.5992
2.99008
3.32074
3.58258
3.76821
3.87151
3.88798
3.8155
3.65296
3.40195
3.06643
2.65269
2.16936
1.6275
1.04009
0.421924
-0.210973
-0.838162
-1.4419
-2.00348
-2.50461
-2.92791
-3.25777
-3.48089
-3.58709
-3.56976
-3.42703
-3.16121
-2.77942
-2.29397
-1.722
-1.08503
-0.407397
0.282216
0.951918
1.57284
2.11534
2.55199
2.85961
3.02054
3.02387
2.86688
2.55513
2.10322
1.53383
0.87785
0.170356
-0.546224
-1.22732
-1.83206
-2.32071
-2.65997
-2.82532
-2.80388
-2.59466
-2.21071
-1.67802
-1.03479
-0.32615
0.397055
1.06773
1.63899
2.0625
2.3015
2.33463
2.15859
1.78776
1.25553
0.611545
-0.0859999
-0.767656
-1.36451
-1.81903
-2.08386
-2.13208
-1.96054
-1.59067
-1.06702
-0.449308
0.203511
0.778272
1.22154
1.48025
1.524
1.35343
0.995107
0.504783
-0.0516342
-0.5834
-1.01773
-1.29164
-1.36697
-1.23886
-0.937711
-0.515951
-0.0259267
0.403328
0.728313
0.895589
0.884202
0.707919
0.409219
0.0279327
-0.317523
-0.590086
-0.745759
-0.767953
-0.667554
-0.461448
-0.22728
0.00354132
0.186354
0.287394
8.04273
7.91985
7.66546
7.24838
6.62287
5.71251
4.37514
2.46836
0.46522
-1.26396
-2.6984
-3.92411
-4.95938
-5.82293
-6.52668
-7.07948
-7.48783
-7.75561
-7.88389
-7.87154
-7.70962
-7.38629
-6.89329
-6.20824
-5.30516
-4.15189
-2.62277
-0.69774
0.940919
2.10565
2.9286
3.52707
3.96827
4.29466
4.53368
4.70402
4.8163
4.87489
4.88317
4.84354
4.75795
4.62809
4.45569
4.2425
3.99031
3.70107
3.37694
3.02026
2.63364
2.21997
1.78239
1.32439
0.849746
0.362497
-0.133
-0.63214
-1.12992
-1.62129
-2.10096
-2.56358
-3.00369
-3.41571
-3.79421
-4.13381
-4.42938
-4.6761
-4.86948
-5.00554
-5.0808
-5.09249
-5.03852
-4.91781
-4.73011
-4.47615
-4.1576
-3.77743
-3.33965
-2.84931
-2.31278
-1.73754
-1.1319
-0.505074
0.134551
0.771346
1.39573
1.99598
2.55992
3.07547
3.53111
3.91591
4.21977
4.43412
4.55183
4.5678
4.47908
4.28486
3.98709
3.59049
3.10255
2.53347
1.89635
1.20646
0.481002
-0.263336
-0.99814
-1.7047
-2.36132
-2.9466
-3.44019
-3.82373
-4.08166
-4.20216
-4.17776
-4.00587
-3.68961
-3.23751
-2.66404
-1.98946
-1.23925
-0.442133
0.368091
1.15431
1.88232
2.51712
3.02677
3.384
3.56839
3.56735
3.37767
3.00639
2.47082
1.7982
1.02456
0.192
-0.649834
-1.44864
-2.15638
-2.72656
-3.12022
-3.30908
-3.27805
-3.02671
-2.57066
-1.94111
-1.1832
-0.350368
0.496972
1.28203
1.94887
2.44105
2.71592
2.74887
2.53596
2.09548
1.46704
0.709753
-0.108307
-0.904719
-1.60022
-2.12703
-2.43017
-2.47873
-2.27035
-1.83091
-1.21441
-0.491299
0.281962
0.949067
1.46133
1.75712
1.80109
1.59297
1.16654
0.588119
-0.0643839
-0.685028
-1.18919
-1.50343
-1.58418
-1.427
-1.06872
-0.572559
-0.00252277
0.496179
0.870529
1.05892
1.03836
0.827431
0.479697
0.0260481
-0.368779
-0.678888
-0.851864
-0.870001
-0.749153
-0.501105
-0.230855
0.0351457
0.244782
0.360226
10.8411
10.7162
10.478
10.0761
9.54172
8.87648
8.19153
7.3075
3.58572
3.89953
4.24118
4.63132
5.00006
5.3237
5.57803
5.76908
5.89526
5.96429
5.97848
5.94102
5.85403
5.71929
5.53836
5.31259
5.04342
4.73245
4.38149
3.99262
3.56825
3.11114
2.62436
2.1114
1.57608
1.02264
0.455606
-0.120023
-0.699019
-1.27573
-1.84438
-2.39899
-2.93343
-3.44146
-3.91672
-4.35298
-4.74408
-5.08417
-5.36769
-5.58955
-5.74514
-5.83052
-5.84259
-5.77891
-5.63829
-5.42051
-5.12646
-4.75813
-4.31896
-3.81363
-3.24803
-2.6295
-1.96675
-1.26948
-0.548394
0.189837
0.921744
1.63921
2.32869
2.97609
3.56746
4.08956
4.52977
4.8766
5.12015
5.2523
5.26721
5.16136
4.93411
4.58778
4.12785
3.56307
2.90536
2.16995
1.37458
0.539166
-0.321698
-1.16671
-1.97878
-2.73301
-3.40469
-3.97032
-4.40871
-4.70216
-4.83697
-4.80474
-4.60228
-4.23343
-3.7083
-3.04362
-2.26285
-1.39557
-0.475138
0.459713
1.36612
2.20439
2.93418
3.51869
3.92662
4.13447
4.12813
3.90402
3.47059
2.84787
2.06826
1.17296
0.210772
-0.760137
-1.68019
-2.49379
-3.14743
-3.59649
-3.80869
-3.76695
-3.4713
-2.94014
-2.21001
-1.33345
-0.372222
0.602971
1.50558
2.27035
2.83256
3.14347
3.17509
2.92344
2.41034
1.68224
0.807704
-0.134399
-1.04879
-1.84538
-2.44584
-2.78748
-2.83556
-2.58779
-2.07566
-1.36321
-0.534196
0.368523
1.12745
1.70961
2.04269
2.08566
1.83817
1.34079
0.671071
-0.0802049
-0.792034
-1.36733
-1.72208
-1.80736
-1.61919
-1.20116
-0.628187
0.023598
0.593242
1.01752
1.22654
1.19535
0.947741
0.552806
0.0184829
-0.422855
-0.770727
-0.960407
-0.973328
-0.832712
-0.538469
-0.233432
0.0680283
0.304452
0.434183
14.2931
14.2494
14.1703
14.0526
13.9224
13.7928
13.6848
13.608
6.36369
6.40633
6.55306
6.65801
6.78866
6.91319
7.01571
7.09511
7.13845
7.13991
7.0959
7.00525
6.86704
6.68119
6.44798
6.16803
5.84227
5.47193
5.05867
4.60452
4.11194
3.5838
3.02341
2.43453
1.82136
1.18852
0.541034
-0.115319
-0.77472
-1.43087
-2.07733
-2.70735
-3.31406
-3.89042
-4.42928
-4.9236
-5.36643
-5.75116
-6.07153
-6.32178
-6.4967
-6.59184
-6.60361
-6.52984
-6.36867
-6.12004
-5.78501
-5.36589
-4.86666
-4.29265
-3.65055
-2.94874
-2.19717
-1.40712
-0.592087
0.249128
1.07571
1.88725
2.66704
3.39882
4.06678
4.65592
5.15196
5.54199
5.81477
5.96115
5.97455
5.85103
5.58995
5.19401
4.6696
4.02671
3.27897
2.44379
1.54188
0.596659
-0.385891
-1.34061
-2.25902
-3.11189
-3.87082
-4.50906
-5.00274
-5.33184
-5.48074
-5.44011
-5.20625
-4.78371
-4.18408
-3.42654
-2.53782
-1.55162
-0.506047
0.555311
1.5835
2.53337
3.35926
4.01925
4.4781
4.7092
4.69678
4.4371
3.93986
3.22819
2.33945
1.32066
0.226618
-0.874986
-1.91779
-2.83835
-3.57609
-4.08066
-4.31573
-4.26233
-3.92092
-3.31304
-2.48031
-1.48307
-0.39163
0.712988
1.73432
2.59782
3.2303
3.57687
3.60627
3.3146
2.7272
1.89753
0.903941
-0.163505
-1.19725
-2.09568
-2.76997
-3.1497
-3.19621
-2.90761
-2.32083
-1.51072
-0.580714
0.464755
1.3097
1.96188
2.33205
2.37311
2.08502
1.51507
0.752318
-0.0985434
-0.902449
-1.54903
-1.94388
-2.03277
-1.81235
-1.33298
-0.682031
0.0518071
0.692789
1.16681
1.39566
1.35265
1.06649
0.619613
0.0134026
-0.478242
-0.863998
-1.06959
-1.07605
-0.912304
-0.577664
-0.235295
0.101571
0.36435
0.508041
17.5732
17.5504
17.5074
17.438
17.3546
17.2492
17.1486
17.0328
7.71321
7.83692
7.97142
8.08432
8.19104
8.27673
8.32695
8.34867
8.33443
8.28156
8.18592
8.04536
7.85781
7.62227
7.33807
7.00518
6.62399
6.19545
5.72098
5.20258
4.64272
4.04445
3.41129
2.74732
2.05708
1.34559
0.618101
-0.118284
-0.857342
-1.59221
-2.31576
-3.02053
-3.69888
-4.34298
-4.94486
-5.4967
-5.99075
-6.41963
-6.77638
-7.05456
-7.24842
-7.35298
-7.36431
-7.27981
-7.0977
-6.81789
-6.44163
-5.97157
-5.41216
-4.76941
-4.05079
-3.26568
-2.42516
-1.54156
-0.628504
0.304235
1.22951
2.13573
3.00569
3.82153
4.56569
5.22142
5.7729
6.20572
6.50734
6.6676
6.67916
6.53767
6.2425
5.79678
5.20774
4.48665
3.64877
2.71376
1.70525
0.652052
-0.453535
-1.51604
-2.54062
-3.49182
-4.33757
-5.048
-5.59655
-5.96089
-6.12355
-6.07409
-5.80859
-5.33213
-4.65777
-3.80722
-2.81045
-1.70532
-0.534516
0.653124
1.80278
2.86394
3.78553
4.52057
5.02976
5.28359
5.26454
4.96872
4.40711
3.60613
2.60777
1.46538
0.239851
-0.992299
-2.15748
-3.18452
-4.00576
-4.56515
-4.82239
-4.75659
-4.36882
-3.6837
-2.74804
-1.62985
-0.408777
0.824953
1.9645
2.92607
3.62802
4.00946
4.0359
3.70352
3.04148
2.10997
0.997355
-0.195159
-1.34757
-2.34709
-3.09436
-3.51124
-3.55534
-3.22508
-2.5628
-1.65387
-0.625152
0.563509
1.49185
2.21406
2.62075
2.65916
2.32991
1.68693
0.830917
-0.118924
-1.01438
-1.73139
-2.16537
-2.25706
-2.00372
-1.46244
-0.73338
0.081417
0.793178
1.31608
1.5638
1.50807
1.18206
0.675771
0.0146722
-0.533926
-0.957262
-1.17783
-1.17675
-0.986338
-0.618822
-0.236514
0.135223
0.42358
0.58073
20.5532
20.5388
20.512
20.4679
20.4209
20.3619
20.3166
20.275
9.38244
9.36933
9.42801
9.46783
9.50911
9.53924
9.54222
9.51837
9.45959
9.36279
9.22358
9.03934
8.80742
8.52618
8.19442
7.81155
7.37761
6.89327
6.35982
5.77925
5.15411
4.48763
3.78363
3.04648
2.28114
1.49288
0.686495
-0.128035
-0.944856
-1.75664
-2.55559
-3.33349
-4.08193
-4.79231
-5.45584
-6.06394
-6.60805
-7.08007
-7.4723
-7.77766
-7.98981
-8.10333
-8.11391
-8.0185
-7.8154
-7.50457
-7.08746
-6.56702
-5.94819
-5.2376
-4.44353
-3.57633
-2.64817
-1.67261
-0.664658
0.36148
1.38226
2.38141
3.33998
4.23839
5.05733
5.77838
6.38417
6.85882
7.18856
7.3622
7.37169
7.21223
6.88324
6.38825
5.73533
4.93704
4.01016
2.97651
1.86178
0.694558
-0.513029
-1.6893
-2.81937
-3.86739
-4.79841
-5.57967
-6.18197
-6.58067
-6.75668
-6.69814
-6.40122
-5.87135
-5.1232
-4.18074
-3.07732
-1.8549
-0.560464
0.751396
2.02064
3.19129
4.20693
5.01563
5.57399
5.84973
5.82369
5.49168
4.86617
3.97678
2.86988
1.60541
0.250646
-1.11014
-2.39572
-3.52734
-4.4304
-5.04323
-5.32168
-5.24308
-4.80909
-4.04724
-3.00983
-1.77214
-0.423667
0.93704
2.19274
3.25044
4.02022
4.43542
4.45823
4.08516
3.34914
2.317
1.08674
-0.228353
-1.49739
-2.59599
-3.41448
-3.86723
-3.90821
-3.53618
-2.79867
-1.79046
-0.653344
0.649457
1.67055
2.46262
2.9049
2.94008
2.56972
1.85439
0.906185
-0.140933
-1.12609
-1.91178
-2.38354
-2.47726
-2.19089
-1.58803
-0.78176
0.111733
0.892924
1.46329
1.72879
1.65975
1.29358
0.728022
0.0153894
-0.58937
-1.04927
-1.28378
-1.27443
-1.05686
-0.658797
-0.237049
0.16851
0.481388
0.651365
23.2317
23.2225
23.2061
23.1789
23.1534
23.1198
23.0993
23.0789
10.679
10.6539
10.6881
10.698
10.7015
10.6942
10.6611
10.6015
10.5073
10.3748
10.1991
9.97718
9.70606
9.38367
9.00838
8.57922
8.09588
7.55882
6.9693
6.32934
5.64162
4.90961
4.13739
3.32978
2.49223
1.63048
0.745948
-0.143447
-1.03517
-1.92125
-2.79311
-3.64176
-4.458
-5.23248
-5.95566
-6.61817
-7.2107
-7.72439
-8.15086
-8.48238
-8.71205
-8.834
-8.8436
-8.73725
-8.51341
-8.17215
-7.71507
-7.14543
-6.46865
-5.69198
-4.82445
-3.87735
-2.86394
-1.79904
-0.699237
0.41888
1.53207
2.62135
3.66596
4.64448
5.53595
6.32031
6.97868
7.49379
7.85063
8.03706
8.04434
7.86715
7.50501
6.96189
6.24666
5.37299
4.35943
3.22967
2.01157
0.735613
-0.574739
-1.85945
-3.09198
-4.23404
-5.24781
-6.09773
-6.75205
-7.18394
-7.3728
-7.3051
-6.97734
-6.39528
-5.57511
-4.54305
-3.33559
-1.9988
-0.584051
0.848593
2.23421
3.51131
4.61828
5.49845
6.10431
6.40094
6.36771
5.99998
5.31191
4.33602
3.12322
1.73932
0.259197
-1.22678
-2.6294
-3.86251
-4.84483
-5.5092
-5.80776
-5.71622
-5.23675
-4.39977
-3.26294
-1.90883
-0.436153
1.04766
2.41614
3.567
4.40225
4.84981
4.86846
4.45534
3.64683
2.51652
1.1715
-0.262393
-1.64471
-2.83929
-3.72653
-4.21354
-4.25087
-3.83756
-3.02613
-1.91969
-0.667531
0.723464
1.84394
2.7047
3.18123
3.21273
2.8019
2.01577
0.977496
-0.163955
-1.23605
-2.08799
-2.59582
-2.69093
-2.37192
-1.70861
-0.82683
0.142104
0.990751
1.60672
1.88882
1.8062
1.4003
0.777025
0.0148547
-0.64402
-1.13897
-1.38632
-1.36825
-1.12388
-0.696748
-0.236916
0.201025
0.537163
0.719245
25.6242
25.618
25.6076
25.589
25.5734
25.5509
25.5394
25.5246
11.8191
11.7832
11.8025
11.7942
11.7745
11.7419
11.6832
11.597
11.4753
11.314
11.108
10.8539
10.5485
10.1895
9.77491
9.30336
8.77428
8.18793
7.54558
6.84939
6.10227
5.30789
4.47064
3.59574
2.68936
1.75944
0.795851
-0.163053
-1.12626
-2.0835
-3.0252
-3.94161
-4.82279
-5.65866
-6.43895
-7.15359
-7.79247
-8.34604
-8.80525
-9.16172
-9.408
-9.53782
-9.54639
-9.42909
-9.18499
-8.8142
-8.31848
-7.70135
-6.96869
-6.12833
-5.19005
-4.16603
-3.0706
-1.9198
-0.731652
0.475342
1.67727
2.85314
3.98037
5.03581
5.99689
6.84196
7.55073
8.10456
8.48728
8.68577
8.69085
8.49634
8.10211
7.51247
6.73712
5.79075
4.69365
3.47133
2.15386
0.774445
-0.636993
-2.02486
-3.35568
-4.58806
-5.68129
-6.59706
-7.30121
-7.76484
-7.96605
-7.88921
-7.53149
-6.89898
-6.00932
-4.89083
-3.583
-2.13591
-0.605452
0.943463
2.44114
3.82062
5.01539
5.96414
6.61545
6.93182
6.89135
6.48884
5.74022
4.68053
3.36565
1.86618
0.265707
-1.34074
-2.85599
-4.18655
-5.24486
-5.95847
-6.27592
-6.17153
-5.64772
-4.73814
-3.50528
-2.03876
-0.446446
1.15543
2.63229
3.87251
4.77036
5.24863
5.26273
4.81067
3.93203
2.70691
1.25139
-0.296938
-1.78781
-3.07445
-4.02741
-4.54684
-4.58018
-4.12659
-3.24347
-2.04145
-0.67793
0.794404
2.01094
2.93801
3.44712