/*--------------------------------*- C++ -*----------------------------------*\
  =========                 |
  \\      /  F ield         | OpenFOAM: The Open Source CFD Toolbox
   \\    /   O peration     | Website:  https://openfoam.org
    \\  /    A nd           | Version:  12
     \\/     M anipulation  |
\*---------------------------------------------------------------------------*/
FoamFile
{
    format      ascii;
    class       surfaceScalarField;
    location    "14.84";
    object      phi;
}
// * * * * * * * * * * * * * * * * * * * * * * * * * * * * * * * * * * * * * //

dimensions      [1 0 -1 0 0 0 0];

internalField   nonuniform List<scalar> 
7429
(
0.00027321
-0.00027321
0.000552536
-0.000279326
0.000836331
-0.000283794
0.00112511
-0.00028878
0.0014195
-0.00029439
0.00172008
-0.000300573
0.00202735
-0.000307274
0.00234177
-0.000314415
0.00266369
-0.000321924
0.00299337
-0.000329675
0.00333086
-0.000337492
0.00367606
-0.000345205
0.00402882
-0.000352755
0.00438862
-0.000359797
0.00475488
-0.000366268
0.00512668
-0.000371796
0.00550301
-0.00037633
0.00588253
-0.000379518
0.00626377
-0.000381243
0.00664503
-0.000381257
0.0070246
-0.000379569
0.00740028
-0.000375683
0.00776989
-0.000369602
0.00813096
-0.000361072
0.00848102
-0.000350064
0.00881735
-0.000336328
0.00913708
-0.000319729
0.0094374
-0.00030032
0.00971546
-0.000278064
0.00996842
-0.000252951
0.0101936
-0.000225176
0.0103885
-0.000194859
0.0105506
-0.000162147
0.010678
-0.00012744
0.0107689
-9.08491e-05
0.0108217
-5.28344e-05
0.0108355
-1.37901e-05
0.0108116
2.39159e-05
0.0107482
6.34006e-05
0.0106445
0.000103691
0.0105003
0.00014423
0.0103157
0.00018458
0.0100915
0.000224233
0.00982863
0.000262835
0.0095286
0.000300026
0.00919312
0.000335485
0.00882414
0.000368977
0.00842395
0.000400189
0.00799509
0.00042886
0.00754034
0.00045475
0.00706275
0.000477593
0.00656556
0.000497193
0.0060524
0.000513157
0.00552683
0.000525564
0.00499314
0.000533694
0.00445494
0.000538196
0.00391712
0.000537829
0.0033834
0.000533716
0.00285903
0.000524365
0.00234784
0.000511194
0.00185485
0.000492989
0.00138425
0.000470598
0.000940774
0.000443479
0.000528453
0.000412321
0.000151332
0.00037712
-0.000186816
0.000338148
-0.000482346
0.00029553
-0.000732258
0.000249911
-0.000933868
0.00020161
-0.00108517
0.000151303
-0.00118474
9.95705e-05
-0.00123182
4.70816e-05
-0.00122236
-9.4675e-06
-0.00115721
-6.51493e-05
-0.00104027
-0.000116937
-0.000874105
-0.000166164
-0.000661659
-0.000212446
-0.000406147
-0.000255512
-0.000112735
-0.000293412
0.000214215
-0.00032695
0.00056838
-0.000354165
0.000942789
-0.000374409
0.00132961
-0.000386817
0.00172114
-0.00039153
0.0021087
-0.00038756
0.00248399
-0.00037529
0.00283784
-0.000353851
0.00316185
-0.000324011
0.00344757
-0.000285725
0.00368715
-0.000239573
0.00387363
-0.000186479
0.00400055
-0.000126929
0.00406396
-6.34052e-05
0.00405452
9.44224e-06
0.0039685
8.60217e-05
0.00380897
0.000159526
0.00357891
0.000230056
0.00328246
0.000296453
0.00292447
0.000357994
0.00251183
0.000412635
0.00205324
0.00045859
0.00155923
0.000494016
0.00104207
0.000517158
0.000515255
0.000526813
-6.73773e-06
0.000521993
-0.000508682
0.000501944
-0.000975603
0.000466921
-0.00139307
0.000417465
-0.00174705
0.000353983
-0.00202595
0.000278898
-0.00221919
0.000193238
-0.00232008
0.000100889
-0.00232163
1.5564e-06
-0.00221726
-0.000104369
-0.00201589
-0.000201379
-0.00172654
-0.000289345
-0.00135923
-0.000367313
-0.000928205
-0.000431022
-0.000450313
-0.000477892
5.33001e-05
-0.000503613
0.000560375
-0.000507075
0.00104723
-0.000486855
0.00148993
-0.000442702
0.00186593
-0.000375996
0.00215483
-0.000288899
0.00233991
-0.000185084
0.0024098
-6.98928e-05
0.00234657
6.32362e-05
0.00215461
0.000191955
0.0018447
0.000309909
0.00143089
0.000413815
0.000932303
0.000498586
0.000373488
0.000558815
-0.000214611
0.0005881
-0.000798283
0.000583671
-0.00134195
0.000543663
-0.00181198
0.000470032
-0.00217722
0.000365244
-0.00241258
0.000235363
-0.00250098
8.83945e-05
-0.00242176
-7.92237e-05
-0.00218217
-0.000239588
-0.00179996
-0.000382211
-0.00129716
-0.000502792
-0.000706664
-0.000590501
-6.76123e-05
-0.000639052
0.000573492
-0.000641104
0.00116844
-0.000594944
0.00167208
-0.000503641
0.00204522
-0.000373146
0.0022575
-0.000212282
0.00229451
-3.70017e-05
0.00213606
0.000158449
0.00180918
0.000326877
0.00134034
0.000468845
0.000770586
0.00056975
0.000148965
0.000621621
-0.000467094
0.000616059
-0.00102135
0.000554257
-0.00146425
0.000442896
-0.00175625
0.000292007
-0.00187548
0.000119228
-0.00180819
-6.72912e-05
-0.00157603
-0.000232159
-0.00121317
-0.000362862
-0.000766326
-0.000446844
-0.000291592
-0.000474734
0.00015059
-0.000442182
0.000506518
-0.000355928
0.000735333
-0.000228815
0.000815677
-8.03435e-05
0.000737816
7.78607e-05
0.00053091
0.000206906
0.000235618
0.000295292
-9.55427e-05
0.00033116
-0.00040075
0.000305207
-0.000626384
0.000225634
-0.000731673
0.000105289
-0.000689911
-4.1762e-05
-0.000506889
-0.000183021
-0.000214353
-0.000292536
0.000141848
-0.000356201
0.000501669
-0.000359821
0.000805415
-0.000303745
0.00100543
-0.000200016
0.00107403
-6.85965e-05
0.00100129
7.27394e-05
0.000815405
0.000185883
0.000558799
0.000256607
0.000284948
0.000273851
4.64625e-05
0.000238485
-0.000115416
0.000161879
-0.000185153
6.97371e-05
-0.000166891
-1.82629e-05
-9.04456e-05
-7.6445e-05
4.43724e-06
-9.48828e-05
7.54854e-05
-7.10482e-05
9.84472e-05
-2.29618e-05
6.68373e-05
3.16099e-05
6.68373e-05
0.000279766
-0.000552975
0.000571814
-0.000571374
0.000870037
-0.000582017
0.00117577
-0.000594513
0.00149044
-0.000609059
0.00181549
-0.000625625
0.00215214
-0.000643918
0.00250147
-0.000663745
0.00286426
-0.000684714
0.00324102
-0.000706439
0.00363186
-0.00072833
0.00403671
-0.00075005
0.00445517
-0.000771214
0.00488643
-0.000791054
0.00532942
-0.000809261
0.00578277
-0.00082514
0.00624454
-0.000838105
0.00671266
-0.000847638
0.00718448
-0.000853066
0.0076571
-0.000853874
0.00812705
-0.000849512
0.00859089
-0.000839521
0.0090448
-0.000823515
0.00948481
-0.000801086
0.00990678
-0.000772029
0.0103068
-0.000736321
0.0106808
-0.000693785
0.0110254
-0.000644902
0.0113369
-0.000589537
0.0116123
-0.000528327
0.0118487
-0.000461624
0.012044
-0.000390196
0.0121965
-0.00031455
0.0123046
-0.000235555
0.0123678
-0.0001541
0.0123864
-7.14365e-05
0.0123562
1.6419e-05
0.0122678
0.000112363
0.012126
0.000205177
0.0119337
0.000295978
0.0116938
0.000384134
0.0114092
0.000469195
0.0110828
0.000550602
0.010717
0.000628668
0.0103142
0.000702856
0.00987647
0.000773166
0.00940643
0.000839017
0.00890705
0.000899572
0.0083808
0.000955103
0.00783124
0.00100432
0.00726169
0.00104714
0.00667567
0.00108322
0.00607751
0.00111131
0.00547084
0.00113224
0.00486038
0.00114416
0.00424998
0.00114859
0.00364486
0.00114295
0.00304936
0.00112922
0.00246814
0.00110558
0.00190563
0.00107371
0.0013671
0.00103151
0.000856913
0.000980786
0.000379016
0.000921376
-6.17599e-05
0.000853097
-0.000461571
0.000776931
-0.000816245
0.000692822
-0.00112247
0.000601752
-0.00137669
0.000504139
-0.00157704
0.000401954
-0.00172119
0.000295458
-0.00180788
0.000186262
-0.00183507
7.42643e-05
-0.00180089
-4.36451e-05
-0.00170948
-0.000156554
-0.00156176
-0.000264659
-0.00136003
-0.000367891
-0.0011075
-0.000464985
-0.000808307
-0.000554701
-0.000467746
-0.000633973
-9.25398e-05
-0.000702156
0.000310601
-0.000757306
0.000734694
-0.000798502
0.00117145
-0.000823573
0.00161191
-0.000831994
0.00204698
-0.000822628
0.00246723
-0.000795536
0.00286278
-0.000749404
0.00322451
-0.000685739
0.00354312
-0.000604332
0.00381039
-0.000506845
0.00401842
-0.000394512
0.00416022
-0.000268729
0.00423102
-0.0001342
0.00422184
1.862e-05
0.0041311
0.000176766
0.00396108
0.00032954
0.00371411
0.000477023
0.00339406
0.000616509
0.00300619
0.000745863
0.00255836
0.000860466
0.00206056
0.000956391
0.00152436
0.00103021
0.00096359
0.00107793
0.00039277
0.00109763
-0.000171942
0.00108671
-0.000714179
0.00104418
-0.00121716
0.000969901
-0.00166457
0.00086488
-0.00204165
0.000731061
-0.00233546
0.000572708
-0.0025358
0.00039358
-0.00263465
0.000199736
-0.0026207
-1.23921e-05
-0.00249573
-0.00022934
-0.00226649
-0.000430621
-0.00193974
-0.000616092
-0.00152772
-0.000779328
-0.00104557
-0.000913177
-0.00051391
-0.00100955
4.56772e-05
-0.0010632
0.000608007
-0.0010694
0.00114699
-0.00102584
0.00163629
-0.000932002
0.00205136
-0.000791063
0.00236942
-0.000606958
0.00257244
-0.000388107
0.00264743
-0.00014488
0.00257839
0.00013228
0.00237029
0.000400052
0.00203334
0.000646856
0.00158127
0.00086589
0.00103596
0.00104389
0.000425358
0.00116942
-0.000217442
0.0012309
-0.000854491
0.00122072
-0.00144751
0.00113669
-0.00195911
0.000981632
-0.00235538
0.000761509
-0.00260867
0.00048865
-0.00270053
0.000180257
-0.00261187
-0.000167885
-0.00235235
-0.0004991
-0.00193643
-0.000798133
-0.00139015
-0.00104907
-0.000748144
-0.00123251
-5.57954e-05
-0.0013314
0.000634539
-0.00133144
0.00127393
-0.00123434
0.00181263
-0.00104234
0.00220771
-0.000768236
0.00242821
-0.000432777
0.00245463
-6.34245e-05
0.00227687
0.000336216
0.00191672
0.000687022
0.00140576
0.000979803
0.000787787
0.00118772
0.000119015
0.00129039
-0.000540182
0.00127526
-0.00112767
0.00114175
-0.00158983
0.00090505
-0.00188638
0.000588562
-0.00199209
0.000224937
-0.00189867
-0.000160718
-0.00162955
-0.000501279
-0.00122104
-0.000771365
-0.000725841
-0.000942046
-0.000207335
-0.00099324
0.000269482
-0.000918999
0.00064584
-0.000732286
0.000879433
-0.000462409
0.000945827
-0.000146738
0.000842446
0.000181242
0.00059898
0.000450372
0.000260072
0.0006342
-0.000114302
0.000705535
-0.000456577
0.000647482
-0.000707994
0.00047705
-0.000824435
0.000221731
-0.000779641
-8.6556e-05
-0.000582727
-0.000379936
-0.000266346
-0.000608917
0.000118
-0.000740547
0.000503373
-0.000745194
0.000824801
-0.000625174
0.00103083
-0.000406044
0.00109292
-0.000130688
0.00100448
0.000161182
0.00079626
0.0003941
0.000516031
0.000536836
0.000223266
0.000566616
-2.41122e-05
0.000485864
-0.000184036
0.000321802
-0.000239326
0.000125028
-0.000199367
-5.82221e-05
-9.92257e-05
-0.000176586
1.58579e-05
-0.000209966
9.9311e-05
-0.000154501
0.000123185
-4.68359e-05
8.23508e-05
7.24442e-05
0.000149188
6.74874e-05
-0.000620462
0.000141114
-0.000645
0.000221985
-0.000662887
0.000313584
-0.000686112
0.000419067
-0.00071454
0.000541839
-0.000748397
0.000684467
-0.000786545
0.000850417
-0.000829695
0.00104159
-0.000875882
0.00126073
-0.000925583
0.00150922
-0.000976816
0.00178799
-0.00102882
0.00209498
-0.0010782
0.00243145
-0.00112752
0.00279889
-0.0011767
0.00319746
-0.00122371
0.00362543
-0.00126607
0.00408032
-0.00130253
0.0045584
-0.00133115
0.00505528
-0.00135076
0.00556614
-0.00136037
0.00608535
-0.00135873
0.00660682
-0.00134498
0.00712458
-0.00131885
0.00763202
-0.00127947
0.00812335
-0.00122765
0.00859176
-0.0011622
0.00903216
-0.0010853
0.00943821
-0.000995579
0.00980411
-0.000894228
0.010124
-0.00078153
0.0103935
-0.00065965
0.0106092
-0.000530252
0.010769
-0.000395338
0.0108707
-0.000255867
0.0109138
-0.000114522
0.0109065
2.3748e-05
0.0108549
0.000163978
0.0107543
0.000305761
0.0106035
0.000446765
0.0104023
0.000585279
0.0101514
0.00072018
0.00985163
0.00085034
0.00950539
0.000974905
0.00911504
0.0010932
0.00868397
0.00120424
0.00821527
0.00130772
0.00771221
0.00140263
0.00717888
0.00148844
0.00661862
0.00156458
0.0060357
0.00163006
0.00543471
0.0016842
0.0048192
0.00172682
0.00419438
0.00175706
0.00356433
0.00177421
0.00293454
0.00177837
0.00230992
0.00176758
0.00169521
0.00174393
0.00109566
0.00170513
0.000517001
0.00165236
-3.62722e-05
0.00158479
-0.000558508
0.00150302
-0.00104379
0.00140666
-0.00148714
0.00129645
-0.00188361
0.0011734
-0.00222904
0.00103825
-0.00251959
0.000892301
-0.00275111
0.000735654
-0.00292109
0.000571942
-0.003027
0.00040136
-0.00306703
0.000226294
-0.00304037
4.76072e-05
-0.00294107
-0.000142941
-0.00277702
-0.00032061
-0.00254925
-0.000492424
-0.00226035
-0.000656789
-0.00191384
-0.000811497
-0.00151568
-0.00095286
-0.00107093
-0.00107873
-0.000587306
-0.00118578
-7.1912e-05
-0.0012727
0.000465011
-0.00133543
0.0010143
-0.00137286
0.0015648
-0.00138249
0.00210637
-0.0013642
0.00262733
-0.0013165
0.00311614
-0.00123821
0.00356194
-0.00113154
0.0039534
-0.000995798
0.00428154
-0.000834978
0.00453536
-0.000648332
0.00470997
-0.000443346
0.00479694
-0.000221168
0.00478755
2.80077e-05
0.00468189
0.000282425
0.00448166
0.000529776
0.00418889
0.000769795
0.00380781
0.000997589
0.00334508
0.00120859
0.0028105
0.00139505
0.0022166
0.00155029
0.00157717
0.00166964
0.000909486
0.00174562
0.000230752
0.00177637
-0.00043858
0.00175604
-0.00107908
0.00168468
-0.00167134
0.00156217
-0.00219636
0.0013899
-0.00263617
0.00117086
-0.00297443
0.000910972
-0.00319711
0.000616263
-0.0032952
0.00029782
-0.00325901
-4.85752e-05
-0.00309389
-0.000394461
-0.00280293
-0.000721587
-0.00239526
-0.00102376
-0.00188476
-0.00128983
-0.0012916
-0.00150634
-0.000638878
-0.00166227
4.62966e-05
-0.00174837
0.000732935
-0.00175604
0.00138928
-0.00168218
0.00198434
-0.00152707
0.00248748
-0.0012942
0.00287187
-0.00099135
0.00311511
-0.00063135
0.00320196
-0.000231728
0.0031173
0.000216933
0.00286802
0.000649334
0.00246154
0.00105334
0.00191699
0.00141044
0.00125994
0.00170094
0.00052571
0.00190365
-0.000245845
0.00200245
-0.00100855
0.00198343
-0.00171701
0.00184514
-0.00232579
0.00159041
-0.00279603
0.00123176
-0.00309391
0.000786522
-0.00319491
0.000281258
-0.0030855
-0.000277289
-0.00277365
-0.000810956
-0.00227583
-0.00129595
-0.00162352
-0.00170137
-0.000860518
-0.00199552
-3.91087e-05
-0.00215281
0.000778872
-0.00214942
0.00153048
-0.00198594
0.00215884
-0.0016707
0.00261482
-0.00122422
0.00285885
-0.000676802
0.00287072
-7.52918e-05
0.00264678
0.00056015
0.00220973
0.00112408
0.00159549
0.00159404
0.000859377
0.00192384
6.7509e-05
0.00208226
-0.000699482
0.00204225
-0.00137615
0.00181842
-0.001899
0.0014279
-0.00221969
0.000909247
-0.00231145
0.000316694
-0.00216946
-0.000302708
-0.00182168
-0.000849051
-0.00131304
-0.00128001
-0.000709147
-0.00154594
-8.48174e-05
-0.00161757
0.000474359
-0.00147817
0.000907093
-0.00116502
0.00116144
-0.00071676
0.00121138
-0.000196671
0.00105874
0.000333879
0.000739343
0.00076977
0.000309282
0.00106426
-0.000157756
0.00117257
-0.000579681
0.00106941
-0.000886434
0.000783803
-0.00102594
0.00036124
-0.000971042
-0.000141457
-0.000735404
-0.000615574
-0.000357995
-0.000986326
9.69549e-05
-0.0011955
0.000548209
-0.00119645
0.000918103
-0.000995067
0.00114672
-0.000634661
0.00120124
-0.000185213
0.00108059
0.000281834
0.00082182
0.000652873
0.000484272
0.000874384
0.00014053
0.000910358
-0.000136532
0.000762925
-0.000301449
0.00048672
-0.000337082
0.000160661
-0.000259854
-0.00013545
-0.000114573
-0.000321867
4.04456e-05
-0.000364985
0.000148047
-0.000262103
0.000173826
-7.26148e-05
0.000114225
0.000132045
0.000263413
-7.0797e-05
-0.000549664
-0.000120851
-0.000594945
-0.000149531
-0.000634207
-0.000145594
-0.000690048
-9.97192e-05
-0.000760414
-5.17675e-07
-0.000847598
0.000158053
-0.000945116
0.000384905
-0.00105655
0.000678629
-0.00116961
0.0010399
-0.00128685
0.00146436
-0.00140127
0.00195219
-0.00151666
0.00250081
-0.00162681
0.00310619
-0.0017329
0.00376311
-0.00183363
0.00446856
-0.00192915
0.00521819
-0.0020157
0.00600539
-0.00208972
0.00682224
-0.002148
0.00766132
-0.00218983
0.00851216
-0.00221121
0.0093641
-0.00221067
0.010204
-0.0021849
0.0110206
-0.00213545
0.0117994
-0.00205827
0.0125298
-0.00195805
0.0131969
-0.00182922
0.0137936
-0.00168203
0.0143063
-0.00150825
0.014734
-0.00132194
0.0150711
-0.00111861
0.015319
-0.000907617
0.0154782
-0.000689386
0.0155515
-0.000468668
0.015544
-0.000248412
0.0154633
-3.37837e-05
0.0152759
0.000211129
0.0150024
0.000437459
0.014655
0.000653187
0.0142422
0.000859562
0.0137712
0.00105633
0.0132471
0.00124423
0.012675
0.00142242
0.0120591
0.00159087
0.0114032
0.0017491
0.0107109
0.00189651
0.00998749
0.00203112
0.00923652
0.0021536
0.00846244
0.00226251
0.00766906
0.00235796
0.00686201
0.0024371
0.00604486
0.00250136
0.00522287
0.00254881
0.00440101
0.00257892
0.00358394
0.00259128
0.00277629
0.00258603
0.00198392
0.00255995
0.00121316
0.00251469
0.00046963
0.00244866
-0.000241279
0.00236327
-0.000913486
0.00225699
-0.00154098
0.00213051
-0.00211928
0.00198497
-0.00264172
0.00181888
-0.00310407
0.00163576
-0.00350111
0.00143529
-0.00382683
0.00121802
-0.00408082
0.000989644
-0.00425731
0.000748427
-0.00435434
0.000498393
-0.00437042
0.000242372
-0.00429559
-2.72171e-05
-0.00414665
-0.000291889
-0.00391758
-0.000549678
-0.00360994
-0.000800064
-0.00322843
-0.0010383
-0.00277773
-0.00126219
-0.0022641
-0.00146649
-0.00169521
-0.00164761
-0.00108057
-0.00180042
-0.000430139
-0.00192313
0.000244796
-0.00201036
0.00093265
-0.00206072
0.00162008
-0.00206992
0.00229422
-0.00203834
0.00294073
-0.001963
0.00354676
-0.00184424
0.00409794
-0.00168271
0.00458101
-0.00147887
0.00498469
-0.00123866
0.00529617
-0.000959808
0.00550854
-0.00065572
0.00561301
-0.000325635
0.00559985
4.11652e-05
0.00547051
0.000411761
0.00522565
0.000774638
0.00486734
0.0011281
0.00440091
0.00146402
0.00383503
0.00177447
0.00318214
0.00204794
0.00245744
0.00227499
0.00167895
0.00244813
0.000866629
0.00255794
4.38084e-05
0.00259919
-0.000767946
0.00256779
-0.00154296
0.00245969
-0.00225617
0.00227537
-0.00288415
0.00201788
-0.00340472
0.00169143
-0.00380031
0.00130657
-0.0040561
0.000872053
-0.00416039
0.000402105
-0.0040976
-0.000111361
-0.00387736
-0.000614707
-0.00350379
-0.00109516
-0.00298763
-0.00153992
-0.00234619
-0.00193127
-0.00160366
-0.00224887
-0.000790214
-0.00247571
6.09483e-05
-0.00259954
0.000911193
-0.00260629
0.00172264
-0.00249363
0.00245576
-0.00226018
0.00307561
-0.00191405
0.00354653
-0.00146227
0.00384293
-0.00092775
0.00394336
-0.00033215
0.00383803
0.000322258
0.00353034
0.000957023
0.00303034
0.00155334
0.00236009
0.00208069
0.00155306
0.00250796
0.000652753
0.00280396
-0.000291025
0.00294623
-0.00122268
0.00291509
-0.00208653
0.00270899
-0.00282599
0.00232987
-0.00339298
0.00179874
-0.00374878
0.00114232
-0.00386495
0.000397436
-0.00372444
-0.000417806
-0.00333855
-0.00119685
-0.00272823
-0.00190627
-0.00193123
-0.00249837
-0.00100317
-0.00292358
-9.41453e-06
-0.00314656
0.000975555
-0.00313439
0.00187766
-0.00288805
0.00262751
-0.00242055
0.00316041
-0.00175712
0.00343741
-0.000953798
0.00343284
-7.07256e-05
0.00314468
0.000848309
0.00260103
0.00166773
0.00184978
0.00234529
0.000956964
0.00281665
6.20856e-06
0.00303302
-0.000913139
0.00296159
-0.00171191
0.00261719
-0.00231666
0.00203265
-0.002671
0.00126359
-0.00274447
0.000390162
-0.00253873
-0.000508445
-0.00208607
-0.00130171
-0.00144617
-0.00191992
-0.000699513
-0.00229259
5.90185e-05
-0.0023761
0.000734417
-0.00215357
0.00124293
-0.00167354
0.0015251
-0.000998931
0.00155311
-0.000224676
0.00133583
0.000551159
0.000916149
0.00118945
0.000366576
0.00161383
-0.000221165
0.00176032
-0.000746275
0.00159452
-0.00112367
0.00116119
-0.0012917
0.000529273
-0.00122149
-0.000211668
-0.000930781
-0.000906281
-0.00046922
-0.00144789
8.20092e-05
-0.00174673
0.000622127
-0.00173657
0.00105755
-0.00143049
0.00131639
-0.000893499
0.00136094
-0.000229758
0.00119643
0.000446338
0.000869007
0.000980298
0.000454766
0.00128862
4.174e-05
0.00132338
-0.000275398
0.00108006
-0.000448654
0.000659975
-0.000459246
0.000171253
-0.000333097
-0.000261599
-0.000128685
-0.000526279
7.8598e-05
-0.000572268
0.000216997
-0.000400502
0.000244127
-9.97441e-05
0.00015822
0.000217952
0.000421633
-0.000469407
-8.02565e-05
-0.000923622
-0.000140729
-0.00135687
-0.000200961
-0.00175263
-0.000294284
-0.00209172
-0.00042132
-0.00235701
-0.000582308
-0.00255796
-0.000744166
-0.00268041
-0.000934098
-0.00275193
-0.00109809
-0.00274335
-0.00129542
-0.00263715
-0.00150747
-0.00241139
-0.00174242
-0.00205775
-0.00198045
-0.0015722
-0.00221846
-0.00095821
-0.00244762
-0.00022413
-0.00266323
0.000619213
-0.00285905
0.00155925
-0.00302976
0.00258029
-0.00316904
0.00366316
-0.0032727
0.00478658
-0.00333464
0.00593347
-0.00335756
0.0070805
-0.00333193
0.00820862
-0.00326357
0.00929171
-0.00314136
0.0103151
-0.00298143
0.0112497
-0.00276381
0.0120915
-0.00252382
0.0128107
-0.00222745
0.0134061
-0.00191738
0.0138713
-0.00158377
0.0142064
-0.00124273
0.0144152
-0.000898255
0.0145085
-0.000561879
0.0144953
-0.00023525
0.0143792
8.22962e-05
0.0141981
0.000392224
0.013944
0.000691614
0.0136184
0.00097871
0.013225
0.001253
0.0127681
0.00151321
0.0122525
0.00175984
0.0116831
0.00199181
0.011065
0.00220905
0.0104022
0.00241182
0.00970053
0.00259821
0.0089622
0.00276945
0.00819271
0.00292309
0.00739549
0.00305973
0.00657648
0.00317697
0.00573777
0.00327581
0.00488618
0.00335294
0.00402533
0.00340966
0.00316113
0.00344313
0.00229951
0.00345289
0.00144693
0.00343861
0.000609454
0.00339742
-0.000208514
0.00333265
-0.000999014
0.00323916
-0.00175475
0.00311901
-0.00246954
0.00297178
-0.00313507
0.00279605
-0.00374416
0.00259405
-0.00429134
0.00236606
-0.00476932
0.00211374
-0.00517375
0.00183972
-0.00549791
0.00154218
-0.00573719
0.00122892
-0.00588765
0.000898884
-0.00594591
0.000556653
-0.00591053
0.000206993
-0.00577372
-0.00016403
-0.00554487
-0.000520742
-0.00522329
-0.00087126
-0.00481142
-0.00121193
-0.00431354
-0.00153618
-0.00373576
-0.00183997
-0.00308521
-0.00211704
-0.00237233
-0.0023605
-0.00160675
-0.00256601
-0.000800362
-0.00272951
3.25366e-05
-0.00284326
0.000878224
-0.00290641
0.00172075
-0.00291244
0.00254479
-0.00286238
0.00333298
-0.0027512
0.00406998
-0.00258124
0.00473724
-0.00234998
0.00532238
-0.00206401
0.00580919
-0.00172547
0.00618362
-0.00133424
0.00643671
-0.00090881
0.00655843
-0.000447355
0.00653927
6.03259e-05
0.00638159
0.000569436
0.00608382
0.00107242
0.00564859
0.00156333
0.00508345
0.00202916
0.00439941
0.00245851
0.00361151
0.00283584
0.00273812
0.00314838
0.00180173
0.00338452
0.000825008
0.00353466
-0.00016332
0.00358751
-0.00113369
0.00353816
-0.00205776
0.00338376
-0.00290733
0.00312495
-0.00365423
0.00276478
-0.00427176
0.00230896
-0.00473438
0.00176919
-0.00502286
0.00116054
-0.00512473
0.000503975
-0.00503405
-0.00020204
-0.0047522
-0.000896561
-0.00428485
-0.00156251
-0.00364416
-0.00218061
-0.00285383
-0.0027216
-0.00194361
-0.0031591
-0.000948988
-0.00347033
8.97944e-05
-0.00363832
0.00112547
-0.00364196
0.0021105
-0.00347866
0.00299979
-0.00314947
0.00374765
-0.00266191
0.00431611
-0.00203074
0.0046701
-0.00128174
0.00478648
-0.000448524
0.00465449
0.000454246
0.00427666
0.00133485
0.00366851
0.00216149
0.00285335
0.00289585
0.00187483
0.00348648
0.000784613
0.00389418
-0.00035319
0.00408404
-0.00147557
0.00403747
-0.0025116
0.00374502
-0.00339708
0.00321535
-0.00407127
0.00247293
-0.00448826
0.00155931
-0.00461937
0.000528553
-0.00444292
-0.000594257
-0.00397203
-0.00166774
-0.00323274
-0.00264556
-0.00227265
-0.00345847
-0.00115703
-0.0040392
3.29256e-05
-0.00433652
0.00120866
-0.00431012
0.00227886
-0.00395825
0.00315872
-0.00330042
0.00378327
-0.00238167
0.00409432
-0.00126484
0.00405878
-3.51878e-05
0.00369911
0.00120798
0.00303319
0.00233365
0.00212355
0.00325493
0.00105248
0.00388772
-7.99378e-05
0.00416543
-0.00116521
0.00404687
-0.00210012
0.0035521
-0.00279447
0.00272699
-0.00318371
0.00165284
-0.00323418
0.000440633
-0.00295322
-0.000789405
-0.00238017
-0.00187476
-0.0015895
-0.00271059
-0.000680879
-0.00320122
0.000231539
-0.00328852
0.00103332
-0.00295535
0.00162347
-0.00226369
0.00193403
-0.00130949
0.00193481
-0.000225463
0.00164137
0.000844598
0.00110658
0.00172424
0.000421487
0.00229893
-0.000302288
0.00248409
-0.000942103
0.00223433
-0.00139595
0.00161504
-0.00159293
0.000726251
-0.00150087
-0.000303723
-0.00114359
-0.00126356
-0.000584505
-0.00200697
7.60168e-05
-0.00240725
0.000716421
-0.00237697
0.00122458
-0.00193866
0.00151591
-0.00118482
0.00154635
-0.000260197
0.00132991
0.00066277
0.000923326
0.00138689
0.00042171
0.00179024
-6.27544e-05
0.00180785
-0.000430255
0.00144756
-0.000612194
0.000841914
-0.000592833
0.000151892
-0.000409618
-0.000444814
-0.000137177
-0.00079872
0.000129487
-0.000838932
0.000301879
-0.000572894
0.000328664
-0.000126529
0.000210516
0.0003361
0.000632149
-0.0014147
0.00133444
-0.00279058
0.00123516
-0.00407414
0.0010826
-0.00520343
0.000835001
-0.00611778
0.000493035
-0.00668149
-1.85995e-05
-0.00699674
-0.000428917
-0.00696833
-0.000962504
-0.00674948
-0.00131694
-0.00630033
-0.00174458
-0.00568589
-0.00212191
-0.00491358
-0.00251473
-0.00399657
-0.00289746
-0.00293769
-0.00327734
-0.00173854
-0.00364677
-0.000400696
-0.00400107
0.00106913
-0.00432887
0.00266055
-0.00462118
0.00435399
-0.00486249
0.00612981
-0.00504851
0.00795849
-0.00516332
0.00981053
-0.0052096
0.0116417
-0.00516308
0.0134235
-0.00504543
0.015094
-0.00481186
0.0166395
-0.00452691
0.0179628
-0.00408709
0.0191221
-0.00368311
0.0199555
-0.00306092
0.0205502
-0.002512
0.0208736
-0.00190716
0.0209828
-0.00135201
0.0209053
-0.000820687
0.0206762
-0.000332812
0.0202954
0.00014553
0.0197848
0.000592891
0.0191728
0.00100427
0.0184789
0.0013855
0.0177187
0.00173895
0.016904
0.00206767
0.0160449
0.0023723
0.0151487
0.00265603
0.0142216
0.00291896
0.0132675
0.00316309
0.0122911
0.00338827
0.0112958
0.00359352
0.0102844
0.0037808
0.00925907
0.00394843
0.00822317
0.00409563
0.00717924
0.0042209
0.0061307
0.00432435
0.00508095
0.0044027
0.00403462
0.00445598
0.00299558
0.00448217
0.00196967
0.00447879
0.000961386
0.0044469
-2.22426e-05
0.00438105
-0.000974847
0.00428526
-0.00188807
0.00415238
-0.00275814
0.00398909
-0.00357393
0.00378756
-0.00433089
0.003553
-0.0050205
0.00328367
-0.00563519
0.00298075
-0.00616894
0.00264749
-0.00661213
0.00228291
-0.00696337
0.00189342
-0.00721226
0.00147781
-0.00735601
0.00104264
-0.00739057
0.00059121
-0.00731179
0.00012821
-0.0071297
-0.000346121
-0.00683728
-0.00081316
-0.00643501
-0.00127353
-0.00592715
-0.00171979
-0.00531987
-0.00214346
-0.00461959
-0.00254025
-0.00383705
-0.00289958
-0.00298131
-0.00321624
-0.00206711
-0.0034802
-0.00110674
-0.00368989
-0.000117107
-0.00383289
0.000885906
-0.00390942
0.00188282
-0.00390936
0.00285616
-0.00383572
0.00378549
-0.00368053
0.00465256
-0.00344831
0.00543676
-0.00313418
0.00612192
-0.00274917
0.00669041
-0.00229395
0.00712555
-0.00176939
0.00741646
-0.00119972
0.00755252
-0.000583417
0.00752448
8.83651e-05
0.00733329
0.000760629
0.00697702
0.00142869
0.00645978
0.00208057
0.00579061
0.00269833
0.00498237
0.00326675
0.0040527
0.00376551
0.00302485
0.00417624
0.00192174
0.00448762
0.000778444
0.00467796
-0.000380298
0.00474626
-0.00151839
0.00467625
-0.00259868
0.00446406
-0.00358692
0.00411318
-0.00444995
0.00362781
-0.00515838
0.00301739
-0.00568455
0.00229536
-0.00601288
0.00148886
-0.00612054
0.000611633
-0.00599671
-0.000325875
-0.00564683
-0.00124644
-0.00507826
-0.00213107
-0.00430923
-0.00294964
-0.00336431
-0.00366651
-0.00227937
-0.00424404
-0.00109602
-0.00465368
0.000134225
-0.00486856
0.00136085
-0.00486859
0.00252503
-0.00464284
0.00357131
-0.00419575
0.00445049
-0.00354109
0.00511497
-0.00269521
0.00552644
-0.00169322
0.00565726
-0.00057934
0.00549468
0.000616831
0.00504468
0.00178485
0.00431808
0.00288809
0.00335543
0.0038585
0.00220047
0.00464145
0.000915218
0.00517943
-0.000426319
0.00542557
-0.00174496
0.00535611
-0.0029576
0.00495766
-0.00399126
0.004249
-0.00477735
0.00325902
-0.00525563
0.00203759
-0.00539371
0.000666634
-0.00517747
-0.000810497
-0.00461639
-0.00222882
-0.00373923
-0.00352273
-0.0026078
-0.0045899
-0.00130077
-0.00534623
8.94245e-05
-0.00572671
0.0014554
-0.0056761
0.00269672
-0.00519956
0.00371346
-0.00431716
0.00441838
-0.00308659
0.00476148
-0.00160795
0.0047024
2.38927e-05
0.00426069
0.00164969
0.00346632
0.00312802
0.00239081
0.00433044
0.0011356
0.00514294
-0.000184006
0.00548503
-0.00143969
0.00530256
-0.00250959
0.00462199
-0.00329093
0.00350833
-0.00371123
0.00207313
-0.00373424
0.000463642
-0.00337155
-0.00115209
-0.00267021
-0.00257611
-0.00172274
-0.00365806
-0.000648452
-0.0042755
0.00042134
-0.00435831
0.00134744
-0.00388145
0.00201866
-0.0029349
0.00235547
-0.0016463
0.00232435
-0.000194346
0.0019481
0.00122085
0.00129285
0.00237949
0.000466411
0.00312536
-0.000395619
0.00334612
-0.00115156
0.00299027
-0.00168124
0.00214472
-0.00190289
0.000947898
-0.00178634
-0.000420273
-0.00135773
-0.00169217
-0.000696235
-0.00266847
7.87287e-05
-0.00318221
0.000821723
-0.00311997
0.00140315
-0.00252009
0.00172494
-0.00150661
0.00173904
-0.00027429
0.00146536
0.000936443
0.000974445
0.0018778
0.000381572
0.00238311
-0.000180568
0.00236999
-0.000593631
0.00186063
-0.000781222
0.0010295
-0.000728165
9.88358e-05
-0.000482599
-0.000690381
-0.000137781
-0.00114354
0.00019053
-0.00116724
0.000397279
-0.000779643
0.000422086
-0.000151336
0.0002679
0.000490286
0.000900048
-0.0023494
0.00368384
-0.00462154
0.0035073
-0.00668365
0.00314471
-0.00838503
0.00253639
-0.00957811
0.00168611
-0.0102366
0.000639919
-0.0104322
-0.000233378
-0.0103188
-0.00107591
-0.0110689
-0.000566762
-0.0119197
-0.000893813
-0.0124623
-0.00157931
-0.012508
-0.00246907
-0.0120439
-0.00336156
-0.0111026
-0.00421864
-0.00973291
-0.00501642
-0.00799082
-0.00574316
-0.005939
-0.00638069
-0.00364406
-0.00691612
-0.00116803
-0.00733852
0.00142357
-0.00764011
0.00406341
-0.00780316
0.00672435
-0.00787054
0.00933685
-0.00777558
0.0118634
-0.00757197
0.0142149
-0.0071634
0.0163823
-0.00669424
0.0182264
-0.0059312
0.0198314
-0.00528818
0.020846
-0.00407551
0.0213922
-0.00305818
0.0215391
-0.00205404
0.0213936
-0.00120653
0.0210415
-0.000468571
0.020506
0.000202629
0.0198683
0.000783305
0.0191623
0.00129883
0.0184056
0.001761
0.0176096
0.00218153
0.0167835
0.00256502
0.0159323
0.00291887
0.0150576
0.00324703
0.0141622
0.00355143
0.013246
0.00383516
0.012309
0.00410001
0.0113524
0.00434493
0.0103754
0.00457051
0.00937823
0.00477797
0.00836228
0.00496438
0.00732946
0.00512845
0.00628168
0.00526869
0.00522059
0.00538544
0.00415055
0.00547273
0.00307803
0.00552851
0.00200681
0.0055534
0.000941242
0.00554436
-0.000111497
0.00549964
-0.0011408
0.00541035
-0.00214158
0.00528604
-0.00310492
0.00511573
-0.00402429
0.00490846
-0.00488793
0.00465121
-0.00568768
0.00435275