/*--------------------------------*- C++ -*----------------------------------*\
  =========                 |
  \\      /  F ield         | OpenFOAM: The Open Source CFD Toolbox
   \\    /   O peration     | Website:  https://openfoam.org
    \\  /    A nd           | Version:  12
     \\/     M anipulation  |
\*---------------------------------------------------------------------------*/
FoamFile
{
    format      ascii;
    class       volSymmTensorField;
    location    "2200";
    object      R;
}
// * * * * * * * * * * * * * * * * * * * * * * * * * * * * * * * * * * * * * //

dimensions      [0 2 -2 0 0 0 0];

internalField   nonuniform List<symmTensor> 
80
(
(0.43097 -0.59438 -0 0.43097 -0 0.43097)
(0.429251 -0.198523 -0 0.429251 -0 0.429251)
(0.408091 -0.184877 -0 0.408091 -0 0.408091)
(0.391372 -0.177831 -0 0.391372 -0 0.391372)
(0.376863 -0.171942 -0 0.376863 -0 0.376863)
(0.363495 -0.166465 -0 0.363495 -0 0.363495)
(0.350772 -0.161135 -0 0.350772 -0 0.350772)
(0.338444 -0.155844 -0 0.338444 -0 0.338444)
(0.32638 -0.150544 -0 0.32638 -0 0.32638)
(0.314505 -0.145213 -0 0.314505 -0 0.314505)
(0.30278 -0.139844 -0 0.30278 -0 0.30278)
(0.291186 -0.134434 -0 0.291186 -0 0.291186)
(0.279715 -0.128988 -0 0.279715 -0 0.279715)
(0.268368 -0.123512 -0 0.268368 -0 0.268368)
(0.257155 -0.118014 -0 0.257155 -0 0.257155)
(0.246088 -0.112504 -0 0.246088 -0 0.246088)
(0.235185 -0.106994 -0 0.235185 -0 0.235185)
(0.224464 -0.101495 -0 0.224464 -0 0.224464)
(0.213949 -0.0960192 -0 0.213949 -0 0.213949)
(0.203664 -0.090579 -0 0.203664 -0 0.203664)
(0.193638 -0.0851867 -0 0.193638 -0 0.193638)
(0.183899 -0.0798541 -0 0.183899 -0 0.183899)
(0.174477 -0.074593 -0 0.174477 -0 0.174477)
(0.165407 -0.0694145 -0 0.165407 -0 0.165407)
(0.15672 -0.064329 -0 0.15672 -0 0.15672)
(0.148451 -0.0593458 -0 0.148451 -0 0.148451)
(0.140633 -0.0544734 -0 0.140633 -0 0.140633)
(0.1333 -0.049719 -0 0.1333 -0 0.1333)
(0.126481 -0.0450882 -0 0.126481 -0 0.126481)
(0.120205 -0.0405852 -0 0.120205 -0 0.120205)
(0.114492 -0.0362118 -0 0.114492 -0 0.114492)
(0.10936 -0.0319678 -0 0.10936 -0 0.10936)
(0.10482 -0.0278504 -0 0.10482 -0 0.10482)
(0.100875 -0.0238541 -0 0.100875 -0 0.100875)
(0.0975215 -0.0199706 -0 0.0975215 -0 0.0975215)
(0.0947534 -0.0161888 -0 0.0947534 -0 0.0947534)
(0.0925597 -0.0124946 -0 0.0925597 -0 0.0925597)
(0.0909282 -0.00887171 -0 0.0909282 -0 0.0909282)
(0.0898479 -0.0053014 -0 0.0898479 -0 0.0898479)
(0.0893101 -0.00176337 -0 0.0893101 -0 0.0893101)
(0.0893101 0.00176377 -0 0.0893101 -0 0.0893101)
(0.089848 0.0053018 -0 0.089848 -0 0.089848)
(0.0909284 0.0088721 -0 0.0909284 -0 0.0909284)
(0.0925598 0.012495 -0 0.0925598 -0 0.0925598)
(0.0947536 0.0161892 -0 0.0947536 -0 0.0947536)
(0.0975217 0.019971 -0 0.0975217 -0 0.0975217)
(0.100875 0.0238545 -0 0.100875 -0 0.100875)
(0.10482 0.0278507 -0 0.10482 -0 0.10482)
(0.109361 0.0319681 -0 0.109361 -0 0.109361)
(0.114492 0.0362121 -0 0.114492 -0 0.114492)
(0.120205 0.0405854 -0 0.120205 -0 0.120205)
(0.126482 0.0450885 -0 0.126482 -0 0.126482)
(0.1333 0.0497192 -0 0.1333 -0 0.1333)
(0.140633 0.0544736 -0 0.140633 -0 0.140633)
(0.148451 0.0593459 -0 0.148451 -0 0.148451)
(0.15672 0.0643291 -0 0.15672 -0 0.15672)
(0.165407 0.0694147 -0 0.165407 -0 0.165407)
(0.174478 0.0745932 -0 0.174478 -0 0.174478)
(0.183899 0.0798542 -0 0.183899 -0 0.183899)
(0.193638 0.0851867 -0 0.193638 -0 0.193638)
(0.203665 0.0905791 -0 0.203665 -0 0.203665)
(0.213949 0.0960193 -0 0.213949 -0 0.213949)
(0.224464 0.101495 -0 0.224464 -0 0.224464)
(0.235185 0.106994 -0 0.235185 -0 0.235185)
(0.246089 0.112504 -0 0.246089 -0 0.246089)
(0.257155 0.118014 -0 0.257155 -0 0.257155)
(0.268368 0.123511 -0 0.268368 -0 0.268368)
(0.279715 0.128988 -0 0.279715 -0 0.279715)
(0.291186 0.134434 -0 0.291186 -0 0.291186)
(0.30278 0.139844 -0 0.30278 -0 0.30278)
(0.314505 0.145213 -0 0.314505 -0 0.314505)
(0.32638 0.150544 -0 0.32638 -0 0.32638)
(0.338444 0.155844 -0 0.338444 -0 0.338444)
(0.350772 0.161135 -0 0.350772 -0 0.350772)
(0.363495 0.166465 -0 0.363495 -0 0.363495)
(0.376863 0.171942 -0 0.376863 -0 0.376863)
(0.391372 0.177831 -0 0.391372 -0 0.391372)
(0.408091 0.184877 -0 0.408091 -0 0.408091)
(0.429251 0.198523 -0 0.429251 -0 0.429251)
(0.43097 0.59438 -0 0.43097 -0 0.43097)
)
;

boundaryField
{
    lowerWall
    {
        type            calculated;
        value           uniform (0.43097 -0.0978416 -0 0.43097 -0 0.43097);
    }
    upperWall
    {
        type            calculated;
        value           uniform (0.43097 0.0978416 -0 0.43097 -0 0.43097);
    }
    front
    {
        type            cyclic;
    }
    back
    {
        type            cyclic;
    }
    defaultFaces
    {
        type            empty;
    }
}


// ************************************************************************* //
