/*--------------------------------*- C++ -*----------------------------------*\
  =========                 |
  \\      /  F ield         | OpenFOAM: The Open Source CFD Toolbox
   \\    /   O peration     | Website:  https://openfoam.org
    \\  /    A nd           | Version:  12
     \\/     M anipulation  |
\*---------------------------------------------------------------------------*/
FoamFile
{
    format      ascii;
    class       volVectorField;
    location    "2200";
    object      U;
}
// * * * * * * * * * * * * * * * * * * * * * * * * * * * * * * * * * * * * * //

dimensions      [0 1 -1 0 0 0 0];

internalField   nonuniform List<vector> 
80
(
(6.01842 0 0)
(7.14941 0 0)
(7.75737 0 0)
(8.17113 0 0)
(8.48488 0 0)
(8.73835 0 0)
(8.9516 0 0)
(9.13611 0 0)
(9.29898 0 0)
(9.44491 0 0)
(9.57716 0 0)
(9.69807 0 0)
(9.80937 0 0)
(9.91236 0 0)
(10.0081 0 0)
(10.0973 0 0)
(10.1806 0 0)
(10.2586 0 0)
(10.3316 0 0)
(10.3999 0 0)
(10.4639 0 0)
(10.5238 0 0)
(10.5797 0 0)
(10.6317 0 0)
(10.68 0 0)
(10.7246 0 0)
(10.7657 0 0)
(10.8033 0 0)
(10.8374 0 0)
(10.8682 0 0)
(10.8957 0 0)
(10.9199 0 0)
(10.9411 0 0)
(10.9592 0 0)
(10.9745 0 0)
(10.9869 0 0)
(10.9967 0 0)
(11.0039 0 0)
(11.0087 0 0)
(11.0111 0 0)
(11.0111 0 0)
(11.0087 0 0)
(11.0039 0 0)
(10.9967 0 0)
(10.9869 0 0)
(10.9745 0 0)
(10.9592 0 0)
(10.9411 0 0)
(10.9199 0 0)
(10.8957 0 0)
(10.8682 0 0)
(10.8374 0 0)
(10.8033 0 0)
(10.7657 0 0)
(10.7246 0 0)
(10.68 0 0)
(10.6317 0 0)
(10.5797 0 0)
(10.5238 0 0)
(10.4639 0 0)
(10.3999 0 0)
(10.3316 0 0)
(10.2586 0 0)
(10.1806 0 0)
(10.0973 0 0)
(10.0081 0 0)
(9.91236 0 0)
(9.80936 0 0)
(9.69807 0 0)
(9.57716 0 0)
(9.44491 0 0)
(9.29898 0 0)
(9.13611 0 0)
(8.9516 0 0)
(8.73835 0 0)
(8.48488 0 0)
(8.17113 0 0)
(7.75737 0 0)
(7.14941 0 0)
(6.01842 0 0)
)
;

boundaryField
{
    lowerWall
    {
        type            noSlip;
    }
    upperWall
    {
        type            noSlip;
    }
    front
    {
        type            cyclic;
    }
    back
    {
        type            cyclic;
    }
    defaultFaces
    {
        type            empty;
    }
}


// ************************************************************************* //
