/*--------------------------------*- C++ -*----------------------------------*\
  =========                 |
  \\      /  F ield         | OpenFOAM: The Open Source CFD Toolbox
   \\    /   O peration     | Website:  https://openfoam.org
    \\  /    A nd           | Version:  12
     \\/     M anipulation  |
\*---------------------------------------------------------------------------*/
FoamFile
{
    format      ascii;
    class       surfaceScalarField;
    location    "13.06";
    object      phi;
}
// * * * * * * * * * * * * * * * * * * * * * * * * * * * * * * * * * * * * * //

dimensions      [1 0 -1 0 0 0 0];

internalField   nonuniform List<scalar> 
7429
(
3.43634e-05
-3.43636e-05
7.1028e-05
-3.66648e-05
0.000108044
-3.7016e-05
0.000145148
-3.71049e-05
0.00018202
-3.68716e-05
0.000218293
-3.62739e-05
0.0002536
-3.53064e-05
0.000287601
-3.40022e-05
0.000319995
-3.23941e-05
0.000350515
-3.05204e-05
0.000378997
-2.84817e-05
0.000405333
-2.63366e-05
0.000429605
-2.42721e-05
0.000451956
-2.23515e-05
0.000472787
-2.08313e-05
0.00049259
-1.98027e-05
0.000512073
-1.94839e-05
0.000532028
-1.99551e-05
0.000553384
-2.13563e-05
0.000577107
-2.37224e-05
0.000604234
-2.71277e-05
0.000635796
-3.15619e-05
0.000672815
-3.70191e-05
0.000716212
-4.33976e-05
0.000766817
-5.06047e-05
0.000825326
-5.85096e-05
0.000892347
-6.70207e-05
0.000968287
-7.59408e-05
0.00105338
-8.50879e-05
0.00114772
-9.43463e-05
0.00125119
-0.000103472
0.00136348
-0.000112289
0.00148411
-0.000120632
0.00161239
-0.000128274
0.00174739
-0.000135002
0.00188803
-0.000140641
0.00203295
-0.000144922
0.00218089
-0.000147936
0.0023307
-0.00014981
0.00248142
-0.00015072
0.00263164
-0.000150223
0.00277915
-0.000147509
0.00292226
-0.000143106
0.00305896
-0.000136698
0.00318709
-0.000128133
0.00330479
-0.000117697
0.003409
-0.000104218
0.00349862
-8.96206e-05
0.00357086
-7.22338e-05
0.00362308
-5.22259e-05
0.00365319
-3.01029e-05
0.00365852
-5.33347e-06
0.0036358
2.27171e-05
0.00358451
5.12948e-05
0.00350422
8.02939e-05
0.00339413
0.000110084
0.00325444
0.000139694
0.00308522
0.000169222
0.00288733
0.000197885
0.00266131
0.00022602
0.00240873
0.000252578
0.00213056
0.000278169
0.00182893
0.000301633
0.00150599
0.000322937
0.00116449
0.000341507
0.000807609
0.000356879
0.000439007
0.000368602
6.25809e-05
0.000376426
-0.000316712
0.000379293
-0.000694507
0.000377796
-0.00106592
0.000371413
-0.00142558
0.000359656
-0.00176821
0.000342635
-0.00208859
0.000320375
-0.00238156
0.00029297
-0.0026415
0.000259941
-0.00286424
0.000222739
-0.00304483
0.000180592
-0.00317984
0.000135013
-0.00326581
8.59734e-05
-0.00330118
3.53661e-05
-0.00327728
-2.38983e-05
-0.00319441
-8.28748e-05
-0.00305458
-0.00013983
-0.00286047
-0.000194104
-0.00261478
-0.000245695
-0.0023215
-0.00029328
-0.00198484
-0.000336657
-0.00161042
-0.000374417
-0.00120493
-0.000405493
-0.000776267
-0.000428664
-0.000333342
-0.000442924
0.000114255
-0.000447597
0.000556352
-0.000442098
0.000982286
-0.000425934
0.00138133
-0.000399043
0.00174307
-0.000361744
0.0020574
-0.000314324
0.00231505
-0.000257651
0.00250811
-0.000193066
0.00262997
-0.000121851
0.00267597
-4.60086e-05
0.00263549
4.04835e-05
0.00251129
0.000124201
0.0023078
0.000203488
0.00203066
0.000277139
0.00168643
0.000344233
0.00128407
0.000402357
0.000835385
0.000448688
0.000353929
0.000481456
-0.000144544
0.000498473
-0.000642849
0.000498305
-0.00112332
0.000480471
-0.00156792
0.000444597
-0.00195915
0.00039123
-0.00228106
0.000321916
-0.00251961
0.000238544
-0.0026637
0.000144095
-0.00270629
4.25867e-05
-0.00263167
-7.46171e-05
-0.00244729
-0.000184377
-0.00216124
-0.000286059
-0.00178419
-0.000377041
-0.00132936
-0.000454834
-0.000815492
-0.000513868
-0.000263983
-0.000551509
0.000299466
-0.000563449
0.000849057
-0.000549591
0.00135776
-0.000508705
0.00180026
-0.000442497
0.00215326
-0.000353004
0.00239788
-0.000244622
0.00252083
-0.000122949
0.0025099
1.09341e-05
0.00236184
0.000148064
0.00209018
0.000271651
0.00171022
0.000379963
0.00124268
0.000467539
0.000714333
0.000528348
0.000157086
0.000557247
-0.000394579
0.000551665
-0.000905953
0.000511374
-0.00134401
0.000438058
-0.00168151
0.000337498
-0.00189715
0.00021564
-0.00197942
8.227e-05
-0.00191699
-6.24337e-05
-0.00172417
-0.000192816
-0.00142098
-0.000303186
-0.00103407
-0.000386912
-0.000597608
-0.000436463
-0.000150502
-0.000447106
0.000266664
-0.000417166
0.000616285
-0.000349621
0.000867121
-0.000250836
0.000997287
-0.000130165
0.000994019
3.26806e-06
0.000856828
0.000137191
0.000608159
0.000248669
0.000275435
0.000332723
-0.000104948
0.000380383
-0.000489531
0.000384583
-0.000834622
0.000345092
-0.00110151
0.000266883
-0.00126008
0.000158578
-0.00129407
3.39859e-05
-0.0011918
-0.00010227
-0.000975706
-0.000216094
-0.000673393
-0.000302313
-0.000323464
-0.000349929
2.9476e-05
-0.00035294
0.000338862
-0.000309386
0.000566552
-0.00022769
0.000686203
-0.000119651
0.000685697
5.053e-07
0.000569997
0.0001157
0.000366349
0.000203648
0.000110205
0.000256143
-0.000154781
0.000264986
-0.00038351
0.000228729
-0.000539202
0.000155693
-0.000598662
5.94594e-05
-0.000551468
-4.71936e-05
-0.000411416
-0.000140052
-0.000203925
-0.000207491
3.49769e-05
-0.000238902
0.000264501
-0.000229524
0.000448379
-0.000183878
0.000559966
-0.000111587
0.000586897
-2.69313e-05
0.000531106
5.5791e-05
0.000410056
0.00012105
0.000249912
0.000160143
8.2669e-05
0.000167243
-6.09306e-05
0.0001436
-0.000158685
9.77543e-05
-0.000197259
3.85739e-05
-0.000174436
-2.28229e-05
-0.00010169
-7.2746e-05
-0.00010169
9.67131e-05
-0.000131077
0.000198993
-0.000138946
0.000300852
-0.000138875
0.000401462
-0.000137715
0.000500091
-0.000135501
0.000596075
-0.000132258
0.00068867
-0.000127902
0.000777251
-0.000122583
0.000861195
-0.000116338
0.000940167
-0.000109493
0.00101393
-0.000102242
0.00108248
-9.48922e-05
0.00114614
-8.79336e-05
0.00120518
-8.13933e-05
0.00125977
-7.54154e-05
0.00131005
-7.00841e-05
0.00135628
-6.57164e-05
0.0013988
-6.24689e-05
0.00143811
-6.06709e-05
0.00147496
-6.05718e-05
0.00151038
-6.25514e-05
0.0015458
-6.69756e-05
0.00158292
-7.41477e-05
0.0016238
-8.42784e-05
0.00167005
-9.68547e-05
0.00172288
-0.000111332
0.00178276
-0.000126909
0.00184984
-0.00014302
0.00192334
-0.000158581
0.00200309
-0.000174102
0.00209059
-0.000190966
0.00218673
-0.000208435
0.00229173
-0.000225626
0.00240545
-0.000242
0.00252749
-0.000257044
0.00265726
-0.000270407
0.00279373
-0.000281387
0.00293563
-0.000289839
0.00308109
-0.00029527
0.00322778
-0.000297416
0.00337351
-0.000295947
0.00351656
-0.000290561
0.0036545
-0.000281042
0.003785
-0.000267205
0.00390569
-0.000248822
0.00401394
-0.00022594
0.00410805
-0.000198333
0.00418529
-0.000166855
0.00424378
-0.000130729
0.00428208
-9.05265e-05
0.00429884
-4.68589e-05
0.00428272
1.07868e-05
0.00423473
7.07075e-05
0.00415567
0.000130349
0.00404559
0.000190381
0.00390463
0.000251041
0.00373298
0.000311347
0.00353086
0.000371339
0.00329896
0.000429789
0.00303791
0.000487065
0.00274878
0.000541705
0.00243303
0.000593926
0.00209229
0.000642374
0.00172916
0.000686067
0.00134653
0.000724134
0.000947975
0.000755435
0.000537361
0.000779216
0.000119185
0.000794601
-0.000301606
0.000800085
-0.000719782
0.000795972
-0.00113014
0.000781769
-0.00152678
0.000756301
-0.00190387
0.000719725
-0.00225581
0.000672311
-0.00257674
0.000613903
-0.00286121
0.000544408
-0.00310386
0.000465393
-0.00330016
0.00037689
-0.00344546
0.000280314
-0.00353613
0.000176638
-0.00357026
6.95022e-05
-0.00353985
-5.43153e-05
-0.0034469
-0.000175818
-0.00329295
-0.000293783
-0.0030798
-0.000407256
-0.00281011
-0.000515385
-0.00248764
-0.000615748
-0.00211747
-0.000706824
-0.00170598
-0.000785905
-0.00126055
-0.000850925
-0.000790135
-0.00089908
-0.000304394
-0.000928666
0.000185788
-0.000937778
0.000669441
-0.000925751
0.00113465
-0.000891142
0.00156984
-0.000834236
0.00196357
-0.000755475
0.00230461
-0.000655367
0.00258278
-0.000535816
0.00278926
-0.000399543
0.00291676
-0.000249354
0.00296222
-9.14695e-05
0.00291262
9.00796e-05
0.00277354
0.000263279
0.00254851
0.000428522
0.00224232
0.000583329
0.00186246
0.000724096
0.00141921
0.000845609
0.000925432
0.000942461
0.000396655
0.00101023
-0.000150169
0.0010453
-0.000695909
0.00104405
-0.00122146
0.00100602
-0.00170662
0.000929758
-0.00213271
0.000817322
-0.00248188
0.000671081
-0.00273887
0.000495533
-0.00289187
0.000297097
-0.00293309
8.38123e-05
-0.00284941
-0.000158301
-0.0026482
-0.000385583
-0.00233682
-0.00059744
-0.00192578
-0.00078808
-0.00143047
-0.000950153
-0.000871817
-0.00107252
-0.00027338
-0.00114995
0.00033737
-0.0011742
0.000931054
-0.00114328
0.00147878
-0.00105643
0.00195314
-0.000916866
0.002328
-0.000727862
0.00258505
-0.000501667
0.00270739
-0.000245291
0.0026841
3.42282e-05
0.00251688
0.000315278
0.0022169
0.000571629
0.0018
0.000796869
0.00128913
0.000978407
0.000715348
0.00110213
0.000113014
0.00115958
-0.000478772
0.00114345
-0.00102349
0.00105609
-0.0014862
0.000900774
-0.00183651
0.000687803
-0.00205256
0.000431687
-0.00212222
0.000151929
-0.00203669
-0.00014796
-0.00181178
-0.000417725
-0.0014679
-0.000647064
-0.00103537
-0.00081944
-0.000552544
-0.000919293
-6.12772e-05
-0.000938373
0.000391478
-0.000869921
0.000767034
-0.000725178
0.00103151
-0.000515315
0.00116271
-0.000261363
0.00114524
2.0736e-05
0.000986475
0.000295959
0.000706478
0.000528666
0.000335561
0.000703641
-8.41501e-05
0.000800094
-0.000505342
0.000805775
-0.000880222
0.000719971
-0.00116639
0.00055305
-0.00133253
0.000324725
-0.0013599
6.13559e-05
-0.0012433
-0.000218878
-0.00100362
-0.000455767
-0.000671938
-0.000633999
-0.000291206
-0.000730661
8.87575e-05
-0.000732904
0.000418125
-0.000638754
0.000655633
-0.000465197
0.000773872
-0.00023789
0.00075924
1.51367e-05
0.000623699
0.000251242
0.000393842
0.000433505
0.000110072
0.000539913
-0.000179554
0.000554612
-0.000426276
0.000475452
-0.000590868
0.000320284
-0.000649667
0.000118258
-0.000594086
-0.000102774
-0.000439678
-0.00029446
-0.000215288
-0.000431881
3.93018e-05
-0.000493492
0.000280311
-0.000470534
0.000469531
-0.000373098
0.000579762
-0.000221818
0.000599609
-4.67781e-05
0.000533049
0.000122351
0.000400031
0.000254068
0.000228663
0.000331512
5.35413e-05
0.000342365
-9.39485e-05
0.000291089
-0.000191149
0.000194954
-0.000224954
7.23793e-05
-0.000194614
-5.31633e-05
-0.000112345
-0.000155014
-0.000214035
6.9875e-05
-0.000200952
0.000140158
-0.000209229
0.000208116
-0.000206834
0.000272345
-0.000201944
0.000331296
-0.000194453
0.000383547
-0.00018451
0.000426595
-0.000170951
0.00045779
-0.000153779
0.000472835
-0.000131382
0.000468525
-0.000105184
0.000442178
-7.58948e-05
0.000392169
-4.48836e-05
0.000315076
-1.08404e-05
0.000214122
1.95603e-05
9.8706e-05
3.99997e-05
-2.4905e-05
5.35265e-05
-0.000152137
6.15155e-05
-0.000282273
6.76661e-05
-0.000412526
6.9582e-05
-0.000539772
6.66739e-05
-0.000662503
6.0179e-05
-0.000778823
4.93443e-05
-0.000879833
2.68619e-05
-0.000950566
-1.35453e-05
-0.000988592
-5.88295e-05
-0.000995564
-0.00010436
-0.000972561
-0.000149912
-0.000919834
-0.000195747
-0.000837594
-0.000240822
-0.000725975
-0.000285721
-0.000587649
-0.000329292
-0.000424665
-0.000371419
-0.000239009
-0.000411283
-3.31104e-05
-0.000447898
0.00018969
-0.000479844
0.000427451
-0.000508167
0.000680056
-0.000533992
0.000946814
-0.000556598
0.00122447
-0.000572927
0.0015108
-0.000583741
0.00180126
-0.000586413
0.0020911
-0.000580396
0.00237641
-0.000566353
0.00265334
-0.000544137
0.00291949
-0.000514976
0.0031676
-0.000474042
0.00339761
-0.000428346
0.00360065
-0.000369901
0.00377512
-0.000305195
0.00392
-0.000235403
0.00402991
-0.000156775
0.00410735
-6.66488e-05
0.00414734
3.07175e-05
0.00414684
0.000130844
0.00410412
0.000233109
0.00401821
0.000336947
0.00388872
0.000440836
0.00371574
0.000544321
0.00349947
0.00064606
0.00324087
0.000745661
0.00294138
0.000841201
0.00260365
0.000931653
0.00223084
0.00101519
0.00182692
0.00108998
0.00139593
0.00115513
0.000942711
0.00120865
0.000472369
0.00124956
-9.0613e-06
0.00127603
-0.00049581
0.00128683
-0.000981049
0.00128121
-0.00145824
0.00125896
-0.00192025
0.0012183
-0.00235966
0.00115914
-0.00276977
0.00108243
-0.00314323
0.000987357
-0.00347327
0.000874446
-0.00375355
0.000745676
-0.00397807
0.000601415
-0.00414209
0.000444333
-0.00424047
0.000275016
-0.0042706
9.96296e-05
-0.00422344
-0.000101469
-0.00410292
-0.000296339
-0.00391058
-0.000486126
-0.00364755
-0.000670285
-0.003317
-0.000845938
-0.00292337
-0.00100938
-0.00247263
-0.00115756
-0.00197262
-0.00128591
-0.00143304
-0.00139051
-0.000864189
-0.00146793
-0.000278145
-0.00151471
0.0003125
-0.00152842
0.000894242
-0.00150749
0.00145237
-0.00144927
0.00197346
-0.00135533
0.00244326
-0.00122527
0.00284831
-0.00106042
0.00317679
-0.000864289
0.00341789
-0.000640651
0.00356494
-0.000396397
0.00360852
-0.000135052
0.0035412
0.000157401
0.00336779
0.000436691
0.00309135
0.00070496
0.00271712
0.00095756
0.00225465
0.00118657
0.00171648
0.00138378
0.00111878
0.00154016
0.00047965
0.00164936
-0.000179731
0.00170468
-0.000836368
0.00170068
-0.00146647
0.00163613
-0.00204711
0.0015104
-0.0025551
0.00132531
-0.0029702
0.00108618
-0.00327355
0.000798877
-0.0034501
0.000473653
-0.00348905
0.000122763
-0.00338368
-0.000263672
-0.00313934
-0.000629926
-0.00276375
-0.000973035
-0.00226865
-0.00128317
-0.00167525
-0.00154356
-0.00100681
-0.00174095
-0.000295732
-0.00186103
0.000429382
-0.00189931
0.00113116
-0.00184505
0.00177513
-0.00170039
0.00232861
-0.00147035
0.00276298
-0.00116223
0.0030526
-0.000791294
0.00318373
-0.000376419
0.0031397
7.82614e-05
0.0029284
0.000526576
0.00256086
0.000939173
0.00205581
0.00130192
0.00144365
0.00159057
0.00075972
0.00178606
4.66328e-05
0.00187267
-0.000648428
0.00183851
-0.00128186
0.00168952
-0.00181303
0.00143195
-0.00220635
0.00108112
-0.00243676
0.000662104
-0.00249032
0.000205487
-0.00236112
-0.000277157
-0.00206836
-0.000710487
-0.00163708
-0.00107835
-0.00110411
-0.0013524
-0.000517337
-0.00150607
7.21589e-05
-0.00152787
0.000611502
-0.00140926
0.00105199
-0.00116567
0.00135549
-0.000818811
0.00149361
-0.000399481
0.00145354
6.08002e-05
0.00124696
0.000502546
0.000896714
0.000878908
0.000441193
0.00115916
-6.80589e-05
0.00130935
-0.000573661
0.00131138
-0.00101867
0.00116498
-0.00135357
0.000887951
-0.00153954
0.000510695
-0.00155986
8.16703e-05
-0.00140998
-0.000368754
-0.0011149
-0.000750846
-0.000713868
-0.00103503
-0.000258879
-0.00118565
0.000188858
-0.00118064
0.000570381
-0.00102028
0.000837844
-0.00073266
0.000959938
-0.000359984
0.000923408
5.16672e-05
0.000745566
0.000429084
0.000458677
0.000720394
0.000112758
0.000885832
-0.000234101
0.000901471
-0.000524128
0.000765479
-0.000712316
0.000508473
-0.000772339
0.000178281
-0.00069852
-0.000176594
-0.000510204
-0.000482776
-0.000243882
-0.000698203
5.24249e-05
-0.000789799
0.000326931
-0.00074504
0.000536173
-0.000582339
0.000650749
-0.000336395
0.000660109
-5.61387e-05
0.000571791
0.00021067
0.000411161
0.000414698
0.000211815
0.000530859
1.39042e-05
0.000540275
-0.000149304
0.000454298
-0.000251741
0.000297391
-0.00028062
0.000101258
-0.000236941
-9.68425e-05
-0.000135106
-0.000256849
-0.000349141
0.000208427
-0.00040938
0.000422651
-0.000423452
0.000634151
-0.000418335
0.000839932
-0.000407725
0.00103614
-0.000390663
0.00122048
-0.000368851
0.00138879
-0.000339257
0.00154137
-0.000306358
0.00167453
-0.00026455
0.0017885
-0.00021915
0.00188138
-0.000168775
0.00195449
-0.000117996
0.00201147
-6.78154e-05
0.00205444
-2.34131e-05
0.00207193
2.25121e-05
0.00204837
7.70867e-05
0.0019868
0.00012308
0.00189332
0.000161142
0.00177967
0.000183233
0.00165505
0.000191291
0.00152889
0.000186345
0.00141182
0.000166412
0.00130824
0.00013044
0.00121473
7.99613e-05
0.00113263
2.3276e-05
0.00105591
-2.76406e-05
0.000986644
-8.06465e-05
0.000945033
-0.000154136
0.00093829
-0.000234079
0.000973136
-0.000320567
0.00104811
-0.00040427
0.0011639
-0.000487202
0.00131722
-0.000564605
0.00150566
-0.00063634
0.00172678
-0.000700965
0.00197601
-0.000757399
0.00224721
-0.000805188
0.0025335
-0.000842889
0.00283052
-0.000869943
0.00313259
-0.000885817
0.00343584
-0.000889664
0.00373683
-0.000881388
0.0040307
-0.000860215
0.00431304
-0.000826483
0.0045773
-0.000779234
0.00482301
-0.000719746
0.00504166
-0.000646999
0.00523364
-0.000561881
0.00539225
-0.000463806
0.00551291
-0.000356058
0.0055973
-0.000241167
0.00564546
-0.000114807
0.00563469
4.14855e-05
0.00557193
0.000193603
0.00546069
0.000344348
0.00530197
0.000495672
0.00509516
0.000647645
0.00483995
0.000799531
0.00453645
0.000949559
0.00418539
0.00109672
0.00378848
0.00123811
0.00334854
0.0013716
0.0028689
0.00149483
0.00235351
0.00160537
0.00180745
0.00170119
0.00123646
0.00177964
0.000646783
0.00183924
4.50239e-05
0.00187779
-0.000560876
0.00189273
-0.00116306
0.00188339
-0.00175385
0.00184976
-0.00232429
0.00178873
-0.00286542
0.00170027
-0.00336882
0.00158583
-0.00382596
0.00144449
-0.00422836
0.00127685
-0.00456812
0.00108543
-0.00483892
0.000872222
-0.00503417
0.000639575
-0.00514969
0.000390542
-0.00517742
0.000127351
-0.00511409
-0.000164795
-0.0049623
-0.000448131
-0.0047221
-0.000726327
-0.00439528
-0.000997096
-0.00398555
-0.00125567
-0.00349825
-0.00149668
-0.00294176
-0.00171405
-0.00232583
-0.00190184
-0.00166107
-0.00205527
-0.000961963
-0.00216704
-0.000241767
-0.00223491
0.00048226
-0.00225245
0.00119362
-0.00221886
0.00187562
-0.00213127
0.00251055
-0.00199025
0.00308135
-0.00179607
0.00357167
-0.00155074
0.00396743
-0.00126005
0.00425612
-0.00092934
0.00442543
-0.000565715
0.00446567
-0.000175291
0.004375
0.00024807
0.00415485
0.000656846
0.0038083
0.0010515
0.00334235
0.00142351
0.00276887
0.00176005
0.00210335
0.0020493
0.00136567
0.00227784
0.000579027
0.002436
-0.000230183
0.00251389
-0.00103463
0.00250513
-0.00180517
0.00240667
-0.00251127
0.00221651
-0.00312695
0.00194099
-0.00362665
0.00158588
-0.00398884
0.00116107
-0.0041969
0.000681705
-0.0042377
0.00016357
-0.00410123
-0.000400148
-0.00379782
-0.000933335
-0.00333333
-0.00143752
-0.00272593
-0.00189058
-0.00199893
-0.00227056
-0.0011842
-0.00255568
-0.000316503
-0.00272872
0.000560239
-0.00277605
0.00140597
-0.00269078
0.00217923
-0.00247366
0.00283964
-0.00213076
0.00335029
-0.00167288
0.00368661
-0.00112761
0.00382362
-0.000513427
0.00375276
0.000149122
0.0034824
0.000796936
0.00302234
0.00139924
0.00239858
0.00192568
0.00164757
0.00234158
0.000817574
0.00261605
-4.25148e-05
0.00273276
-0.00087705
0.00267305
-0.00163013
0.0024426
-0.0022535
0.00205532
-0.00270384
0.00153145
-0.00295346
0.00091172
-0.00298562
0.000237646
-0.00280029
-0.000462487
-0.00241677
-0.001094
-0.00186778
-0.00162734
-0.00120221
-0.00201797
-0.000476942
-0.00223134
0.000243963
-0.00224877
0.000896828
-0.00206213
0.00142249
-0.00169133
0.00177383
-0.00117015
0.00192195
-0.000547607
0.00185245
0.000130306
0.00158088
0.000774116
0.00113571
0.00132408
0.000567238
0.00172763
-6.21308e-05
0.00193872
-0.000680223
0.00192947
-0.00121786
0.00170262
-0.00161547
0.00128556
-0.00183034
0.000725571
-0.00183609
8.74149e-05
-0.00164066
-0.000564184
-0.0012703
-0.0011212
-0.000775245
-0.00153009
-0.000220875
-0.00174002
0.000316904
-0.00171842
0.000768438
-0.00147181
0.00107553
-0.00103975
0.00120258
-0.000487028
0.0011379
0.000116343
0.000902885
0.000664099
0.000539859
0.00108342
0.000111372
0.00131432
-0.000310607
0.00132345
-0.000657095
0.00111197
-0.000875374
0.000726752
-0.000935427
0.000238334
-0.00083556
-0.000276461
-0.000600636
-0.0007177
-0.000277746
-0.00102109
7.42056e-05
-0.00114175
0.000393479
-0.00106431
0.000629526
-0.000818385
0.000749845
-0.000456714
0.000745139
-5.14324e-05
0.000628259
0.00032755
0.000430985
0.000611972
0.00019503
0.000766814
-3.3255e-05
0.000768561
-0.000217406
0.000638449
-0.000326951
0.000406937
-0.000350132
0.000124438
-0.000290007
-0.000156967
-0.000163864
-0.000382991
-0.000513006
0.000488328
-0.000897709
0.000980988
-0.000916112
0.00146135
-0.000898699
0.00191818
-0.00086455
0.00233493
-0.000807414
0.00269672
-0.000730643
0.00297424
-0.000616783
0.00315488
-0.000486997
0.00319672
-0.000306392
0.0030999
-0.000122324
0.00286403
6.7093e-05
0.00254997
0.00019606
0.00215801
0.000324146
0.00169432
0.000440277
0.00117391
0.000542924
0.000623491
0.000627502
5.46049e-05
0.000691965
-0.000517526
0.000733273
-0.00108514
0.000750846
-0.00163737
0.000743526
-0.00216254
0.000711509
-0.00264664
0.000650511
-0.00308238
0.000566176
-0.00345706
0.000454646
-0.00376187
0.000328084
-0.00397356
0.000184055
-0.00407366
1.94442e-05
-0.0039988
-0.00022899
-0.00382143
-0.000411449
-0.00356432
-0.000577679
-0.00325684
-0.00071175
-0.00290946
-0.000834581
-0.00252397
-0.000950093
-0.00209754
-0.00106277
-0.00163156
-0.00116694
-0.00113047
-0.00125849
-0.000600767
-0.00133489
-4.81631e-05
-0.00139549
0.000519373
-0.00143748
0.00109413
-0.00146058
0.00167025
-0.00146578
0.00223869
-0.00144982
0.00278953
-0.00141106
0.00331685
-0.0013538
0.00381443
-0.00127681
0.00427866
-0.00118398
0.00469813
-0.00106647
0.00506929
-0.000933047
0.00538999
-0.000784502
0.00565612
-0.000622183
0.00585515
-0.000440203
0.00599293
-0.000252581
0.00607758
-4.31675e-05
0.00609971
0.000171473
0.00605399
0.000390071
0.00593826
0.0006114
0.00575269
0.000833211
0.00549782
0.0010544
0.00517527
0.00127211
0.00478792
0.00148407
0.00433984
0.00168619
0.00383467
0.00187677
0.00327785
0.00205165
0.00267543
0.00220779
0.00203339
0.00234323
0.00135909
0.00245394
0.000660598
0.00253773
-5.34621e-05
0.00259185
-0.00077415
0.00261342
-0.00149115
0.00260039
-0.00219438
0.002553
-0.00287261
0.00246696
-0.00351635
0.00234401
-0.00411437
0.00218385
-0.00465714
0.00198726
-0.0051338
0.00175352
-0.00553565
0.00148728
-0.00585319
0.00118976
-0.00607846
0.00086485
-0.00620541
0.00051749
-0.00623086
0.000152806
-0.0061446
-0.000251058
-0.00595245
-0.000640277
-0.00565393
-0.00102485
-0.00525095
-0.00140008
-0.00474765
-0.00175897
-0.00415207
-0.00209226
-0.00347305
-0.00239307
-0.00272219
-0.0026527
-0.00191575
-0.00286171
-0.00106661
-0.00301618
-0.000195492
-0.00310602
0.000678872
-0.00312681
0.00153765
-0.00307764
0.00235951
-0.00295313
0.00312272
-0.00275347
0.00380713
-0.00248048
0.00439305
-0.00213666
0.00486348
-0.00173048
0.00520166
-0.00126752
0.00539301
-0.000757062
0.00543278
-0.000215065
0.00531459
0.000366258
0.00504036
0.00093108
0.00461228
0.00147958
0.00403961
0.00199619
0.00333737
0.00246228
0.00252569
0.00286098
0.00162932
0.00317422
0.000675365
0.00338996
-0.00030292
0.00349217
-0.00127189
0.0034741
-0.00219855
0.00333333
-0.00304845
0.0030664
-0.00378444
0.00267698
-0.00437856
0.00218
-0.00480586
0.00158837
-0.00504388
0.000919728
-0.0050816
0.000201293
-0.00490931
-0.000572445
-0.00453379
-0.00130885
-0.00396584
-0.00200547
-0.00322925
-0.00262717
-0.00235039
-0.00314941
-0.00137142
-0.00353466
-0.000331299
-0.00376884
0.000718421
-0.00382577
0.00172692
-0.00369928
0.00264353
-0.00339027
0.00342009
-0.00290731
0.00401892
-0.00227172
0.004399
-0.0015077
0.00454724
-0.000661661
0.00444457
0.000251793
0.00410118
0.00114032
0.00353394
0.00196647
0.00277382
0.0026858
0.00186775
0.00324765
0.000868642
0.00361516
-0.000157837
0.00375924
-0.00114677
0.00366198
-0.00203288
0.00332871
-0.00275676
0.0027792
-0.00327017
0.00204486
-0.0035384
0.00117995
-0.00354417
0.000243414
-0.00329215
-0.0007145
-0.00280384
-0.00158231
-0.00212206
-0.00230912
-0.00130539
-0.00283465
-0.000424308
-0.00311242
0.000444009
-0.00311709
0.00122065
-0.00283877
0.0018392
-0.00230988
0.00224313
-0.00157407
0.00239895
-0.000703428
0.00229329
0.000235961
0.001944
0.00112341
0.00139081
0.00187726
0.00069363
0.00242482
-7.01394e-05
0.00270248
-0.000813547
0.00267288
-0.00145466
0.00234374
-0.00192069
0.00175158
-0.00216036
0.000965244
-0.00215268
7.9735e-05
-0.00190173
-0.000815133
-0.00144397
-0.00157896
-0.000841533
-0.00213253
-0.000176501
-0.00240505
0.000463952
-0.00235887
0.000992401
-0.00200026
0.0013426
-0.00138995
0.00147264
-0.000617064
0.0013746
0.000214373
0.00107353
0.000965171
0.000623957
0.001533
0.000102621
0.00183565
-0.000402667
0.00182874
-0.000810481
0.00151978
-0.00105966
0.000975931
-0.00111781
0.000296483
-0.000985837
-0.000408433
-0.000696989
-0.00100655
-0.000309564
-0.00140852
0.000104809
-0.00155612
0.000473005
-0.00143251
0.000737014
-0.00108239
0.000861823
-0.000581523
0.000839664
-2.92736e-05
0.000689812
0.000477402
0.000451504
0.000850279
0.00017555
0.00104277
-8.67939e-05
0.0010309
-0.000291129
0.000842784
-0.000407458
0.000523265
-0.000423883
0.000140863
-0.000345935
-0.000234915
-0.00019392
-0.000535007
-0.000706925
0.000501304
-0.00139901
0.0010055
-0.00142031
0.00151512
-0.00140832
0.00203304
-0.00138247
0.00255825
-0.00133262
0.0031066
-0.001279
0.00364234
-0.00115252
0.0042143
-0.00105896
0.00467893
-0.000771014
0.00507269
-0.000516089
0.00535738
-0.000217595
0.00550811
4.53319e-05
0.00544822
0.000384028
0.00520583
0.000682675
0.00480642
0.000942334
0.0042763
0.00115761
0.00364459
0.00132368
0.00294001
0.00143786
0.00218963
0.00150122
0.00142548
0.00150767
0.000677157
0.00145984
-2.32092e-05
0.00135088
-0.000656359
0.00119933
-0.0011835
0.000981791
-0.00160041
0.000744986
-0.00183737
0.000421018
-0.00194334
0.000125416
-0.00199134
-0.000180993
-0.00202856
-0.000374229
-0.00194999
-0.00065625
-0.0017784
-0.000883335
-0.00149201
-0.00112098
-0.00111368
-0.00132842
-0.000659977
-0.00151647
-0.000148971
-0.00167795
0.000404759
-0.00181222
0.000988489
-0.00191862
0.00159054
-0.00199754
0.00220079
-0.00204774
0.0028105
-0.00207028
0.00340941
-0.0020647
0.00399204
-0.00203245
0.00455323
-0.00197225
0.00508391
-0.00188447
0.00558037
-0.00177328
0.00603256
-0.00163616
0.00644074
-0.00147465
0.00679791
-0.00129022
0.00709343
-0.00108002
0.00733147
-0.000860223
0.00750786
-0.000616592
0.00761166
-0.000356384
0.00764941
-8.09212e-05
0.00760082
0.000220068
0.00748102
0.000509867
0.0072884
0.000804021
0.00702142
0.00110019
0.00667944
0.00139639
0.00626449
0.00168705
0.00577789
0.00197068
0.0052235
0.00224057
0.00460586
0.00249441
0.0039303
0.00272721
0.00320343
0.00293466
0.00243275
0.00311391
0.00162653
0.00326015
0.000793545
0.00337072
-5.60229e-05
0.00344142
-0.000910502
0.0034679
-0.00175857
0.00344845
-0.00258954
0.00338397
-0.00339124
0.00326866
-0.0041487
0.00310147
-0.00485312
0.00288826
-0.00548861
0.00262275
-0.00604547
0.00231038
-0.00651387
0.00195567
-0.00688084
0.00155673
-0.0071377
0.00112171
-0.00727666
0.000656456
-0.00729722
0.000173363
-0.00719139
-0.000356888
-0.00696021
-0.000871458
-0.00660231
-0.00138275
-0.00612075
-0.00188164
-0.00552193
-0.00235779
-0.00481431
-0.00279988
-0.00400953
-0.00319785
-0.00312224
-0.00353999
-0.00216811
-0.00381584
-0.00116618
-0.00401811
-0.000138963
-0.00413324
0.000891542
-0.00415732
0.00190264
-0.00408873
0.002868
-0.00391849
0.00376286
-0.00364832
0.00456335
-0.00328097
0.00524622
-0.00281954
0.00579068
-0.00227493
0.00617656
-0.0016534
0.00639032
-0.000970828
0.00643118
-0.000255926
0.00628014
0.000517299
0.00594478
0.00126645
0.0054292
0.00199516
0.00474602
0.00267937
0.00391165
0.00329665
0.00294987
0.00382276
0.00188926
0.00423483
0.000765161
0.00451405
-0.000388137
0.00464547
-0.00152928
0.00461524
-0.00261634
0.00442039
-0.00360894
0.004059
-0.00447146
0.00353949
-0.00516221
0.00287076
-0.0056514
0.00207755
-0.00591762
0.00118595
-0.00594477
0.000228445
-0.00573525
-0.000781966
-0.00528481
-0.00175929
-0.00461227
-0.00267801
-0.00373761
-0.00350184
-0.00270256
-0.00418446
-0.00154739
-0.00468982
-0.000333694
-0.00498254
0.000894057
-0.00505353
0.00206911
-0.00487432
0.00313245
-0.00445362
0.00402905
-0.00380391
0.00470803
-0.0029507
0.00513974
-0.00193941
0.00528646
-0.000808381
0.00514848
0.000389775
0.00472914
0.00155966
0.00404809
0.00264753
0.0031471
0.00358678
0.00207739
0.00431736
0.000906056
0.00478649
-0.000291271
0.00495656
-0.00143745
0.00480816
-0.00245805
0.00434931
-0.00328251
0.00360366
-0.00385745
0.00261981
-0.00413981
0.00146231
-0.00411579
0.000219392
-0.00379071
-0.00103957
-0.00319239
-0.00218064
-0.00237119
-0.00313033
-0.00139777
-0.00380806
-0.000357741
-0.00415245
0.00065897
-0.0041338
0.001564
-0.0037438
0.00227317
-0.00301905
0.00272891
-0.00202981
0.00288534
-0.000859861
0.00274034
0.00038096
0.00230997
0.00155378
0.00164161
0.00254563
0.0008096
0.00325682
-9.26948e-05
0.00360478
-0.00096395
0.00354413
-0.00170693
0.00308672
-0.00224158
0.00228623
-0.00250927
0.00123293
-0.00247672
4.71823e-05
-0.00216741
-0.00112445
-0.00161764
-0.00212873
-0.000902879
-0.00284729
-0.000118833
-0.0031891
0.000621581
-0.00309929
0.00122652
-0.0026052
0.001618
-0.00178143
0.00174911
-0.000748173
0.00161325
0.000350238
0.00124165
0.00133676
0.000701587
0.00207306
8.46558e-05
0.00245259
-0.000504252
0.00241765
-0.000972606
0.00198813
-0.00125084
0.00125417
-0.00130248
0.000348126
-0.0011349
-0.000576021
-0.000788634
-0.00135281
-0.000334719
-0.00186243
0.000142295
-0.00203314
0.000558443
-0.00184866
0.000848517
-0.00137247
0.000975013
-0.000708019
0.000932889
1.28503e-05
0.000748424
0.000661867
0.000468291
0.00113041
0.000152491
0.00135857
-0.000141711
0.00132511
-0.000364902
0.00106598
-0.000486648
0.000645011
-0.000495323
0.000149538
-0.000399438
-0.000330799
-0.000222412
-0.000712034
-0.000929337
0.00155683
-0.00295584
0.00313592
-0.0029994
0.00474995
-0.00302235
0.00641653
-0.00304905
0.00814809
-0.00306419
0.0099372
-0.0030681
0.0115718
-0.00278717
0.0128146
-0.0023017
0.012904
-0.000860431
0.0122877
0.00010016
0.0112467
0.000823447
0.00989317
0.00139886
0.00836295
0.00191425
0.00670311
0.00234251
0.00495803
0.00268742
0.00316957
0.00294607
0.00137146
0.00312179
-0.00040775
0.00321707
-0.00213928
0.00323275
-0.00379862
0.00316701
-0.00536703
0.00302825
-0.00678948
0.00277333
-0.00803808
0.00244793
-0.00905067
0.00199438
-0.00980621
0.00150053
-0.0102402
0.000855023
-0.0103965
0.000281685
-0.00986253
-0.000714954
-0.00914499
-0.00109177
-0.00829934
-0.0015019
-0.00742756
-0.00175511
-0.00652334
-0.00202521
-0.00558412
-0.00226764
-0.00461802
-0.00248257
-0.00363219
-0.00266378
-0.00263636
-0.00280806
-0.00163698
-0.002918
-0.000641379
-0.00299314
0.000341876
-0.00303099
0.001302
-0.00303041
0.00223132
-0.00299402