#           v             n
     0.523599             0
     0.648652             0
     0.790112             0
     0.953116             0
      1.13449             0
      1.34047             0
      1.56672             0
      1.82069             0
      2.09677    0.00277291
      2.40376    0.00638913
      2.73462    0.00880213
      3.09966    0.00960791
      3.49026    0.00997126
      3.91837    0.00991926
      4.37366    0.00553462
      4.86986    0.00184907
       5.3948   0.000429503
      5.96412   7.24384e-05
      6.56366    9.5972e-06
      7.21112     1.004e-06
      7.89023   8.74553e-08
      8.62085   6.28693e-09
      9.38447   3.89134e-10
      10.2033   2.04245e-11
      11.0564   9.43353e-13
      11.9684   3.76353e-14
      12.9159   1.34175e-15
      13.9262   4.18761e-17
      14.9731   2.51424e-18
