/*--------------------------------*- C++ -*----------------------------------*\
  =========                 |
  \\      /  F ield         | OpenFOAM: The Open Source CFD Toolbox
   \\    /   O peration     | Website:  https://openfoam.org
    \\  /    A nd           | Version:  12
     \\/     M anipulation  |
\*---------------------------------------------------------------------------*/
FoamFile
{
    format      ascii;
    class       volVectorField;
    location    "2.62";
    object      zeta;
}
// * * * * * * * * * * * * * * * * * * * * * * * * * * * * * * * * * * * * * //

dimensions      [0 1 0 0 0 0 0];

internalField   uniform (0 0 0);

boundaryField
{
    freeSurface
    {
        type            calculated;
        value           nonuniform List<vector> 
181
(
(0 -0.000788098 0)
(0 -0.00078785 0)
(0 -0.000787706 0)
(0 -0.00078755 0)
(0 -0.000787365 0)
(0 -0.000787175 0)
(0 -0.000787074 0)
(0 -0.000786917 0)
(0 -5.48313e-05 0)
(0 -5.76768e-05 0)
(0 -6.25735e-05 0)
(0 -6.86822e-05 0)
(0 -7.74631e-05 0)
(0 -8.80599e-05 0)
(0 -0.000100311 0)
(0 -0.000113966 0)
(0 -0.000128789 0)
(0 -0.000144508 0)
(0 -0.000160881 0)
(0 -0.00017762 0)
(0 -0.000194468 0)
(0 -0.000211144 0)
(0 -0.000227378 0)
(0 -0.000242942 0)
(0 -0.000257583 0)
(0 -0.000271109 0)
(0 -0.00028331 0)
(0 -0.000293999 0)
(0 -0.000302995 0)
(0 -0.000310138 0)
(0 -0.000315288 0)
(0 -0.00031833 0)
(0 -0.000319179 0)
(0 -0.000317747 0)
(0 -0.000314001 0)
(0 -0.00030792 0)
(0 -0.000299512 0)
(0 -0.000288799 0)
(0 -0.000275881 0)
(0 -0.000260822 0)
(0 -0.000243762 0)
(0 -0.000224874 0)
(0 -0.000204331 0)
(0 -0.000182348 0)
(0 -0.00015915 0)
(0 -0.000135 0)
(0 -0.000110193 0)
(0 -8.49794e-05 0)
(0 -5.96996e-05 0)
(0 -3.46638e-05 0)
(0 -1.02204e-05 0)
(0 1.33158e-05 0)
(0 3.56075e-05 0)
(0 5.63511e-05 0)
(0 7.5266e-05 0)
(0 9.20768e-05 0)
(0 0.000106579 0)
(0 0.000118605 0)
(0 0.000128045 0)
(0 0.000134848 0)
(0 0.000139021 0)
(0 0.000140661 0)
(0 0.000139851 0)
(0 0.000136781 0)
(0 0.000131653 0)
(0 0.000124706 0)
(0 0.000116232 0)
(0 0.00010648 0)
(0 9.57315e-05 0)
(0 8.42617e-05 0)
(0 7.23341e-05 0)
(0 6.01915e-05 0)
(0 4.80618e-05 0)
(0 3.6148e-05 0)
(0 2.46209e-05 0)
(0 1.36239e-05 0)
(0 3.28194e-06 0)
(0 -6.31137e-06 0)
(0 -1.50842e-05 0)
(0 -2.29922e-05 0)
(0 -3.00091e-05 0)
(0 -3.61309e-05 0)
(0 -4.13586e-05 0)
(0 -4.5725e-05 0)
(0 -4.92563e-05 0)
(0 -5.19971e-05 0)
(0 -5.39961e-05 0)
(0 -5.53112e-05 0)
(0 -5.59857e-05 0)
(0 -5.60823e-05 0)
(0 -5.56646e-05 0)
(0 -5.478e-05 0)
(0 -5.3493e-05 0)
(0 -5.18553e-05 0)
(0 -4.99193e-05 0)
(0 -4.77428e-05 0)
(0 -4.53692e-05 0)
(0 -4.284e-05 0)
(0 -4.01931e-05 0)
(0 -3.74651e-05 0)
(0 -3.46876e-05 0)
(0 -3.18919e-05 0)
(0 -2.91064e-05 0)
(0 -2.63553e-05 0)
(0 -2.36585e-05 0)
(0 -2.10412e-05 0)
(0 -1.85163e-05 0)
(0 -1.61021e-05 0)
(0 -1.38111e-05 0)
(0 -1.16545e-05 0)
(0 -9.63984e-06 0)
(0 -7.77322e-06 0)
(0 -6.0586e-06 0)
(0 -4.49864e-06 0)
(0 -3.09493e-06 0)
(0 -1.84759e-06 0)
(0 -7.53689e-07 0)
(0 1.88675e-07 0)
(0 9.83029e-07 0)
(0 1.63179e-06 0)
(0 2.13803e-06 0)
(0 2.50781e-06 0)
(0 2.75025e-06 0)
(0 2.87413e-06 0)
(0 2.88842e-06 0)
(0 2.79998e-06 0)
(0 2.61589e-06 0)
(0 2.34411e-06 0)
(0 1.99399e-06 0)
(0 1.57429e-06 0)
(0 1.09305e-06 0)
(0 5.56841e-07 0)
(0 -2.86111e-08 0)
(0 -6.55852e-07 0)
(0 -1.31634e-06 0)
(0 -2.00147e-06 0)
(0 -2.7024e-06 0)
(0 -3.41043e-06 0)
(0 -4.11648e-06 0)
(0 -4.81358e-06 0)
(0 -5.49793e-06 0)
(0 -6.16799e-06 0)
(0 -6.82427e-06 0)
(0 -7.46708e-06 0)
(0 -8.09162e-06 0)
(0 -8.69106e-06 0)
(0 -9.25802e-06 0)
(0 -9.78768e-06 0)
(0 -1.02779e-05 0)
(0 -1.07277e-05 0)
(0 -1.11374e-05 0)
(0 -1.15044e-05 0)
(0 -1.18289e-05 0)
(0 -1.21145e-05 0)
(0 -1.23656e-05 0)
(0 -1.25879e-05 0)
(0 -1.27841e-05 0)
(0 -1.29531e-05 0)
(0 -1.30952e-05 0)
(0 -1.32113e-05 0)
(0 -1.33053e-05 0)
(0 -1.33827e-05 0)
(0 -1.34484e-05 0)
(0 -1.3503e-05 0)
(0 -1.35441e-05 0)
(0 -1.35679e-05 0)
(0 -1.35708e-05 0)
(0 -1.35517e-05 0)
(0 -1.35118e-05 0)
(0 -1.34536e-05 0)
(0 -1.33831e-05 0)
(0 -1.33102e-05 0)
(0 -1.32441e-05 0)
(0 -1.31875e-05 0)
(0 -1.3135e-05 0)
(0 -1.30813e-05 0)
(0 -1.30296e-05 0)
(0 -1.29894e-05 0)
(0 -1.29692e-05 0)
(0 -1.29655e-05 0)
(0 -1.29707e-05 0)
)
;
    }
    walls
    {
        type            calculated;
        value           uniform (0 0 0);
    }
    floatingObject
    {
        type            calculated;
        value           uniform (0 0 0);
    }
    frontAndBack
    {
        type            empty;
    }
}


// ************************************************************************* //
