/*--------------------------------*- C++ -*----------------------------------*\
  =========                 |
  \\      /  F ield         | OpenFOAM: The Open Source CFD Toolbox
   \\    /   O peration     | Website:  https://openfoam.org
    \\  /    A nd           | Version:  12
     \\/     M anipulation  |
\*---------------------------------------------------------------------------*/
FoamFile
{
    format      ascii;
    class       volScalarField;
    location    "18.36";
    object      p_rgh;
}
// * * * * * * * * * * * * * * * * * * * * * * * * * * * * * * * * * * * * * //

dimensions      [1 -1 -2 0 0 0 0];

internalField   nonuniform List<scalar> 
3829
(
0.485817
0.485484
0.484797
0.483747
0.482309
0.480464
0.478184
0.475443
0.472209
0.468452
0.464138
0.459236
0.453711
0.447533
0.440672
0.433105
0.42481
0.415774
0.405988
0.395454
0.384181
0.37219
0.359511
0.34619
0.33228
0.317853
0.30299
0.287789
0.27236
0.256827
0.241325
0.226004
0.211024
0.196553
0.182767
0.169846
0.157974
0.147329
0.138079
0.130272
0.124434
0.120646
0.118993
0.119541
0.122333
0.127392
0.134726
0.144322
0.156152
0.17016
0.186261
0.204338
0.224237
0.245764
0.268685
0.292729
0.317587
0.342915
0.368344
0.393476
0.417891
0.441148
0.462792
0.482378
0.499441
0.513465
0.524142
0.531046
0.533809
0.532107
0.525672
0.5143
0.497914
0.475431
0.447629
0.414731
0.376975
0.334621
0.288009
0.237605
0.183535
0.127178
0.069376
0.0108573
-0.0474913
-0.104726
-0.159829
-0.211762
-0.259502
-0.302048
-0.338458
-0.367884
-0.389599
-0.40301
-0.407644
-0.402535
-0.388004
-0.36444
-0.332359
-0.292411
-0.245471
-0.192662
-0.135351
-0.0751175
-0.0136959
0.0471179
0.105194
0.158681
0.205669
0.244382
0.273243
0.290959
0.296629
0.289765
0.269321
0.236244
0.191638
0.136861
0.0737388
0.00458476
-0.0680364
-0.140864
-0.210695
-0.274452
-0.329011
-0.371525
-0.399679
-0.411757
-0.406926
-0.38394
-0.344186
-0.289559
-0.222526
-0.146439
-0.0648771
0.0164073
0.0929097
0.159932
0.212931
0.248081
0.262635
0.254947
0.224135
0.172352
0.102656
0.0193374
-0.0722385
-0.165954
-0.253315
-0.328658
-0.38593
-0.420467
-0.429379
-0.410485
-0.366617
-0.301633
-0.221378
-0.132538
-0.0459212
0.030687
0.0896034
0.12495
0.133581
0.114343
0.0711887
0.0101166
-0.0612705
-0.132288
-0.192278
-0.232657
-0.246256
-0.229583
-0.183929
-0.115537
-0.0329211
0.0567679
0.130523
0.182416
0.203651
0.187118
0.136516
0.057015
-0.0434742
-0.14232
-0.22757
-0.286849
-0.30696
-0.287816
-0.232162
-0.14295
-0.0509035
0.032744
0.0939207
0.119925
0.107289
0.0583918
-0.0151378
-0.0943788
-0.16117
-0.199635
0.528906
0.528664
0.528162
0.527379
0.526289
0.524856
0.523036
0.520778
0.518023
0.514704
0.510751
0.50609
0.500645
0.494336
0.487091
0.478843
0.469529
0.459102
0.447521
0.434764
0.420823
0.405711
0.389458
0.372119
0.353765
0.334493
0.314423
0.293693
0.272466
0.250927
0.229281
0.207753
0.186583
0.166027
0.146349
0.127824
0.110729
0.0953448
0.0819684
0.0710254
0.0622552
0.0559872
0.0524445
0.051807
0.0542187
0.0597873
0.0685746
0.0805946
0.09581
0.114133
0.135424
0.159494
0.186109
0.214989
0.245808
0.278199
0.311747
0.346
0.380473
0.414656
0.448015
0.47998
0.509543
0.536886
0.561094
0.581582
0.597801
0.609237
0.615411
0.615897
0.61034
0.59844
0.580068
0.555206
0.523657
0.48566
0.441494
0.391516
0.336258
0.276402
0.212696
0.141002
0.0720426
0.00185193
-0.0683749
-0.137389
-0.203879
-0.266529
-0.324056
-0.375203
-0.418802
-0.453789
-0.479203
-0.494301
-0.498573
-0.491211
-0.472454
-0.442627
-0.40226
-0.352134
-0.293379
-0.22741
-0.155933
-0.0809014
-0.00446649
0.0710239
0.143176
0.209578
0.267881
0.315878
0.351647
0.373579
0.380503
0.371641
0.346527
0.305963
0.251049
0.183492
0.105612
0.020283
-0.0692912
-0.159065
-0.245141
-0.323694
-0.390867
-0.443173
-0.477732
-0.492314
-0.485723
-0.457323
-0.408343
-0.3409
-0.258164
-0.164331
-0.0638739
0.0363417
0.130644
0.213249
0.278559
0.321829
0.339639
0.330067
0.292656
0.229499
0.144262
0.0424787
-0.0691922
-0.183091
-0.289199
-0.380327
-0.449068
-0.489621
-0.498566
-0.474355
-0.419516
-0.33876
-0.239349
-0.128701
-0.0225507
0.0704685
0.141086
0.182163
0.189598
0.163234
0.107139
0.0289518
-0.0617692
-0.151578
-0.227724
-0.279723
-0.298793
-0.277682
-0.221464
-0.137288
-0.0354473
0.0726606
0.163555
0.227475
0.253545
0.235117
0.175055
0.079795
-0.0412165
-0.159308
-0.260663
-0.329944
-0.353927
-0.33136
-0.267701
-0.148161
-0.0417594
0.0572437
0.12932
0.159654
0.142683
0.0808498
-0.00899896
-0.10574
-0.187165
-0.234142
0.552664
0.55295
0.553514
0.554275
0.555353
0.556621
0.557948
0.559195
0.560196
0.560779
0.560746
0.55991
0.558045
0.554937
0.550378
0.544169
0.536125
0.526078
0.513884
0.499427
0.482625
0.463435
0.441858
0.417942
0.391786
0.363543
0.333418
0.301666
0.26859
0.234542
0.199909
0.16511
0.13059
0.096809
0.064231
0.0333088
0.00447155
-0.0219107
-0.0456086
-0.064273
-0.078538
-0.0883831
-0.0937088
-0.0944236
-0.0904376
-0.0816939
-0.0681479
-0.0498155
-0.0267623
0.000887525
0.0329465
0.069156
0.109177
0.152598
0.198937
0.247645
0.2981
0.349623
0.401483
0.452887
0.503288
0.551811
0.597553
0.639787
0.677665
0.710377
0.737155
0.757284
0.770107
0.775062
0.771636
0.759357
0.737815
0.707457
0.668098
0.619832
0.562944
0.497906
0.425411
0.346318
0.261605
0.172343
0.0801956
-0.0132767
-0.10662
-0.198228
-0.286365
-0.369271
-0.445205
-0.512491
-0.569535
-0.614854
-0.64717
-0.665497
-0.669172
-0.657403
-0.630388
-0.588456
-0.53226
-0.462868
-0.381852
-0.291157
-0.193102
-0.0903542
0.0141856
0.11726
0.215664
0.306143
0.385508
0.450782
0.499324
0.528914
0.537903
0.525399
0.491296
0.43629
0.361764
0.270061
0.164432
0.0487557
-0.072584
-0.194087
-0.310499
-0.416632
-0.507257
-0.577702
-0.624011
-0.643127
-0.633362
-0.594563
-0.527937
-0.43627
-0.323994
-0.196819
-0.0611183
0.0744568
0.201972
0.313597
0.401769
0.460091
0.483849
0.470582
0.420255
0.335367
0.220973
0.0845847
-0.0648402
-0.216344
-0.357305
-0.477673
-0.567495
-0.619239
-0.627999
-0.59314
-0.517363
-0.407087
-0.271595
-0.11931
0.0232957
0.146451
0.23838
0.289719
0.294884
0.254548
0.173763
0.063275
-0.0637997
-0.188595
-0.294486
-0.3678
-0.399745
-0.367194
-0.291003
-0.17764
-0.0403113
0.103169
0.22569
0.311899
0.347115
0.324421
0.24614
0.121351
-0.0376425
-0.191431
-0.322567
-0.410373
-0.440094
-0.40816
-0.32103
-0.168476
-0.0272672
0.102373
0.195446
0.233537
0.208416
0.121678
0.00168127
-0.127149
-0.235623
-0.298233
0.619623
0.621141
0.62416
0.62869
0.634426
0.641265
0.649018
0.65745
0.666281
0.6753
0.683748
0.691158
0.697022
0.700837
0.702097
0.700327
0.695076
0.685948
0.672598
0.654758
0.632234
0.604922
0.572821
0.536039
0.49479
0.449396
0.40028
0.347967
0.29308
0.236331
0.178496
0.120402
0.0629081
0.00688755
-0.0467885
-0.0972529
-0.143638
-0.185031
-0.220368
-0.251663
-0.276932
-0.295541
-0.307018
-0.310997
-0.30724
-0.295611
-0.276115
-0.24885
-0.214026
-0.171962
-0.123072
-0.0678652
-0.00693303
0.0590606
0.129365
0.203169
0.279589
0.357699
0.436514
0.510446
0.587013
0.660598
0.73009
0.794377
0.852354
0.902939
0.945104
0.977855
1.00037
1.0119
1.01191
1.00017
0.973069
0.933752
0.882031
0.818022
0.742103
0.654924
0.557419
0.450786
0.336426
0.215969
0.0911188
-0.0356006
-0.162245
-0.286527
-0.40603
-0.518305
-0.62094
-0.711609
-0.7881
-0.848351
-0.890637
-0.913619
-0.916245
-0.897957
-0.858753
-0.798989
-0.719576
-0.622065
-0.508643
-0.381998
-0.245342
-0.102351
0.0430124
0.18609
0.322475
0.447667
0.557349
0.64745
0.714345
0.755044
0.76733
0.749326
0.701689
0.625182
0.521778
0.394813
0.248772
0.0890226
-0.0784154
-0.245871
-0.40616
-0.552151
-0.676638
-0.7732
-0.836357
-0.861924
-0.847518
-0.793247
-0.700675
-0.573695
-0.418472
-0.24299
-0.0561329
0.130464
0.305855
0.459282
0.580463
0.660573
0.693032
0.673906
0.604221
0.487268
0.330265
0.143718
-0.0601444
-0.265954
-0.457053
-0.619409
-0.739424
-0.806704
-0.814801
-0.763808
-0.657373
-0.505231
-0.32089
-0.0981824
0.0933413
0.258638
0.380772
0.446324
0.448001
0.386665
0.269529
0.111786
-0.0684531
-0.243748
-0.391499
-0.491785
-0.530646
-0.492699
-0.390567
-0.235798
-0.0474436
0.147658
0.315741
0.434059
0.482372
0.452798
0.347595
0.180011
-0.0332836
-0.238253
-0.41199
-0.526358
-0.563082
-0.51606
-0.393246
-0.199105
-0.00654536
0.167526
0.290818
0.339708
0.303687
0.178101
0.0160725
-0.158289
-0.305347
-0.390226
0.553373
0.558256
0.568028
0.582634
0.601833
0.62523
0.652184
0.681942
0.713462
0.745505
0.777436
0.808172
0.836583
0.861578
0.882036
0.896901
0.905152
0.905919
0.898398
0.8819
0.85598
0.820402
0.775127
0.720371
0.656585
0.584482
0.504982
0.419245
0.328581
0.234468
0.138456
0.0421403
-0.0528969
-0.145121
-0.233111
-0.315611
-0.391648
-0.460844
-0.516968
-0.562282
-0.597211
-0.621552
-0.635026
-0.637354
-0.628348
-0.60793
-0.576171
-0.533293
-0.479656
-0.415749
-0.342193
-0.259747
-0.169303
-0.0718472
0.0314889
0.139506
0.250878
0.364205
0.478
0.590598
0.700882
0.80714
0.907722
1.00098
1.08535
1.15931
1.22142
1.27033
1.3048
1.32374
1.32624
1.31135
1.27954
1.23037
1.16357
1.07946
0.978743
0.86245
0.731942
0.588903
0.435284
0.273361
0.105651
-0.0648783
-0.23529
-0.402462
-0.563081
-0.713811
-0.851368
-0.972591
-1.07443
-1.15416
-1.20942
-1.23831
-1.23938
-1.21227
-1.15673
-1.07326
-0.963164
-0.828614
-0.672645
-0.498946
-0.311847
-0.116199
0.0834398
0.278672
0.464454
0.634881
0.78404
0.906449
0.997184
1.05209
1.06779
1.04251
0.97679
0.871732
0.730219
0.556848
0.357791
0.140305
-0.0874636
-0.314928
-0.532522
-0.730475
-0.899058
-1.02954
-1.1145
-1.14844
-1.12748
-1.0525
-0.925599
-0.752255
-0.540828
-0.302169
-0.0483471
0.204741
0.442351
0.649951
0.813799
0.922284
0.96647
0.938651
0.842879
0.683722
0.470961
0.218799
-0.0563283
-0.332887
-0.589123
-0.805692
-0.9644
-1.05107
-1.05786
-0.984542
-0.836808
-0.629268
-0.383679
-0.0657038
0.186736
0.40685
0.568314
0.652374
0.648824
0.559071
0.393614
0.173385
-0.0770103
-0.318576
-0.520905
-0.655382
-0.698352
-0.657076
-0.521088
-0.311921
-0.0567425
0.206053
0.433411
0.593299
0.658468
0.618928
0.478135
0.25451
-0.0287717
-0.299907
-0.528514
-0.676871
-0.721644
-0.654457
-0.486602
-0.23516
0.0219104
0.252681
0.414354
0.476547
0.430926
0.245555
0.0341143
-0.198862
-0.39558
-0.509133
0.416493
0.428007
0.451081
0.485433
0.530399
0.585032
0.647876
0.717293
0.791291
0.867929
0.945738
1.02347
1.09782
1.1659
1.22506
1.27296
1.30765
1.32741
1.33073
1.31642
1.28368
1.23219
1.16191
1.07382
0.968985
0.849087
0.716194
0.572889
0.421849
0.266214
0.109023
-0.0466849
-0.198173
-0.342873
-0.478376
-0.602357
-0.712188
-0.806253
-0.889934
-0.958745
-1.01137
-1.04709
-1.06554
-1.06663
-1.05051
-1.01752
-0.968153
-0.903015
-0.822885
-0.728683
-0.621453
-0.502373
-0.372751
-0.234
-0.087687
0.0645297
0.220857
0.379394
0.538185
0.695252
0.84856
0.995938
1.13527
1.26443
1.38134
1.484
1.57054
1.63918
1.68824
1.71628
1.72205
1.70459
1.66519
1.60205
1.51526
1.40536
1.27333
1.12055
0.948828
0.760453
0.558048
0.344642
0.123658
-0.101097
-0.325609
-0.545732
-0.757057
-0.955151
-1.13567
-1.29441
-1.42736
-1.53092
-1.60197
-1.63793
-1.63683
-1.59849
-1.52244
-1.40938
-1.26116
-1.08074
-0.872178
-0.640498
-0.391787
-0.133224
0.138368
0.395767
0.641523
0.867102
1.06449
1.22631
1.34615
1.41883
1.44064
1.40435
1.31515
1.1743
0.985548
0.754795
0.49026
0.201671
-0.100227
-0.401558
-0.689561
-0.951205
-1.1737
-1.34553
-1.45708
-1.50164
-1.47164
-1.37059
-1.20109
-0.970491
-0.689883
-0.373512
-0.0370896
0.297535
0.611231
0.88489
1.10048
1.24308
1.30192
1.26232
1.13396
0.922614
0.641233
0.308318
-0.0540899
-0.417499
-0.753455
-1.03615
-1.24154
-1.35155
-1.35539
-1.25309
-1.05265
-0.77309
-0.440746
-0.038198
0.300048
0.590406
0.800699
0.906704
0.896268
0.770755
0.54507
0.24703
-0.0906483
-0.414236
-0.684274
-0.863169
-0.922886
-0.864314
-0.683104
-0.405805
-0.067878
0.278227
0.57805
0.788482
0.873839
0.821079
0.636033
0.343576
-0.0246033
-0.376262
-0.67143
-0.860856
-0.914029
-0.821599
-0.59899
-0.276004
0.0586053
0.357403
0.564456
0.640158
0.571166
0.340153
0.0576786
-0.248139
-0.505368
-0.653804
-0.0850511
-0.0591403
-0.00714845
0.0706815
0.173207
0.298757
0.444383
0.607102
0.781099
0.961218
1.13965
1.31262
1.47544
1.6235
1.75247
1.8587
1.93903
1.99094
2.01236
2.00153
1.95712
1.87863
1.76613
1.62083
1.44493
1.24228
1.01782
0.777717
0.527344
0.273273
0.0215843
-0.222512
-0.455057
-0.673017
-0.874809
-1.06069
-1.20891
-1.33499
-1.43962
-1.52227
-1.58217
-1.61885
-1.63215
-1.6222
-1.58942
-1.53443
-1.45805
-1.36128
-1.24526
-1.11128
-0.960782
-0.795379
-0.616816
-0.426992
-0.22795
-0.021849
0.188962
0.401917
0.614774
0.824793
1.0293
1.22556
1.41086
1.58249
1.73781
1.87425
1.98938
2.08095
2.14692
2.1855
2.19524
2.17493
2.12529
2.04486
1.93373
1.7927
1.62307
1.42662
1.20577
0.963453
0.703093
0.428624
0.144482
-0.144419
-0.432857
-0.715491
-0.986607
-1.24048
-1.47151
-1.67428
-1.84367
-1.97505
-2.06441
-2.10846
-2.10458
-2.05261
-1.95195
-1.80361
-1.61009
-1.37521
-1.1042
-0.803441
-0.480515
-0.14378
0.199269
0.533811
0.851635
1.14243
1.39629
1.60395
1.75744
1.85055
1.87941
1.82911
1.7121
1.52909
1.28464
0.986217
0.644371
0.271888
-0.117147
-0.505415
-0.876155
-1.2125
-1.49802
-1.71793
-1.86001
-1.91578
-1.8756
-1.74372
-1.52391
-1.22571
-0.86349
-0.455642
-0.0219167
0.408407
0.811222
1.16197
1.43743
1.61869
1.69287
1.64013
1.47359
1.20085
0.838571
0.410969
-0.0544509
-0.519548
-0.948737
-1.30869
-1.56836
-1.70474
-1.7042
-1.56651
-1.30281
-0.937328
-0.50243
-0.00320858
0.435805
0.80889
1.07626
1.20796
1.18808
1.01942
0.722045
0.331942
-0.110512
-0.530824
-0.880441
-1.11175
-1.19012
-1.11037
-0.874427
-0.515977
-0.0805156
0.363619
0.748206
1.01726
1.12581
1.05653
0.818914
0.445587
-0.0212211
-0.466695
-0.839098
-1.0757
-1.13741
-1.01475
-0.728077
-0.32079
0.103529
0.48064
0.739352
0.829596
0.734141
0.448563
0.0849408
-0.30424
-0.633349
-0.822379
-1.0672
-1.01836
-0.920059
-0.772943
-0.579367
-0.343108
-0.0718241
0.227917
0.536979
0.85613
1.18192
1.50437
1.81481
2.10457
2.36542
2.58942
2.7693
2.89866
2.97227
2.98634
2.93837
2.82735
2.65447
2.42279
2.13684
1.80366
1.43329
1.04332
0.641652
0.248108
-0.129983
-0.486698
-0.816836
-1.11563
-1.37641
-1.60055
-1.80826
-1.98065
-2.11683
-2.21753
-2.28396
-2.31737
-2.319
-2.29009
-2.2319
-2.14572
-2.03292
-1.89498
-1.73353
-1.55029
-1.34714
-1.12617
-0.889591
-0.63976
-0.379225
-0.11069
0.162933
0.438618
0.71325
0.983585
1.24633
1.49805
1.73538
1.95495
2.15347
2.32778
2.47491
2.59206
2.6767
2.72667
2.74026
2.71611
2.6538
2.55273
2.41312
2.23597
2.02291
1.77622
1.49892
1.19475
0.867996
0.523698
0.167443
-0.19465
-0.555952
-0.909757
-1.24888
-1.56613
-1.85449
-2.10713
-2.31769
-2.48037
-2.59015
-2.64301
-2.63582
-2.56798
-2.43894
-2.25015
-2.00483
-1.70772
-1.36546
-0.986142
-0.579226
-0.155391
0.27395
0.694145
1.09312
1.45777
1.77542
2.0344
2.22454
2.33779
2.37039
2.30766
2.1609
1.93063
1.62295
1.2476
0.817796
0.349758
-0.138608
-0.625536
-1.09004
-1.511
-1.86773
-2.14166
-2.31755
-2.38435
-2.33317
-2.1663
-1.88918
-1.514
-1.05879
-0.546845
-0.00268955
0.536046
1.0397
1.47737
1.81983
2.0436
2.13461
2.06589
1.85644
1.51415
1.05984
0.52424
-0.0574688
-0.638054
-1.17269
-1.61967
-1.94024
-2.10526
-2.09903
-1.92032
-1.58392
-1.1205
-0.571129
0.0431612
0.594239
1.06043
1.39182
1.55137
1.5199
1.3014
0.921846
0.426002
-0.136421
-0.667044
-1.10674
-1.39671
-1.49524
-1.39078
-1.09182
-0.64056
-0.0939792
0.461267
0.941615
1.27643
1.41037
1.32141
1.02357
0.558492
-0.0191363
-0.570059
-1.02888
-1.31773
-1.38802
-1.23038
-0.871176
-0.368531
0.15628
0.620712
0.936349
1.04214
0.917349
0.568351
0.114458
-0.369614
-0.777806
-1.0121
-2.76
-2.6723
-2.49319
-2.21914
-1.84774
-1.37737
-0.817023
-0.171917
0.473123
1.12988
1.77791
2.40234
2.98211
3.50048
3.94599
4.31076
4.58909
4.77674
4.87035
4.86634
4.76192
4.55631
4.24832
3.83954
3.33423
2.74249
2.0813
1.39121
0.694911
0.0505624
-0.506116
-1.00837
-1.45804
-1.86368
-2.18393
-2.44817
-2.66915
-2.84807
-2.98448
-3.07867
-3.13178
-3.14543
-3.12122
-3.06092
-2.96611
-2.83846
-2.6797
-2.49164
-2.27621
-2.03548
-1.77173
-1.48736
-1.18503
-0.867617
-0.538179
-0.199976
0.143516
0.488708
0.831763
1.16878
1.49572
1.80848
2.10298
2.37509
2.62088
2.83655
3.01843
3.1632
3.26783
3.32969
3.34667
3.31735
3.2407
3.11634
2.94472
2.72711
2.46554
2.16284
1.82272
1.4498
1.04942
0.627705
0.191556
-0.251488
-0.693344
-1.12574
-1.53991
-1.92703
-2.27851
-2.58598
-2.84167
-3.03855
-3.17048
-3.23259
-3.2215
-3.13578
-2.97508
-2.74132
-2.43847
-2.07245
-1.65137
-1.18516
-0.685613
-0.165829
0.359649
0.874143
1.36228
1.80797
2.19561
2.51073
2.74036
2.87303
2.89767
2.83246
2.65489
2.37257
1.99483
1.53433
1.00738
0.433915
-0.164666
-0.760197
-1.32788
-1.84186
-2.27682
-2.6099
-2.82247
-2.90035
-2.83709
-2.63133
-2.29062
-1.83024
-1.27223
-0.645307
0.0203747
0.678404
1.29295
1.82593
2.24133
2.50935
2.60928
2.5313
2.276
1.85703
1.30124
0.646405
-0.06374
-0.771331
-1.42186
-1.96405
-2.35092
-2.54704
-2.53338
-2.30846
-1.89117
-1.31954
-0.644121
0.0993988
0.773087
1.34106
1.74215
1.93092
1.88599
1.61181
1.14124
0.528645
-0.169604
-0.821177
-1.35915
-1.71301
-1.83234
-1.70028
-1.33105
-0.776842
-0.107903
0.569714
1.15508
1.56157
1.72241
1.61092
1.24607
0.680017
-0.0186908
-0.68467
-1.23736
-1.58251
-1.66122
-1.46432
-1.02533
-0.418146
0.216106
0.775184
1.15198
1.27393
1.11703
0.697418
0.145468
-0.442107
-0.936052
-1.21942
-5.42689
-5.31109
-5.07409
-4.70744
-4.20128
-3.53394
-2.73368
-1.66658
-0.719694
0.615049
1.70528
2.69818
3.5865
4.35949
5.01285
5.54633
5.95872
6.24815
6.41221
6.44624
6.34488
6.10476
5.71707
5.17624
4.4771
3.62058
2.5135
1.51515
0.441866
-0.371612
-1.11606
-1.72843
-2.25033
-2.68498
-3.08637
-3.41753
-3.67243
-3.85804
-3.98457
-4.05889
-4.08533
-4.06689
-4.00594
-3.9044
-3.76415
-3.58703
-3.37488
-3.12969
-2.85365
-2.5491
-2.21862
-1.86495
-1.49117
-1.10058
-0.696758
-0.283457
0.135215
0.554985
0.971345
1.37968
1.77524
2.15314
2.50854
2.83657
3.13256
3.39199
3.61058
3.78439
3.90988
3.98402
4.00433
3.96807
3.87509
3.72507
3.51844
3.25676
2.9425
2.57903
2.17088
1.72362
1.24367
0.738407
0.216106
-0.314215
-0.842831
-1.3598
-1.85463
-2.3168
-2.73601
-3.10224
-3.40621
-3.63955
-3.79498
-3.86675
-3.85102
-3.74565
-3.55053
-3.26808
-2.90306
-2.46264
-1.95658
-1.39682
-0.797507
-0.174569
0.454599
1.07051
1.65435
2.18695
2.64967
3.02525
3.29834
3.4561
3.48928
3.40319
3.18747
2.84749
2.39354
1.84098
1.20927
0.522284
-0.194649
-0.906931
-1.58544
-2.19918
-2.71786
-3.11427
-3.36612
-3.45643
-3.37869
-3.13041
-2.72093
-2.16847
-1.49965
-0.749128
0.0468381
0.832885
1.56644
2.20162
2.6952
3.01038
3.11575
3.03088
2.72555
2.22333
1.55804
0.775304
-0.0733695
-0.916983
-1.69163
-2.33572
-2.79312
-3.02203
-2.99934
-2.72387
-2.21885
-1.53043
-0.719487
0.164188
0.969131
1.64588
2.12103
2.34057
2.27969
1.94464
1.37608
0.637965
-0.20973
-0.9906
-1.63297
-2.05469
-2.19522
-2.03298
-1.58746
-0.922221
-0.121642
0.687192
1.38478
1.86748
2.05615
1.91958
1.48206
0.807694
-0.01999
-0.808495
-1.46074
-1.86503
-1.95183
-1.71199
-1.18756
-0.468633
0.28193
0.94111
1.38217
1.52053
1.32911
0.833466
0.177353
-0.520057
-1.10501
-1.44032
-9.0487
-8.92951
-8.68017
-8.27926
-7.6908
-6.87055
-5.72462
-4.18359
-1.96162
0.932862
2.76589
4.4189
5.79312
6.92359
7.83826
8.55578
9.08831
9.4431
9.62239
9.62407
9.44307
9.06864
8.48134
7.65444
6.55177
5.17076
3.01786
0.829266
-0.646781
-1.74293
-2.58955
-3.26104
-3.77819
-4.17278
-4.47569
-4.7101
-4.88983
-5.0201
-5.1005
-5.13191
-5.11552
-5.05282
-4.94532
-4.79455
-4.60211
-4.36964
-4.09896
-3.79206
-3.45112
-3.07864
-2.67742
-2.25057
-1.80149
-1.33391
-0.851909
-0.359801
0.137681
0.635572
1.12865
1.61157
2.07882
2.52472
2.94363
3.3299
3.67808
3.98291
4.23942
4.44305
4.58967
4.67593
4.69968
4.65501
4.54443
4.36698
4.12308
3.81457
3.44439
3.01657
2.53647
2.01067
1.44674
0.853356
0.240272
-0.381924
-1.00184
-1.60774
-2.18736
-2.7283
-3.21855
-3.64639
-4.00094
-4.27235
-4.45219
-4.53379
-4.51268
-4.38626
-4.1546
-3.8206
-3.38993
-2.87102
-2.2754
-1.61722
-0.912978
-0.181335
0.557009
1.27938
1.96374
2.58755
3.12908
3.56815
3.887
4.07119
4.11081
4.00431
3.7476
3.34621
2.81152
2.16164
1.41955
0.613122
-0.22796
-1.063
-1.85793
-2.57633
-3.18275
-3.64543
-3.93832
-4.04229
-3.94792
-3.65428
-3.17205
-2.5224
-1.73674
-0.856171
0.0761157
0.996773
1.85527
2.59767
3.17363
3.54072
3.66762
3.55862
3.19729
2.60634
1.82531
0.908292
-0.0859617
-1.07221
-1.97688
-2.72765
-3.25861
-3.52109
-3.48818
-3.15893
-2.56088
-1.74897
-0.795814
0.235913
1.17851
1.96916
2.52151
2.77275
2.69358
2.29342
1.62193
0.755239
-0.259401
-1.17209
-1.9228
-2.41506
-2.57707
-2.38259
-1.85613
-1.07366
-0.13494
0.811557
1.62652
2.18846
2.4054
2.24164
1.72705
0.939078
-0.023018
-0.939227
-1.69491
-2.16006
-2.25445
-1.96876
-1.35472
-0.519107
0.352457
1.11537
1.6226
1.77724
1.54942
0.974066
0.209539
-0.601976
-1.28142
-1.67058
-13.0672
-12.9878
-12.8299
-12.597
-12.2897
-11.971
-11.5381
-11.285
-3.15185
-3.47058
-3.98603
-4.3877
-4.81203
-5.18636
-5.51244
-5.77874
-5.98191
-6.1253
-6.21386
-6.24973
-6.23528
-6.17208
-6.06131
-5.90387
-5.7009
-5.45356
-5.1633
-4.83175
-4.46086
-4.0529
-3.61048
-3.13658
-2.63457
-2.10824
-1.56172
-0.999576
-0.426662
0.151566
0.729468
1.30111
1.86037
2.40097
2.91638
3.40018
3.84587
4.24724
4.59824
4.89321
5.12685
5.29435
5.39141
5.41398
5.36419
5.23606
5.03013
4.74741
4.39016
3.96189
3.46733
2.91268
2.30558
1.65479
0.970346
0.263504
-0.453491
-1.16755
-1.86513
-2.5321
-3.15415
-3.7175
-4.20868
-4.61512
-4.92554
-5.13025
-5.22164
-5.19459
-5.04612
-4.77646
-4.38901
-3.89037
-3.29029
-2.60217
-1.84231
-1.02985
-0.186125
0.664706
1.49677
2.28464
3.00233
3.62488
4.12914
4.49483
4.70557
4.74995
4.62357
4.3245
3.85941
3.24113
2.49048
1.63442
0.704783
-0.26396
-1.22554
-2.1404
-2.96648
-3.66306
-4.19371
-4.52848
-4.64625
-4.5342
-4.19349
-3.63582
-2.88566
-1.97934
-0.964543
0.10759
1.1671
2.15415
3.00686
3.66758
4.08837
4.23592
4.10251
3.68235
2.99926
2.09839
1.04238
-0.100745
-1.23403
-2.27246
-3.13265
-3.73895
-4.03535
-3.99122
-3.60587
-2.91133
-1.97152
-0.871553
0.312988
1.39716
2.30479
2.93613
3.21905
3.12
2.65155
1.87392
0.879582
-0.318859
-1.36169
-2.2229
-2.78744
-2.97094
-2.74275
-2.1322
-1.22816
-0.147611
0.940611
1.87596
2.51873
2.76396
2.57141
1.97662
1.07178
-0.0276385
-1.07447
-1.9357
-2.46241
-2.56378
-2.23009
-1.52392
-0.568817
0.426334
1.29481
1.86892
2.03947
1.77398
1.11686
0.241512
-0.686402
-1.46209
-1.90605
-17.2437
-17.2088
-17.1421
-17.0477
-16.9268
-16.8192
-16.6384
-16.6139
-5.94585
-6.02528
-6.29822
-6.48963
-6.70479
-6.89871
-7.06768
-7.20878
-7.31975
-7.39195
-7.42079
-7.40358
-7.33918
-7.2268
-7.06636
-6.85797
-6.60205
-6.29934
-5.95093
-5.55827
-5.1232
-4.64799
-4.13536
-3.58849
-3.011
-2.40702
-1.78112
-1.13834
-0.484008
0.175505
0.833934
1.48463
2.12072
2.7351
3.32043
3.86942
4.37478
4.82948
5.22674
5.56015
5.82377
6.01222
6.1209
6.1462
6.0863
5.93875
5.70319
5.38061
4.97357
4.48606
3.92349
3.29298
2.60323
1.86421
1.08735
0.285396
-0.527729
-1.33718
-2.12762
-2.88298
-3.58713
-4.2244
-4.77957
-5.23838
-5.58807
-5.81772
-5.91877
-5.8853
-5.71418
-5.40573
-4.96382
-4.39604
-3.71351
-2.93155
-2.06849
-1.14633
-0.189101
0.775656
1.71879
2.61137
3.42401
4.12844
4.69843
5.11123
5.3483
5.3967
5.25029
4.90821
4.37827
3.6751
2.82217
1.85028
0.795727
-0.301926
-1.39179
-2.42798
-3.36295
-4.15061
-4.74977
-5.12643
-5.25498
-5.12749
-4.73897
-4.10453
-3.25225
-2.2236
-1.07285
0.140936
1.34092
2.45794
3.42208
4.16833
4.64302
4.80916
4.65237
4.17229
3.39549
2.37281
1.17552
-0.117319
-1.39964
-2.57325
-3.54389
-4.22603
-4.55631
-4.50018
-4.05733
-3.26444
-2.1945
-0.9456
0.393713
1.62104
2.64687
3.3577
3.67199
3.55169
3.0127
2.12685
1.01144
-0.38925
-1.55502
-2.52779
-3.16547
-3.37022
-3.10737
-2.41103
-1.38307
-0.159538
1.07217
2.12889
2.8528
3.12595
2.90356
2.22674
1.2036
-0.033563
-1.21194
-2.17912
-2.76716
-2.87485
-2.4918
-1.69251
-0.61718
0.502201
1.47637
2.11707
2.30293
1.99908
1.25968
0.272825
-0.771912
-1.64401
-2.14283
-21.1216
-21.1022
-21.0657
-21.0156
-20.9511
-20.9005
-20.8038
-20.8065
-7.66856
-7.69401
-7.88899
-8.02348
-8.18553
-8.3306
-8.44981
-8.53702
-8.59202
-8.61021
-8.58829
-8.52277
-8.41149
-8.25248
-8.04468
-7.78736
-7.48034
-7.1239
-6.71883
-6.26641
-5.76844
-5.22719
-4.64548
-4.02669
-3.37472
-2.69406
-1.98971
-1.26713
-0.531921
0.208121
0.946322
1.67536
2.3876
3.07511
3.7297
4.34325
4.90765
5.41506
5.85796
6.22926
6.52236
6.73132
6.85109
6.87771
6.80833
6.64106
6.37552
6.01276
5.55565
5.00869
4.37797
3.67149
2.89903
2.07178
1.20259
0.305656
-0.603423
-1.50804
-2.39105
-3.23454
-4.02049
-4.73138
-5.35021
-5.86108
-6.24974
-6.50401
-6.61439
-6.57426
-6.38026
-6.03281
-5.53634
-4.89937
-4.13442
-3.25869
-2.29258
-1.2609
-0.190464
0.887923
1.94179
2.93871
3.84586
4.63173
5.26707
5.72656
5.98947
6.04137
5.87487
5.48977
4.89484
4.10684
3.15178
2.06413
0.884897
-0.341428
-1.55911
-2.71615
-3.75954
-4.63781
-5.30509
-5.72356
-5.86463
-5.71932
-5.28249
-4.57114
-3.61675
-2.466
-1.17979
0.175669
1.51543
2.76182
3.83679
4.66796
5.19592
5.3793
5.1996
4.65958
3.78906
2.64472
1.30654
-0.135822
-1.56636
-2.87451
-3.95499
-4.71234
-5.07599
-5.00741
-4.50665
-3.61497
-2.41472
-1.01698
0.476319
1.84634
2.98991
3.77958
4.12467
3.98208
3.37127
2.3754
1.14221
-0.462546
-1.74744
-2.8325
-3.54326
-3.76884
-3.47092
-2.68846
-1.53644
-0.170222
1.20417
2.38146
3.18564
3.486
3.23324
2.47382
1.33262
-0.0404377
-1.34949
-2.42151
-3.06983
-3.18319
-2.75025
-1.85809
-0.663757
0.578766
1.65727
2.36336
2.5638
2.22144
1.40058
0.303108
-0.857191
-1.8245
-2.37746
-24.6308
-24.6201
-24.5998
-24.5732
-24.5378
-24.5134
-24.4631
-24.4725
-9.29981
-9.28598
-9.40233
-9.47974
-9.57549
-9.66112
-9.7286
-9.77024
-9.78162
-9.75737
-9.69395
-9.58739
-9.43481
-9.23368
-8.98231
-8.67936
-8.32422
-7.91679
-7.45761
-6.94785
-6.38924
-5.78414
-5.1355
-4.44686
-3.72243
-2.96707
-2.18627
-1.38601
-0.570923
0.247624
1.06375
1.86943
2.6562
3.41527
4.13761
4.81428
5.43633
5.99519
6.48258
6.89074
7.21246
7.44121
7.57146
7.59884
7.52001
7.33308
7.03772
6.6351
6.12841
5.52265
4.82457
4.04308
3.18903
2.27481
1.31459
0.324105
-0.679431
-1.67768
-2.65175
-3.58188
-4.44822
-5.23147
-5.91281
-6.47473
-6.90153
-7.17983
-7.29918
-7.25224
-7.03545
-6.64938
-6.099
-5.39375
-4.54758
-3.57937
-2.51184
-1.37219
-0.19045
0.99975
2.16254
3.262
4.262
5.12778
5.82723
6.33241
6.62042
6.67545
6.48897
6.06135
5.40224
4.53061
3.47495
2.27335
0.971454
-0.381942
-1.72509
-3.00087
-4.15074
-5.11798
-5.85207
-6.31171
-6.46662
-6.3017
-5.81677
-5.02946
-3.97444
-2.70344
-1.28392
0.210998
1.68808
3.06156
4.24529
5.15964
5.73957
5.93922
5.73696
5.13775
4.17481
2.91069
1.43376
-0.155649
-1.73175
-3.17199
-4.36028
-5.19129
-5.5874
-5.50619
-4.94799
-3.95852
-2.62943
-1.08486
0.55915
2.06968
3.32905
4.19587
4.57091
4.40538
3.72257
2.61527
1.25607
-0.523308
-1.9351
-3.13276
-3.91564
-4.1614
-3.82851
-2.96085
-1.68618
-0.179739
1.33472
2.63023
3.51282
3.83939
3.55626
2.71484
1.4572
-0.0478747
-1.48522
-2.65969
-3.36653
-3.48493
-3.00234
-2.01867
-0.708247
0.654875
1.83509
2.60461
2.81881
2.43827
1.53796
0.332072
-0.941088
-2.00122
-2.60696
-27.7767
-27.7704
-27.7585
-27.7436
-27.7224
-27.71
-27.6803
-27.6882
-10.6539
-10.6284
-10.7171
-10.768
-10.8274
-10.8738
-10.9031
-10.9079
-10.8841
-10.8257
-10.7282
-10.5871
-10.399
-10.1607
-9.87023
-9.52567
-9.12606
-8.67098
-8.16083
-7.59673
-6.98042
-6.31436
-5.60163
-4.84596
-4.05181
-3.22448
-2.37006
-1.49595
-0.601179
0.29209
1.18349
2.06336
2.92227
3.75059
4.53847
5.27616
5.95391
6.5624
7.09267
7.53631
7.88551
8.13317
8.27329
8.30114
8.21285
8.00656
7.68196
7.24033
6.68518
6.02198
5.25818
4.40353
3.46997
2.47104
1.42221
0.340699
-0.754693
-1.84395
-2.90651
-3.92081
-4.86524
-5.71875
-6.46077
-7.07218
-7.53589
-7.83735
-7.9652
-7.91145
-7.67228
-7.24846
-6.64545
-5.87365
-4.94839
-3.89014
-2.72393
-1.47925
-0.189315
1.10962
2.37825
3.57733
4.66743
5.61074
6.37232
6.92174
7.23389
7.29175
7.08563
6.61646
5.89479
4.94165
3.78809
2.47569
1.05458
-0.422798
-1.88758
-3.27868
-4.53191
-5.58548
-6.3843
-6.88374
-7.05199
-6.86769
-6.33571
-5.47434
-4.32137
-2.93337
-1.38417
0.246324
1.85667
3.35356
4.64279
5.63767
6.26773
6.48289
6.25844
5.60151
4.54851
3.16783
1.55595
-0.176267
-1.89363
-3.46211
-4.75496
-5.65734
-6.08466
-5.99088
-5.37645
-4.29148
-2.83633
-1.14871
0.640734
2.28816
3.66012
4.60157
5.00554
4.81677
4.06286
2.84423
1.35372
-0.57245
-2.1158
-3.42513
-4.2783
-4.54338
-4.17608
-3.22518
-1.83066
-0.188094
1.46218
2.87232
3.83065
4.18223
3.86916
2.94737
1.57607
-0.0554924
-1.61755
-2.89101
-3.65403
-3.77689
-3.24554
-2.17269
-0.750465
0.729533
2.00781
2.83819
3.06528
2.64732
1.6705
0.359503
-1.02264
-2.17227
-2.82887
-30.5793
-30.5754
-30.5676
-30.5585
-30.544
-30.5372
-30.5176
-30.5231
-11.8173
-11.7885
-11.8661
-11.9101
-11.9494
-11.969
-11.9698
-11.9474
-11.8971
-11.8122
-11.6875
-11.5178
-11.2994
-11.0289
-10.7037
-10.3216
-9.88131
-9.38215
-8.82443
-8.20929
-7.53859
-6.81489
-6.04141
-5.22204
-4.36146
-3.46529
-2.54
-1.5927
-0.628314
0.339081
1.3031
2.25418
3.18227
4.07696
4.92759
5.72367
6.45469
7.11058
7.68178
8.15921
8.53456
8.80011
8.94944
8.97764
8.88
8.65485
8.3019
7.82255
7.22056
6.50191
5.67466
4.74945
3.73924
2.65871
1.52459
0.35545
-0.828329
-2.0051
-3.15275
-4.24793
-5.26741
-6.18846
-6.98878
-7.64765
-8.14671
-8.47029
-8.60621
-8.54567
-8.28472
-7.82441
-7.1706
-6.33463
-5.33317
-4.18822
-2.92703
-1.58141
-0.18715
1.21631
2.58669
3.88149
5.0581
6.07585
6.89705
7.48884
7.82399
7.88446
7.65921
7.14989
6.36793
5.33612
4.08836
2.66923
1.13331
-0.462986
-2.04477
-3.5468
-4.8993
-6.03576
-6.89661
-7.43404
-7.61555
-7.41177
-6.83443
-5.90168
-4.65441
-3.15377
-1.47976
0.281216
2.01943
3.63494
5.02543
6.09748
6.77542
7.00533
6.75921
6.04666
4.90678
3.41389
1.67218
-0.197284
-2.05025
-3.74197
-5.1352
-6.10601
-6.5631
-6.4569
-5.78812
-4.61089
-3.03376
-1.20805
0.719818
2.49944
3.97975
4.9926
5.42418
5.21237
4.38927
3.06096
1.43547
-0.610274
-2.28825
-3.70688
-4.62773
-4.91112
-4.51033
-3.47901
-1.96871
-0.195266
1.5852
3.10542
4.13614
4.51137
4.1692
3.16955
1.68824
-0.062952
-1.74519
-3.11332
-3.92978
-4.05657
-3.4779
-2.31894
-0.79031
0.801922
2.17382
3.06205
3.30114
2.84684
1.79718
0.385256
-1.10108
-2.33615
-3.0413
-33.0708
-33.0684
-33.0625
-33.056
-33.0442
-33.0393
-33.0243
-33.027
-12.8313
-12.7991
-12.8804
-12.9362
-12.9624