/*--------------------------------*- C++ -*----------------------------------*\
  =========                 |
  \\      /  F ield         | OpenFOAM: The Open Source CFD Toolbox
   \\    /   O peration     | Website:  https://openfoam.org
    \\  /    A nd           | Version:  12
     \\/     M anipulation  |
\*---------------------------------------------------------------------------*/
FoamFile
{
    format      ascii;
    class       volVectorField;
    location    "0.3";
    object      U;
}
// * * * * * * * * * * * * * * * * * * * * * * * * * * * * * * * * * * * * * //

dimensions      [0 1 -1 0 0 0 0];

internalField   nonuniform List<vector> 
3829
(
(-1.22804e-06 1.19954e-05 0)
(-3.70135e-06 1.20017e-05 0)
(-6.20113e-06 1.19848e-05 0)
(-8.72629e-06 1.19588e-05 0)
(-1.12748e-05 1.19231e-05 0)
(-1.38449e-05 1.18771e-05 0)
(-1.64345e-05 1.18202e-05 0)
(-1.90414e-05 1.17516e-05 0)
(-2.16631e-05 1.16704e-05 0)
(-2.42968e-05 1.15758e-05 0)
(-2.69392e-05 1.14667e-05 0)
(-2.95866e-05 1.1342e-05 0)
(-3.22352e-05 1.12008e-05 0)
(-3.48805e-05 1.1042e-05 0)
(-3.75175e-05 1.08644e-05 0)
(-4.01409e-05 1.06671e-05 0)
(-4.27448e-05 1.04493e-05 0)
(-4.53228e-05 1.02101e-05 0)
(-4.78683e-05 9.94892e-06 0)
(-5.03741e-05 9.66534e-06 0)
(-5.28328e-05 9.35916e-06 0)
(-5.52365e-05 9.03042e-06 0)
(-5.75775e-05 8.67944e-06 0)
(-5.98477e-05 8.30683e-06 0)
(-6.20389e-05 7.91349e-06 0)
(-6.41434e-05 7.50063e-06 0)
(-6.61532e-05 7.06974e-06 0)
(-6.80611e-05 6.6226e-06 0)
(-6.98602e-05 6.16121e-06 0)
(-7.15442e-05 5.68779e-06 0)
(-7.31078e-05 5.20474e-06 0)
(-7.45466e-05 4.71452e-06 0)
(-7.5856e-05 4.21989e-06 0)
(-7.70302e-05 3.72382e-06 0)
(-7.80643e-05 3.22922e-06 0)
(-7.89549e-05 2.73892e-06 0)
(-7.96998e-05 2.25567e-06 0)
(-8.02977e-05 1.78204e-06 0)
(-8.07485e-05 1.32042e-06 0)
(-8.10528e-05 8.73029e-07 0)
(-8.12112e-05 4.42084e-07 0)
(-8.12285e-05 2.85301e-08 0)
(-8.11135e-05 -3.67027e-07 0)
(-8.08714e-05 -7.43009e-07 0)
(-8.05057e-05 -1.09825e-06 0)
(-8.00208e-05 -1.43184e-06 0)
(-7.94216e-05 -1.74311e-06 0)
(-7.87135e-05 -2.03162e-06 0)
(-7.79024e-05 -2.29716e-06 0)
(-7.69943e-05 -2.53968e-06 0)
(-7.59954e-05 -2.75932e-06 0)
(-7.4912e-05 -2.95637e-06 0)
(-7.37507e-05 -3.13128e-06 0)
(-7.25178e-05 -3.28461e-06 0)
(-7.12199e-05 -3.41703e-06 0)
(-6.98632e-05 -3.52933e-06 0)
(-6.84542e-05 -3.62234e-06 0)
(-6.6999e-05 -3.69697e-06 0)
(-6.55036e-05 -3.75419e-06 0)
(-6.39737e-05 -3.79499e-06 0)
(-6.24149e-05 -3.82041e-06 0)
(-6.08327e-05 -3.83147e-06 0)
(-5.92322e-05 -3.82922e-06 0)
(-5.76186e-05 -3.81469e-06 0)
(-5.59964e-05 -3.78892e-06 0)
(-5.437e-05 -3.75289e-06 0)
(-5.27434e-05 -3.7076e-06 0)
(-5.11204e-05 -3.65398e-06 0)
(-4.95049e-05 -3.59295e-06 0)
(-4.79005e-05 -3.52539e-06 0)
(-4.63099e-05 -3.45212e-06 0)
(-4.47359e-05 -3.37392e-06 0)
(-4.31817e-05 -3.29155e-06 0)
(-4.16492e-05 -3.2057e-06 0)
(-4.01403e-05 -3.11699e-06 0)
(-3.86574e-05 -3.02606e-06 0)
(-3.72021e-05 -2.93346e-06 0)
(-3.57759e-05 -2.83969e-06 0)
(-3.43801e-05 -2.74523e-06 0)
(-3.30162e-05 -2.65051e-06 0)
(-3.16849e-05 -2.55589e-06 0)
(-3.03869e-05 -2.46171e-06 0)
(-2.91231e-05 -2.36827e-06 0)
(-2.78939e-05 -2.27585e-06 0)
(-2.66997e-05 -2.18468e-06 0)
(-2.55405e-05 -2.09496e-06 0)
(-2.44166e-05 -2.00689e-06 0)
(-2.33281e-05 -1.92064e-06 0)
(-2.22749e-05 -1.83633e-06 0)
(-2.12566e-05 -1.75408e-06 0)
(-2.02732e-05 -1.67399e-06 0)
(-1.93241e-05 -1.59615e-06 0)
(-1.84091e-05 -1.52063e-06 0)
(-1.75276e-05 -1.44747e-06 0)
(-1.66791e-05 -1.37671e-06 0)
(-1.58632e-05 -1.30837e-06 0)
(-1.5079e-05 -1.24247e-06 0)
(-1.43259e-05 -1.17902e-06 0)
(-1.36033e-05 -1.11798e-06 0)
(-1.29103e-05 -1.05933e-06 0)
(-1.22463e-05 -1.00307e-06 0)
(-1.16104e-05 -9.49137e-07 0)
(-1.1002e-05 -8.97498e-07 0)
(-1.04201e-05 -8.48098e-07 0)
(-9.86404e-06 -8.00879e-07 0)
(-9.333e-06 -7.55787e-07 0)
(-8.82622e-06 -7.12759e-07 0)
(-8.34287e-06 -6.71728e-07 0)
(-7.88218e-06 -6.3263e-07 0)
(-7.4434e-06 -5.95398e-07 0)
(-7.02574e-06 -5.59964e-07 0)
(-6.62852e-06 -5.26267e-07 0)
(-6.25098e-06 -4.9424e-07 0)
(-5.89241e-06 -4.63823e-07 0)
(-5.55216e-06 -4.34958e-07 0)
(-5.22947e-06 -4.07582e-07 0)
(-4.92364e-06 -3.81639e-07 0)
(-4.63406e-06 -3.5708e-07 0)
(-4.36011e-06 -3.33857e-07 0)
(-4.10108e-06 -3.11916e-07 0)
(-3.85632e-06 -2.9121e-07 0)
(-3.62524e-06 -2.71693e-07 0)
(-3.40723e-06 -2.5332e-07 0)
(-3.20164e-06 -2.3604e-07 0)
(-3.0079e-06 -2.19808e-07 0)
(-2.82545e-06 -2.04576e-07 0)
(-2.6537e-06 -1.90293e-07 0)
(-2.49211e-06 -1.76911e-07 0)
(-2.34019e-06 -1.64381e-07 0)
(-2.1974e-06 -1.52654e-07 0)
(-2.06329e-06 -1.41688e-07 0)
(-1.93741e-06 -1.31439e-07 0)
(-1.8193e-06 -1.21869e-07 0)
(-1.70855e-06 -1.12945e-07 0)
(-1.60473e-06 -1.04636e-07 0)
(-1.50743e-06 -9.6916e-08 0)
(-1.41629e-06 -8.97615e-08 0)
(-1.33089e-06 -8.31476e-08 0)
(-1.25085e-06 -7.70471e-08 0)
(-1.1758e-06 -7.14296e-08 0)
(-1.10539e-06 -6.62583e-08 0)
(-1.03929e-06 -6.14893e-08 0)
(-9.77212e-07 -5.70727e-08 0)
(-9.18916e-07 -5.29558e-08 0)
(-8.64218e-07 -4.90859e-08 0)
(-8.12965e-07 -4.54129e-08 0)
(-7.65053e-07 -4.1895e-08 0)
(-7.20424e-07 -3.85011e-08 0)
(-6.7903e-07 -3.52114e-08 0)
(-6.40841e-07 -3.20179e-08 0)
(-6.0583e-07 -2.89208e-08 0)
(-5.7396e-07 -2.59253e-08 0)
(-5.45184e-07 -2.30386e-08 0)
(-5.19445e-07 -2.02673e-08 0)
(-4.96674e-07 -1.76168e-08 0)
(-4.76794e-07 -1.50928e-08 0)
(-4.59715e-07 -1.27013e-08 0)
(-4.45335e-07 -1.04529e-08 0)
(-4.33539e-07 -8.36327e-09 0)
(-4.24185e-07 -6.4532e-09 0)
(-4.17093e-07 -4.75085e-09 0)
(-4.12028e-07 -3.28888e-09 0)
(-4.08692e-07 -2.09396e-09 0)
(-4.0674e-07 -1.18115e-09 0)
(-4.058e-07 -5.46013e-10 0)
(-4.05506e-07 -1.76378e-10 0)
(-4.0552e-07 -2.63799e-11 0)
(-4.05574e-07 -6.00825e-11 0)
(-4.05464e-07 -2.2544e-10 0)
(-4.05028e-07 -4.76125e-10 0)
(-4.04158e-07 -7.73495e-10 0)
(-4.0281e-07 -1.08121e-09 0)
(-4.00996e-07 -1.3599e-09 0)
(-3.9878e-07 -1.56721e-09 0)
(-3.96293e-07 -1.66535e-09 0)
(-3.93725e-07 -1.63227e-09 0)
(-3.9129e-07 -1.47187e-09 0)
(-3.89178e-07 -1.21926e-09 0)
(-3.87501e-07 -9.36857e-10 0)
(-3.86261e-07 -7.03575e-10 0)
(-3.85329e-07 -5.84364e-10 0)
(-3.84469e-07 -6.10484e-10 0)
(-3.83415e-07 -7.72976e-10 0)
(-3.81959e-07 -1.01495e-09 0)
(-3.80035e-07 -1.22949e-09 0)
(-3.77783e-07 -1.30805e-09 0)
(-3.75519e-07 -1.1844e-09 0)
(-3.73635e-07 -8.80493e-10 0)
(-3.72442e-07 -5.36002e-10 0)
(-3.71852e-07 -4.23447e-10 0)
(-3.7114e-07 -8.77917e-10 0)
(-3.68908e-07 -2.2495e-09 0)
(-3.63105e-07 -4.79535e-09 0)
(-3.51163e-07 -8.66376e-09 0)
(-3.30359e-07 -1.3779e-08 0)
(-2.98271e-07 -1.98591e-08 0)
(-2.53217e-07 -2.64166e-08 0)
(-1.9463e-07 -3.27283e-08 0)
(-1.23381e-07 -3.78821e-08 0)
(-4.24276e-08 -4.09068e-08 0)
(-1.30438e-06 3.53644e-05 0)
(-3.93404e-06 3.5386e-05 0)
(-6.59239e-06 3.53464e-05 0)
(-9.28105e-06 3.52849e-05 0)
(-1.1999e-05 3.51997e-05 0)
(-1.47456e-05 3.50887e-05 0)
(-1.75202e-05 3.49495e-05 0)
(-2.03215e-05 3.47793e-05 0)
(-2.3148e-05 3.45746e-05 0)
(-2.59976e-05 3.43319e-05 0)
(-2.88675e-05 3.40471e-05 0)
(-3.17541e-05 3.3716e-05 0)
(-3.46533e-05 3.33342e-05 0)
(-3.756e-05 3.28972e-05 0)
(-4.0468e-05 3.24006e-05 0)
(-4.33706e-05 3.18403e-05 0)
(-4.62597e-05 3.12126e-05 0)
(-4.91265e-05 3.0514e-05 0)
(-5.19615e-05 2.9742e-05 0)
(-5.47544e-05 2.88946e-05 0)
(-5.74941e-05 2.79708e-05 0)
(-6.01693e-05 2.69707e-05 0)
(-6.27681e-05 2.58954e-05 0)
(-6.52789e-05 2.4747e-05 0)
(-6.76897e-05 2.3529e-05 0)
(-6.99893e-05 2.2246e-05 0)
(-7.21667e-05 2.09036e-05 0)
(-7.4212e-05 1.95085e-05 0)
(-7.61161e-05 1.80682e-05 0)
(-7.78715e-05 1.65909e-05 0)
(-7.94722e-05 1.50853e-05 0)
(-8.09128e-05 1.35602e-05 0)
(-8.21865e-05 1.20257e-05 0)
(-8.32878e-05 1.04921e-05 0)
(-8.42139e-05 8.9691e-06 0)
(-8.49639e-05 7.46617e-06 0)
(-8.55381e-05 5.99226e-06 0)
(-8.59386e-05 4.55553e-06 0)
(-8.61682e-05 3.16367e-06 0)
(-8.62295e-05 1.82405e-06 0)
(-8.61314e-05 5.39965e-07 0)
(-8.58884e-05 -6.86043e-07 0)
(-8.5506e-05 -1.84971e-06 0)
(-8.49867e-05 -2.94746e-06 0)
(-8.4338e-05 -3.97671e-06 0)
(-8.35673e-05 -4.9356e-06 0)
(-8.26825e-05 -5.82302e-06 0)
(-8.16914e-05 -6.63854e-06 0)
(-8.06018e-05 -7.38232e-06 0)
(-7.94218e-05 -8.05507e-06 0)
(-7.81591e-05 -8.65798e-06 0)
(-7.68215e-05 -9.19267e-06 0)
(-7.54166e-05 -9.66111e-06 0)
(-7.39517e-05 -1.00656e-05 0)
(-7.24341e-05 -1.04088e-05 0)
(-7.08704e-05 -1.06933e-05 0)
(-6.92675e-05 -1.09222e-05 0)
(-6.76317e-05 -1.10986e-05 0)
(-6.59691e-05 -1.12255e-05 0)
(-6.42852e-05 -1.13062e-05 0)
(-6.25853e-05 -1.13439e-05 0)
(-6.08747e-05 -1.13419e-05 0)
(-5.91582e-05 -1.13032e-05 0)
(-5.74404e-05 -1.1231e-05 0)
(-5.57254e-05 -1.11284e-05 0)
(-5.40169e-05 -1.09982e-05 0)
(-5.23185e-05 -1.08433e-05 0)
(-5.06334e-05 -1.06665e-05 0)
(-4.89647e-05 -1.04702e-05 0)
(-4.73155e-05 -1.0257e-05 0)
(-4.56879e-05 -1.00292e-05 0)
(-4.4084e-05 -9.78891e-06 0)
(-4.25063e-05 -9.53823e-06 0)
(-4.09564e-05 -9.27902e-06 0)
(-3.94355e-05 -9.01298e-06 0)
(-3.79455e-05 -8.74183e-06 0)
(-3.64876e-05 -8.46705e-06 0)
(-3.50625e-05 -8.18995e-06 0)
(-3.36714e-05 -7.91178e-06 0)
(-3.2315e-05 -7.6337e-06 0)
(-3.09937e-05 -7.35666e-06 0)
(-2.97079e-05 -7.08153e-06 0)
(-2.84581e-05 -6.80916e-06 0)
(-2.72446e-05 -6.54025e-06 0)
(-2.60673e-05 -6.27543e-06 0)
(-2.49261e-05 -6.0152e-06 0)
(-2.3821e-05 -5.76009e-06 0)
(-2.27521e-05 -5.51055e-06 0)
(-2.17189e-05 -5.2669e-06 0)
(-2.0721e-05 -5.02945e-06 0)
(-1.9758e-05 -4.79845e-06 0)
(-1.88296e-05 -4.57412e-06 0)
(-1.79352e-05 -4.35664e-06 0)
(-1.70742e-05 -4.14612e-06 0)
(-1.6246e-05 -3.94265e-06 0)
(-1.54499e-05 -3.74628e-06 0)
(-1.46853e-05 -3.55702e-06 0)
(-1.39514e-05 -3.37487e-06 0)
(-1.32475e-05 -3.19976e-06 0)
(-1.25726e-05 -3.0316e-06 0)
(-1.19261e-05 -2.87034e-06 0)
(-1.13072e-05 -2.71582e-06 0)
(-1.07151e-05 -2.56792e-06 0)
(-1.0149e-05 -2.42648e-06 0)
(-9.60799e-06 -2.29132e-06 0)
(-9.09137e-06 -2.16228e-06 0)
(-8.59838e-06 -2.03917e-06 0)
(-8.12818e-06 -1.92178e-06 0)
(-7.68003e-06 -1.80994e-06 0)
(-7.25318e-06 -1.70344e-06 0)
(-6.84686e-06 -1.60208e-06 0)
(-6.46041e-06 -1.50568e-06 0)
(-6.0931e-06 -1.41406e-06 0)
(-5.74424e-06 -1.32703e-06 0)
(-5.4132e-06 -1.24444e-06 0)
(-5.09926e-06 -1.1661e-06 0)
(-4.80175e-06 -1.09186e-06 0)
(-4.52005e-06 -1.02156e-06 0)
(-4.25357e-06 -9.55093e-07 0)
(-4.00165e-06 -8.92292e-07 0)
(-3.76362e-06 -8.33027e-07 0)
(-3.53892e-06 -7.77174e-07 0)
(-3.32694e-06 -7.24603e-07 0)
(-3.12705e-06 -6.75171e-07 0)
(-2.93867e-06 -6.28746e-07 0)
(-2.76126e-06 -5.85192e-07 0)
(-2.59423e-06 -5.44359e-07 0)
(-2.43705e-06 -5.06106e-07 0)
(-2.28924e-06 -4.7029e-07 0)
(-2.15029e-06 -4.36766e-07 0)
(-2.01976e-06 -4.05408e-07 0)
(-1.89721e-06 -3.76093e-07 0)
(-1.78223e-06 -3.48708e-07 0)
(-1.6744e-06 -3.23162e-07 0)
(-1.57333e-06 -2.99369e-07 0)
(-1.47864e-06 -2.77262e-07 0)
(-1.38994e-06 -2.5678e-07 0)
(-1.30684e-06 -2.37858e-07 0)
(-1.22894e-06 -2.20426e-07 0)
(-1.15586e-06 -2.04399e-07 0)
(-1.08723e-06 -1.89672e-07 0)
(-1.0227e-06 -1.76115e-07 0)
(-9.61979e-07 -1.63574e-07 0)
(-9.04822e-07 -1.51888e-07 0)
(-8.51061e-07 -1.40893e-07 0)
(-8.00567e-07 -1.30435e-07 0)
(-7.53275e-07 -1.20387e-07 0)
(-7.09167e-07 -1.10658e-07 0)
(-6.68238e-07 -1.01198e-07 0)
(-6.30491e-07 -9.19917e-08 0)
(-5.95923e-07 -8.30503e-08 0)
(-5.64507e-07 -7.43982e-08 0)
(-5.36197e-07 -6.60616e-08 0)
(-5.10934e-07 -5.80617e-08 0)
(-4.88645e-07 -5.04117e-08 0)
(-4.69254e-07 -4.3123e-08 0)
(-4.52681e-07 -3.62096e-08 0)
(-4.38833e-07 -2.96967e-08 0)
(-4.27611e-07 -2.36273e-08 0)
(-4.18891e-07 -1.80631e-08 0)
(-4.12506e-07 -1.30945e-08 0)
(-4.08218e-07 -8.8249e-09 0)
(-4.05702e-07 -5.35629e-09 0)
(-4.04567e-07 -2.73474e-09 0)
(-4.04404e-07 -9.65457e-10 0)
(-4.04791e-07 3.85911e-11 0)
(-4.05361e-07 3.67304e-10 0)
(-4.05842e-07 1.66905e-10 0)
(-4.06021e-07 -4.0855e-10 0)
(-4.05756e-07 -1.21598e-09 0)
(-4.04955e-07 -2.15157e-09 0)
(-4.03578e-07 -3.1116e-09 0)
(-4.01632e-07 -3.9809e-09 0)
(-3.99185e-07 -4.63082e-09 0)
(-3.96399e-07 -4.93843e-09 0)
(-3.93515e-07 -4.82754e-09 0)
(-3.90817e-07 -4.30498e-09 0)
(-3.88564e-07 -3.48356e-09 0)
(-3.86914e-07 -2.56854e-09 0)
(-3.85867e-07 -1.81313e-09 0)
(-3.85234e-07 -1.42842e-09 0)
(-3.8469e-07 -1.52656e-09 0)
(-3.83873e-07 -2.0777e-09 0)
(-3.82466e-07 -2.89611e-09 0)
(-3.80355e-07 -3.64242e-09 0)
(-3.77732e-07 -3.93721e-09 0)
(-3.75059e-07 -3.53555e-09 0)
(-3.72948e-07 -2.46968e-09 0)
(-3.71966e-07 -1.15945e-09 0)
(-3.72214e-07 -4.31122e-10 0)
(-3.73025e-07 -1.41846e-09 0)
(-3.72899e-07 -5.15954e-09 0)
(-3.69562e-07 -1.24559e-08 0)
(-3.60104e-07 -2.37398e-08 0)
(-3.41376e-07 -3.88152e-08 0)
(-3.10573e-07 -5.68632e-08 0)
(-2.65612e-07 -7.64332e-08 0)
(-2.05569e-07 -9.54372e-08 0)
(-1.31187e-07 -1.11092e-07 0)
(-4.53389e-08 -1.20489e-07 0)
(-1.39613e-06 5.7528e-05 0)
(-4.21234e-06 5.7582e-05 0)
(-7.06528e-06 5.75648e-05 0)
(-9.96067e-06 5.75347e-05 0)
(-1.29013e-05 5.74873e-05 0)
(-1.58905e-05 5.74169e-05 0)
(-1.89319e-05 5.73167e-05 0)
(-2.20283e-05 5.7179e-05 0)
(-2.51815e-05 5.69952e-05 0)
(-2.83927e-05 5.67557e-05 0)
(-3.16611e-05 5.64498e-05 0)
(-3.49838e-05 5.60657e-05 0)
(-3.83568e-05 5.55912e-05 0)
(-4.17732e-05 5.50139e-05 0)
(-4.52239e-05 5.43217e-05 0)
(-4.8698e-05 5.3503e-05 0)
(-5.21817e-05 5.25473e-05 0)
(-5.56595e-05 5.14455e-05 0)
(-5.91141e-05 5.01902e-05 0)
(-6.25263e-05 4.8776e-05 0)
(-6.58756e-05 4.72e-05 0)
(-6.91407e-05 4.5462e-05 0)
(-7.22995e-05 4.35646e-05 0)
(-7.53303e-05 4.15134e-05 0)
(-7.82116e-05 3.93173e-05 0)
(-8.09233e-05 3.69878e-05 0)
(-8.34468e-05 3.45397e-05 0)
(-8.57663e-05 3.19899e-05 0)
(-8.78687e-05 2.93569e-05 0)
(-8.9745e-05 2.66605e-05 0)
(-9.13891e-05 2.39206e-05 0)
(-9.27915e-05 2.116e-05 0)
(-9.39438e-05 1.84014e-05 0)
(-9.4846e-05 1.56662e-05 0)
(-9.55013e-05 1.29744e-05 0)
(-9.59154e-05 1.03441e-05 0)
(-9.60964e-05 7.79203e-06 0)
(-9.60529e-05 5.33307e-06 0)
(-9.57922e-05 2.98054e-06 0)
(-9.53404e-05 7.36947e-07 0)
(-9.47259e-05 -1.39116e-06 0)
(-9.39506e-05 -3.39667e-06 0)
(-9.30185e-05 -5.27411e-06 0)
(-9.19439e-05 -7.02048e-06 0)
(-9.074e-05 -8.63431e-06 0)
(-8.94193e-05 -1.01153e-05 0)
(-8.79942e-05 -1.14646e-05 0)
(-8.64761e-05 -1.2684e-05 0)
(-8.48765e-05 -1.37765e-05 0)
(-8.32057e-05 -1.47458e-05 0)
(-8.1474e-05 -1.55962e-05 0)
(-7.96907e-05 -1.63323e-05 0)
(-7.78646e-05 -1.69595e-05 0)
(-7.6004e-05 -1.74831e-05 0)
(-7.41164e-05 -1.79088e-05 0)
(-7.22089e-05 -1.82426e-05 0)
(-7.02881e-05 -1.84903e-05 0)
(-6.83601e-05 -1.86578e-05 0)
(-6.64301e-05 -1.87509e-05 0)
(-6.45032e-05 -1.87755e-05 0)
(-6.25836e-05 -1.87372e-05 0)
(-6.06759e-05 -1.86414e-05 0)
(-5.87835e-05 -1.84935e-05 0)
(-5.69101e-05 -1.82986e-05 0)
(-5.50586e-05 -1.80614e-05 0)
(-5.32314e-05 -1.77867e-05 0)
(-5.14309e-05 -1.74788e-05 0)
(-4.96591e-05 -1.71417e-05 0)
(-4.79181e-05 -1.67795e-05 0)
(-4.62095e-05 -1.63958e-05 0)
(-4.45346e-05 -1.59938e-05 0)
(-4.28942e-05 -1.55767e-05 0)
(-4.129e-05 -1.51476e-05 0)
(-3.97225e-05 -1.47091e-05 0)
(-3.81919e-05 -1.42634e-05 0)
(-3.66994e-05 -1.3813e-05 0)
(-3.52453e-05 -1.336e-05 0)
(-3.38294e-05 -1.29059e-05 0)
(-3.24522e-05 -1.24527e-05 0)
(-3.1114e-05 -1.20017e-05 0)
(-2.98144e-05 -1.15544e-05 0)
(-2.85534e-05 -1.11118e-05 0)
(-2.73309e-05 -1.06752e-05 0)
(-2.61468e-05 -1.02453e-05 0)
(-2.50008e-05 -9.82317e-06 0)
(-2.38922e-05 -9.40932e-06 0)
(-2.28208e-05 -9.00448e-06 0)
(-2.17864e-05 -8.60926e-06 0)
(-2.07882e-05 -8.22406e-06 0)
(-1.98257e-05 -7.84927e-06 0)
(-1.88982e-05 -7.48522e-06 0)
(-1.80053e-05 -7.13216e-06 0)
(-1.71461e-05 -6.79034e-06 0)
(-1.632e-05 -6.45986e-06 0)
(-1.55262e-05 -6.14079e-06 0)
(-1.4764e-05 -5.83321e-06 0)
(-1.40324e-05 -5.53706e-06 0)
(-1.33308e-05 -5.25231e-06 0)
(-1.26582e-05 -4.97881e-06 0)
(-1.20137e-05 -4.71638e-06 0)
(-1.13967e-05 -4.46489e-06 0)
(-1.08061e-05 -4.2241e-06 0)
(-1.02413e-05 -3.99375e-06 0)
(-9.70132e-06 -3.77358e-06 0)
(-9.18536e-06 -3.56328e-06 0)
(-8.69269e-06 -3.36256e-06 0)
(-8.22254e-06 -3.17113e-06 0)
(-7.7741e-06 -2.98863e-06 0)
(-7.34664e-06 -2.81476e-06 0)
(-6.93947e-06 -2.64921e-06 0)
(-6.55185e-06 -2.49164e-06 0)
(-6.18314e-06 -2.34178e-06 0)
(-5.83267e-06 -2.19932e-06 0)
(-5.4998e-06 -2.06398e-06 0)
(-5.18393e-06 -1.93551e-06 0)
(-4.88439e-06 -1.81363e-06 0)
(-4.60055e-06 -1.69809e-06 0)
(-4.33185e-06 -1.58869e-06 0)
(-4.07772e-06 -1.48523e-06 0)
(-3.83752e-06 -1.38748e-06 0)
(-3.61063e-06 -1.29524e-06 0)
(-3.39649e-06 -1.20834e-06 0)
(-3.1945e-06 -1.12657e-06 0)
(-3.00405e-06 -1.04971e-06 0)
(-2.82455e-06 -9.77562e-07 0)
(-2.65547e-06 -9.09909e-07 0)
(-2.49624e-06 -8.46509e-07 0)
(-2.34635e-06 -7.87129e-07 0)
(-2.20531e-06 -7.31533e-07 0)
(-2.07266e-06 -6.79486e-07 0)
(-1.94798e-06 -6.30777e-07 0)
(-1.8309e-06 -5.85209e-07 0)
(-1.72102e-06 -5.42605e-07 0)
(-1.618e-06 -5.02827e-07 0)
(-1.52146e-06 -4.65755e-07 0)
(-1.43107e-06 -4.31302e-07 0)
(-1.34644e-06 -3.99394e-07 0)
(-1.2672e-06 -3.69958e-07 0)
(-1.1929e-06 -3.42901e-07 0)
(-1.12315e-06 -3.18105e-07 0)
(-1.05752e-06 -2.95404e-07 0)
(-9.95628e-07 -2.74582e-07 0)
(-9.3715e-07 -2.55372e-07 0)
(-8.81843e-07 -2.37483e-07 0)
(-8.29559e-07 -2.20622e-07 0)
(-7.80225e-07 -2.04511e-07 0)
(-7.33848e-07 -1.88934e-07 0)
(-6.90501e-07 -1.73746e-07 0)
(-6.50263e-07 -1.58883e-07 0)
(-6.13199e-07 -1.44353e-07 0)
(-5.79345e-07 -1.30209e-07 0)
(-5.48683e-07 -1.16517e-07 0)
(-5.2116e-07 -1.03334e-07 0)
(-4.96698e-07 -9.06977e-08 0)
(-4.75212e-07 -7.86215e-08 0)
(-4.56626e-07 -6.71086e-08 0)
(-4.40871e-07 -5.61646e-08 0)
(-4.2788e-07 -4.58145e-08 0)
(-4.17585e-07 -3.61234e-08 0)
(-4.09906e-07 -2.71968e-08 0)
(-4.04712e-07 -1.91951e-08 0)
(-4.01773e-07 -1.23266e-08 0)
(-4.0071e-07 -6.78537e-09 0)
(-4.01047e-07 -2.68832e-09 0)
(-4.02245e-07 -2.14888e-11 0)
(-4.03818e-07 1.31671e-09 0)
(-4.05362e-07 1.53571e-09 0)
(-4.06544e-07 9.28422e-10 0)
(-4.07174e-07 -2.37432e-10 0)
(-4.07162e-07 -1.73595e-09 0)
(-4.06456e-07 -3.41094e-09 0)
(-4.0501e-07 -5.11509e-09 0)
(-4.02814e-07 -6.67118e-09 0)
(-3.99934e-07 -7.85394e-09 0)
(-3.9657e-07 -8.42077e-09 0)
(-3.93067e-07 -8.20881e-09 0)
(-3.89849e-07 -7.21289e-09 0)
(-3.87319e-07 -5.64209e-09 0)
(-3.85729e-07 -3.88573e-09 0)
(-3.85072e-07 -2.43831e-09 0)
(-3.85051e-07 -1.70578e-09 0)
(-3.85167e-07 -1.92168e-09 0)
(-3.84846e-07 -3.04201e-09 0)
(-3.83569e-07 -4.72069e-09 0)
(-3.81096e-07 -6.29493e-09 0)
(-3.77685e-07 -6.99267e-09 0)
(-3.74081e-07 -6.26919e-09 0)
(-3.71332e-07 -4.08605e-09 0)
(-3.70502e-07 -1.1419e-09 0)
(-3.72143e-07 1.13641e-09 0)
(-3.75667e-07 5.99908e-10 0)
(-3.79302e-07 -4.7177e-09 0)
(-3.80377e-07 -1.60591e-08 0)
(-3.75375e-07 -3.41838e-08 0)
(-3.60431e-07 -5.88867e-08 0)
(-3.32037e-07 -8.87882e-08 0)
(-2.87456e-07 -1.21514e-07 0)
(-2.2507e-07 -1.53756e-07 0)
(-1.45324e-07 -1.80674e-07 0)
(-5.06966e-08 -1.97476e-07 0)
(-1.37612e-06 7.78603e-05 0)
(-4.159e-06 7.79981e-05 0)
(-6.99987e-06 7.81094e-05 0)
(-9.91916e-06 7.82697e-05 0)
(-1.2934e-05 7.847e-05 0)
(-1.60597e-05 7.86971e-05 0)
(-1.93072e-05 7.89341e-05 0)
(-2.26825e-05 7.91598e-05 0)
(-2.61933e-05 7.93502e-05 0)
(-2.98499e-05 7.9481e-05 0)
(-3.36587e-05 7.95252e-05 0)
(-3.76203e-05 7.94534e-05 0)
(-4.173e-05 7.92348e-05 0)
(-4.59772e-05 7.88384e-05 0)
(-5.03454e-05 7.82343e-05 0)
(-5.48127e-05 7.73944e-05 0)
(-5.9352e-05 7.62935e-05 0)
(-6.3932e-05 7.49097e-05 0)
(-6.85168e-05 7.32255e-05 0)
(-7.30672e-05 7.12282e-05 0)
(-7.75408e-05 6.89111e-05 0)
(-8.18935e-05 6.6274e-05 0)
(-8.60802e-05 6.33232e-05 0)
(-9.00564e-05 6.0073e-05 0)
(-9.37791e-05 5.65447e-05 0)
(-9.72091e-05 5.27673e-05 0)
(-0.000100312 4.87766e-05 0)
(-0.000103062 4.46135e-05 0)
(-0.000105442 4.03222e-05 0)
(-0.000107444 3.59463e-05 0)
(-0.000109055 3.15358e-05 0)
(-0.000110262 2.71392e-05 0)
(-0.000111074 2.28007e-05 0)
(-0.000111505 1.85592e-05 0)
(-0.000111576 1.44486e-05 0)
(-0.000111312 1.04987e-05 0)
(-0.000110733 6.73699e-06 0)
(-0.000109863 3.17148e-06 0)
(-0.000108768 -1.93794e-07 0)
(-0.000107486 -3.34753e-06 0)
(-0.000106008 -6.28136e-06 0)
(-0.000104355 -8.99074e-06 0)
(-0.000102551 -1.14762e-05 0)
(-0.000100619 -1.37402e-05 0)
(-9.8578e-05 -1.57875e-05 0)
(-9.64481e-05 -1.7624e-05 0)
(-9.42458e-05 -1.92572e-05 0)
(-9.19868e-05 -2.06954e-05 0)
(-8.96848e-05 -2.19479e-05 0)
(-8.73524e-05 -2.30242e-05 0)
(-8.50008e-05 -2.39345e-05 0)
(-8.26398e-05 -2.46887e-05 0)
(-8.02782e-05 -2.52972e-05 0)
(-7.79236e-05 -2.57701e-05 0)
(-7.55828e-05 -2.61173e-05 0)
(-7.32615e-05 -2.63487e-05 0)
(-7.0965e-05 -2.64735e-05 0)
(-6.86976e-05 -2.6501e-05 0)
(-6.64628e-05 -2.64398e-05 0)
(-6.42637e-05 -2.62983e-05 0)
(-6.21027e-05 -2.60842e-05 0)
(-5.99824e-05 -2.58052e-05 0)
(-5.79042e-05 -2.54682e-05 0)
(-5.58699e-05 -2.50798e-05 0)
(-5.38804e-05 -2.46464e-05 0)
(-5.19364e-05 -2.41735e-05 0)
(-5.00385e-05 -2.36667e-05 0)
(-4.8187e-05 -2.31307e-05 0)
(-4.63822e-05 -2.25704e-05 0)
(-4.46246e-05 -2.19901e-05 0)
(-4.29136e-05 -2.13936e-05 0)
(-4.12491e-05 -2.07845e-05 0)
(-3.96312e-05 -2.01661e-05 0)
(-3.80594e-05 -1.95415e-05 0)
(-3.65328e-05 -1.89131e-05 0)
(-3.50513e-05 -1.82835e-05 0)
(-3.36145e-05 -1.76551e-05 0)
(-3.22215e-05 -1.70295e-05 0)
(-3.08719e-05 -1.64087e-05 0)
(-2.95652e-05 -1.57944e-05 0)
(-2.83006e-05 -1.51878e-05 0)
(-2.70774e-05 -1.45901e-05 0)
(-2.58951e-05 -1.40026e-05 0)
(-2.4753e-05 -1.34263e-05 0)
(-2.36505e-05 -1.28619e-05 0)
(-2.25866e-05 -1.23101e-05 0)
(-2.15608e-05 -1.17716e-05 0)
(-2.05724e-05 -1.12471e-05 0)
(-1.96206e-05 -1.07369e-05 0)
(-1.87045e-05 -1.02414e-05 0)
(-1.78234e-05 -9.76089e-06 0)
(-1.69763e-05 -9.29567e-06 0)
(-1.61626e-05 -8.84595e-06 0)
(-1.53813e-05 -8.41176e-06 0)
(-1.46315e-05 -7.99315e-06 0)
(-1.39123e-05 -7.59013e-06 0)
(-1.32227e-05 -7.20256e-06 0)
(-1.2562e-05 -6.83036e-06 0)
(-1.1929e-05 -6.47324e-06 0)
(-1.13228e-05 -6.13092e-06 0)
(-1.07426e-05 -5.80319e-06 0)
(-1.01876e-05 -5.48965e-06 0)
(-9.65678e-06 -5.18992e-06 0)
(-9.14938e-06 -4.90361e-06 0)
(-8.66455e-06 -4.63026e-06 0)
(-8.20155e-06 -4.36948e-06 0)
(-7.75964e-06 -4.12082e-06 0)
(-7.33807e-06 -3.88382e-06 0)
(-6.93614e-06 -3.65804e-06 0)
(-6.55319e-06 -3.44305e-06 0)
(-6.18856e-06 -3.23842e-06 0)
(-5.84166e-06 -3.04376e-06 0)
(-5.51186e-06 -2.85866e-06 0)
(-5.1986e-06 -2.68277e-06 0)
(-4.90135e-06 -2.51575e-06 0)
(-4.61949e-06 -2.35724e-06 0)
(-4.35246e-06 -2.20694e-06 0)
(-4.09975e-06 -2.06459e-06 0)
(-3.86083e-06 -1.92995e-06 0)
(-3.63511e-06 -1.80274e-06 0)
(-3.42199e-06 -1.68273e-06 0)
(-3.22093e-06 -1.56969e-06 0)
(-3.03134e-06 -1.46339e-06 0)
(-2.8526e-06 -1.36354e-06 0)
(-2.68413e-06 -1.26988e-06 0)
(-2.52538e-06 -1.18212e-06 0)
(-2.37579e-06 -1.09994e-06 0)
(-2.23486e-06 -1.02299e-06 0)
(-2.10214e-06 -9.50954e-07 0)
(-1.97718e-06 -8.8349e-07 0)
(-1.85965e-06 -8.20303e-07 0)
(-1.74921e-06 -7.61121e-07 0)
(-1.64554e-06 -7.0571e-07 0)
(-1.54837e-06 -6.53897e-07 0)
(-1.4574e-06 -6.05554e-07 0)
(-1.37231e-06 -5.606e-07 0)
(-1.29278e-06 -5.18988e-07 0)
(-1.21839e-06 -4.80672e-07 0)
(-1.14869e-06 -4.45575e-07 0)
(-1.08319e-06 -4.13571e-07 0)
(-1.0214e-06 -3.84446e-07 0)
(-9.62851e-07 -3.57886e-07 0)
(-9.07157e-07 -3.33492e-07 0)
(-8.54065e-07 -3.10803e-07 0)
(-8.03464e-07 -2.89353e-07 0)
(-7.55366e-07 -2.68709e-07 0)
(-7.09907e-07 -2.48547e-07 0)
(-6.67305e-07 -2.28677e-07 0)
(-6.27775e-07 -2.09053e-07 0)
(-5.91477e-07 -1.89753e-07 0)
(-5.58489e-07 -1.70923e-07 0)
(-5.28785e-07 -1.52704e-07 0)
(-5.02275e-07 -1.35201e-07 0)
(-4.78842e-07 -1.18464e-07 0)
(-4.58367e-07 -1.02492e-07 0)
(-4.40764e-07 -8.72594e-08 0)
(-4.25982e-07 -7.27344e-08 0)
(-4.13998e-07 -5.89198e-08 0)
(-4.04808e-07 -4.58891e-08 0)
(-3.98398e-07 -3.37991e-08 0)
(-3.94713e-07 -2.28994e-08 0)
(-3.9354e-07 -1.35437e-08 0)
(-3.94432e-07 -6.06499e-09 0)
(-3.96749e-07 -6.86854e-10 0)
(-3.99829e-07 2.57168e-09 0)
(-4.03036e-07 3.8653e-09 0)
(-4.05808e-07 3.61156e-09 0)
(-4.07823e-07 2.29759e-09 0)
(-4.08962e-07 3.34718e-10 0)
(-4.0922e-07 -1.99115e-09 0)
(-4.08604e-07 -4.49713e-09 0)
(-4.07064e-07 -7.05145e-09 0)
(-4.04537e-07 -9.43962e-09 0)
(-4.01043e-07 -1.13093e-08 0)
(-3.96822e-07 -1.22333e-08 0)
(-3.92366e-07 -1.1903e-08 0)
(-3.88333e-07 -1.02675e-08 0)
(-3.85359e-07 -7.66773e-09 0)
(-3.83858e-07 -4.74391e-09 0)
(-3.83819e-07 -2.33077e-09 0)
(-3.84776e-07 -1.12053e-09 0)
(-3.85963e-07 -1.50291e-09 0)
(-3.86479e-07 -3.45062e-09 0)
(-3.85456e-07 -6.40881e-09 0)
(-3.82426e-07 -9.28953e-09 0)
(-3.77731e-07 -1.07202e-08 0)
(-3.72521e-07 -9.68118e-09 0)
(-3.6851e-07 -5.93531e-09 0)
(-3.67511e-07 -4.82302e-10 0)
(-3.70796e-07 4.53339e-09 0)
(-3.78048e-07 5.688e-09 0)
(-3.869e-07 -1.54965e-10 0)
(-3.93999e-07 -1.49146e-08 0)
(-3.95189e-07 -3.95269e-08 0)
(-3.85582e-07 -7.36763e-08 0)
(-3.60689e-07 -1.15651e-07 0)
(-3.17006e-07 -1.62131e-07 0)
(-2.51849e-07 -2.08782e-07 0)
(-1.65223e-07 -2.48344e-07 0)
(-5.84416e-08 -2.74371e-07 0)
(-1.04015e-06 9.41243e-05 0)
(-3.16001e-06 9.44549e-05 0)
(-5.37603e-06 9.49209e-05 0)
(-7.74022e-06 9.56107e-05 0)
(-1.03031e-05 9.65073e-05 0)
(-1.31142e-05 9.75812e-05 0)
(-1.62187e-05 9.87951e-05 0)
(-1.96531e-05 0.000100092 0)
(-2.34308e-05 0.000101418 0)
(-2.75601e-05 0.000102704 0)
(-3.20604e-05 0.000103889 0)
(-3.6941e-05 0.0001049 0)
(-4.21942e-05 0.000105663 0)
(-4.77969e-05 0.000106109 0)
(-5.37121e-05 0.000106172 0)
(-5.9893e-05 0.000105791 0)
(-6.62823e-05 0.000104911 0)
(-7.28136e-05 0.000103487 0)
(-7.9413e-05 0.000101482 0)
(-8.59993e-05 9.88706e-05 0)
(-9.24853e-05 9.56385e-05 0)
(-9.87793e-05 9.17854e-05 0)
(-0.000104788 8.73264e-05 0)
(-0.000110417 8.22931e-05 0)
(-0.000115578 7.67352e-05 0)
(-0.00012019 7.0721e-05 0)
(-0.000124186 6.43371e-05 0)
(-0.000127523 5.76835e-05 0)
(-0.00013019 5.08612e-05 0)
(-0.000132166 4.39845e-05 0)
(-0.000133437 3.71649e-05 0)
(-0.000134034 3.04956e-05 0)
(-0.000134008 2.40532e-05 0)
(-0.000133419 1.79005e-05 0)
(-0.00013232 1.20896e-05 0)
(-0.000130759 6.63955e-06 0)
(-0.000128843 1.55184e-06 0)
(-0.000126687 -3.16116e-06 0)
(-0.000124291 -7.49577e-06 0)
(-0.000121666 -1.14474e-05 0)
(-0.000118868 -1.50228e-05 0)
(-0.000115935 -1.82344e-05 0)
(-0.000112903 -2.1097e-05 0)
(-0.0001098 -2.36278e-05 0)
(-0.000106654 -2.58451e-05 0)
(-0.000103486 -2.77679e-05 0)
(-0.000100316 -2.94156e-05 0)
(-9.71581e-05 -3.08075e-05 0)
(-9.40269e-05 -3.19626e-05 0)
(-9.0933e-05 -3.28996e-05 0)
(-8.78854e-05 -3.3636e-05 0)
(-8.48914e-05 -3.4189e-05 0)
(-8.19567e-05 -3.45747e-05 0)
(-7.90857e-05 -3.48084e-05 0)
(-7.62817e-05 -3.49043e-05 0)
(-7.35469e-05 -3.48758e-05 0)
(-7.08832e-05 -3.47356e-05 0)
(-6.82916e-05 -3.44951e-05 0)
(-6.57723e-05 -3.41654e-05 0)
(-6.33252e-05 -3.37564e-05 0)
(-6.09495e-05 -3.32773e-05 0)
(-5.86451e-05 -3.27368e-05 0)
(-5.64108e-05 -3.21429e-05 0)
(-5.42456e-05 -3.15028e-05 0)
(-5.21482e-05 -3.08233e-05 0)
(-5.01172e-05 -3.01106e-05 0)
(-4.81508e-05 -2.93702e-05 0)
(-4.62476e-05 -2.86073e-05 0)
(-4.44062e-05 -2.78268e-05 0)
(-4.26253e-05 -2.70331e-05 0)
(-4.0903e-05 -2.62297e-05 0)
(-3.92376e-05 -2.54204e-05 0)
(-3.7628e-05 -2.46085e-05 0)
(-3.60724e-05 -2.37966e-05 0)
(-3.45689e-05 -2.29871e-05 0)
(-3.31166e-05 -2.21827e-05 0)
(-3.17141e-05 -2.13853e-05 0)
(-3.03598e-05 -2.05965e-05 0)
(-2.90525e-05 -1.98181e-05 0)
(-2.77912e-05 -1.90516e-05 0)
(-2.65745e-05 -1.82982e-05 0)
(-2.54012e-05 -1.75588e-05 0)
(-2.42705e-05 -1.68346e-05 0)
(-2.31811e-05 -1.61263e-05 0)
(-2.21322e-05 -1.54348e-05 0)
(-2.11224e-05 -1.47604e-05 0)
(-2.0151e-05 -1.41039e-05 0)
(-1.92171e-05 -1.34657e-05 0)
(-1.83197e-05 -1.28462e-05 0)
(-1.74576e-05 -1.22456e-05 0)
(-1.663e-05 -1.16642e-05 0)
(-1.58359e-05 -1.11023e-05 0)
(-1.50743e-05 -1.05598e-05 0)
(-1.43441e-05 -1.00369e-05 0)
(-1.36443e-05 -9.53349e-06 0)
(-1.29739e-05 -9.04952e-06 0)
(-1.23318e-05 -8.58474e-06 0)
(-1.1717e-05 -8.13895e-06 0)
(-1.11284e-05 -7.71175e-06 0)
(-1.05651e-05 -7.30272e-06 0)
(-1.00261e-05 -6.9115e-06 0)
(-9.51044e-06 -6.53754e-06 0)
(-9.01733e-06 -6.18033e-06 0)
(-8.54593e-06 -5.83932e-06 0)
(-8.09537e-06 -5.51391e-06 0)
(-7.66499e-06 -5.20357e-06 0)
(-7.25406e-06 -4.90772e-06 0)
(-6.86188e-06 -4.62578e-06 0)
(-6.48783e-06 -4.35718e-06 0)
(-6.13131e-06 -4.1014e-06 0)
(-5.79171e-06 -3.8579e-06 0)
(-5.46853e-06 -3.6262e-06 0)
(-5.16121e-06 -3.4058e-06 0)
(-4.86927e-06 -3.19628e-06 0)
(-4.59225e-06 -2.99724e-06 0)
(-4.32962e-06 -2.80825e-06 0)
(-4.0809e-06 -2.62897e-06 0)
(-3.84563e-06 -2.45911e-06 0)
(-3.62335e-06 -2.29841e-06 0)
(-3.4135e-06 -2.14659e-06 0)
(-3.21553e-06 -2.00339e-06 0)
(-3.02888e-06 -1.86859e-06 0)
(-2.85298e-06 -1.74191e-06 0)
(-2.68718e-06 -1.62303e-06 0)
(-2.53089e-06 -1.51165e-06 0)
(-2.38353e-06 -1.4074e-06 0)
(-2.24455e-06 -1.30986e-06 0)
(-2.11342e-06 -1.2186e-06 0)
(-1.98974e-06 -1.13316e-06 0)
(-1.8731e-06 -1.05311e-06 0)
(-1.76323e-06 -9.78035e-07 0)
(-1.6599e-06 -9.07596e-07 0)
(-1.56287e-06 -8.41504e-07 0)
(-1.47199e-06 -7.79567e-07 0)
(-1.38704e-06 -7.21668e-07 0)
(-1.30778e-06 -6.67772e-07 0)
(-1.23392e-06 -6.17903e-07 0)
(-1.16503e-06 -5.72094e-07 0)
(-1.10059e-06 -5.30336e-07 0)
(-1.04e-06 -4.92528e-07 0)
(-9.82641e-07 -4.58419e-07 0)
(-9.27898e-07 -4.27592e-07 0)
(-8.75289e-07 -3.99471e-07 0)
(-8.24521e-07 -3.7337e-07 0)
(-7.75537e-07 -3.48576e-07 0)
(-7.28483e-07 -3.24451e-07 0)
(-6.83692e-07 -3.00545e-07 0)
(-6.41605e-07 -2.76622e-07 0)
(-6.02642e-07 -2.52707e-07 0)
(-5.67094e-07 -2.29028e-07 0)
(-5.35065e-07 -2.05894e-07 0)
(-5.06484e-07 -1.83563e-07 0)
(-4.81178e-07 -1.622e-07 0)
(-4.58947e-07 -1.41865e-07 0)
(-4.39615e-07 -1.22513e-07 0)
(-4.23073e-07 -1.04055e-07 0)
(-4.09292e-07 -8.63856e-08 0)
(-3.98316e-07 -6.94501e-08 0)
(-3.90244e-07 -5.33097e-08 0)
(-3.85176e-07 -3.81646e-08 0)
(-3.83176e-07 -2.43927e-08 0)
(-3.84081e-07 -1.25313e-08 0)
(-3.87352e-07 -3.18362e-09 0)
(-3.92174e-07 3.27766e-09 0)
(-3.97621e-07 6.76676e-09 0)
(-4.0278e-07 7.60557e-09 0)
(-4.06936e-07 6.44872e-09 0)
(-4.0979e-07 4.09745e-09 0)
(-4.11379e-07 1.14338e-09 0)
(-4.11849e-07 -2.08344e-09 0)
(-4.11311e-07 -5.47331e-09 0)
(-4.09702e-07 -8.96773e-09 0)
(-4.06821e-07 -1.23614e-08 0)
(-4.02561e-07 -1.51432e-08 0)
(-3.97186e-07 -1.65858e-08 0)
(-3.91395e-07 -1.61481e-08 0)
(-3.86195e-07 -1.36615e-08 0)
(-3.82579e-07 -9.68002e-09 0)
(-3.81194e-07 -5.162e-09 0)
(-3.82036e-07 -1.42351e-09 0)
(-3.84392e-07 4.59325e-10 0)
(-3.87132e-07 -1.4896e-10 0)
(-3.889e-07 -3.23688e-09 0)
(-3.88332e-07 -8.01779e-09 0)
(-3.84579e-07 -1.2848e-08 0)
(-3.78022e-07 -1.54882e-08 0)
(-3.70362e-07 -1.42376e-08 0)
(-3.64244e-07 -8.43139e-09 0)
(-3.62537e-07 4.88957e-10 0)
(-3.67546e-07 9.62549e-09 0)
(-3.79288e-07 1.37986e-08 0)
(-3.94705e-07 8.57438e-09 0)