# Residuals      
# Time           	p_rgh            
0                	N/A              
0.00119904       	1.000000000e+00
0.00263616       	4.480923831e-03
0.00435873       	8.752513873e-03
0.00642437       	5.138555448e-02
0.00890212       	1.457847547e-01
0.0118695        	9.695425226e-02
0.0154239        	9.096438198e-02
0.0196861        	8.857810164e-02
0.0247919        	7.872127860e-02
0.030887         	6.442876916e-02
0.0381736        	6.107540216e-02
0.045747         	4.752389938e-02
0.0548351        	4.572944519e-02
0.0625824        	3.130650135e-02
0.0718637        	3.224971995e-02
0.0797293        	2.094639363e-02
0.0891198        	2.213764616e-02
0.09711          	1.553882989e-02
0.106614         	1.636819553e-02
0.114736         	1.177474564e-02
0.124464         	1.407265200e-02
0.132724         	1.071296896e-02
0.142579         	1.225400186e-02
0.150985         	9.777804908e-03
0.160974         	1.106355768e-02
0.169535         	8.757968267e-03
0.179788         	1.029869843e-02
0.188422         	8.158752639e-03
0.198695         	9.370250548e-03
0.207405         	7.716081972e-03
0.217833         	8.781074504e-03
0.226622         	7.227969494e-03
0.237073         	8.167970082e-03
0.246049         	6.779980311e-03
0.256819         	7.741782700e-03
0.265882         	6.351179370e-03
0.276678         	7.142417409e-03
0.285834         	5.949469060e-03
0.296821         	6.659103584e-03
0.306074         	5.432911551e-03
0.317088         	5.989853463e-03
0.326317         	4.791982030e-03
0.337361         	5.336535520e-03
0.346694         	4.369439598e-03
0.357767         	5.011653532e-03
0.367212         	4.551317072e-03
0.378511         	5.474930944e-03
0.388073         	3.631497892e-03
0.399405         	4.026654679e-03
0.408938         	3.560532127e-03
0.420305         	4.023215850e-03
0.429966         	3.498088659e-03
0.441367         	3.840072439e-03
0.450998         	3.265065264e-03
0.462436         	3.533785240e-03
0.47221          	3.034461599e-03
0.483938         	3.282956267e-03
0.493675         	3.033375085e-03
0.505183         	3.435724879e-03
0.515079         	3.126447452e-03
0.526907         	3.473949763e-03
0.536763         	2.961327255e-03
0.548344         	3.154834426e-03
0.55838          	2.539946086e-03
0.570316         	2.965437286e-03
0.580309         	2.629740844e-03
0.5923           	2.938508173e-03
0.602492         	2.639584087e-03
0.614538         	2.850356554e-03
0.624682         	2.491311383e-03
0.636789         	2.666821381e-03
0.646878         	2.272815862e-03
0.658649         	2.641566950e-03
0.668993         	2.576722488e-03
0.681252         	2.855926283e-03
0.691534         	2.432040997e-03
0.703873         	2.568461737e-03
0.714084         	2.174117048e-03
0.725998         	2.238920867e-03
0.736146         	1.963335819e-03
0.748139         	2.237689795e-03
0.758633         	2.330257326e-03
0.770702         	2.549560233e-03
0.781124         	2.257086216e-03
0.793284         	2.226738104e-03
0.80362          	1.902753465e-03
0.815894         	1.982536169e-03
0.826122         	1.611753716e-03
0.837714         	1.857838118e-03
0.847857         	1.956340305e-03
0.85956          	2.077596748e-03
0.869591         	1.808101587e-03
0.881447         	1.782989810e-03
0.892224         	1.650936680e-03
0.904199         	1.628341982e-03
0.914844         	1.395033843e-03
0.927009         	1.797723347e-03
0.937436         	1.799617292e-03
0.949949         	1.948681685e-03
0.959959         	1.541960652e-03
0.969969         	1.288812465e-03
0.97998          	1.375795721e-03
0.98999          	1.179818636e-03
1                	1.168266476e-03
1.011905         	1.568510802e-03
1.022884         	1.692670538e-03
1.035912         	1.820549396e-03
1.046867         	1.503183640e-03
1.059924         	1.474222760e-03
1.070855         	1.289951624e-03
1.083942         	1.210599115e-03
1.094978         	1.359009936e-03
1.108095         	1.642336969e-03
1.119106         	1.501750570e-03
1.132254         	1.536215045e-03
1.143238         	1.221412813e-03
1.156419         	1.271535603e-03
1.167518         	1.100241033e-03
1.180732         	1.293030150e-03
1.191804         	1.376261534e-03
1.205053         	1.559827479e-03
1.216094         	1.332282024e-03
1.229159         	1.303531027e-03
1.24033          	1.104372424e-03
1.253658         	1.143650589e-03
1.264797         	1.056314979e-03
1.278165         	1.402024484e-03
1.28927          	1.292975659e-03
1.302432         	1.364116873e-03
1.313683         	1.147425257e-03
1.32714          	1.131934594e-03
1.338354         	9.587327480e-04
1.351587         	1.056369080e-03
1.362767         	1.152152116e-03
1.376042         	1.309297013e-03
1.387184         	1.181426178e-03
1.400506         	1.174453438e-03
1.411818         	9.393689946e-04
1.425185         	9.626467889e-04
1.436456         	9.074242984e-04
1.449874         	1.156541928e-03
1.461101         	1.121831128e-03
1.474574         	1.199830987e-03
1.485753         	9.587471571e-04
1.498939         	9.413100969e-04
1.510326         	8.593350387e-04
1.523928         	8.997636413e-04
1.535264         	1.050427842e-03
1.548542         	1.157850427e-03
1.559828         	1.058863051e-03
1.573167         	9.921126379e-04
1.584399         	8.571013727e-04
1.597806         	9.081809931e-04
1.608978         	7.656957322e-04
1.622012         	9.290292479e-04
1.633466         	1.031470800e-03
1.647041         	1.095055434e-03
1.658427         	8.716015833e-04
1.671564         	8.663633295e-04
1.68289          	7.911966578e-04
1.696103         	8.508625046e-04
1.707358         	8.147195172e-04
1.72066          	9.641085811e-04
1.731834         	8.832762266e-04
1.745242         	9.664353580e-04
1.756318         	8.219643891e-04
1.769144         	7.983431004e-04
1.780137         	7.572520005e-04
1.79307          	8.587785277e-04
1.804566         	8.455580100e-04
1.817595         	8.830883898e-04
1.828995         	8.121256259e-04
1.84215          	8.943003487e-04
1.853425         	7.648305784e-04
1.86675          	8.198903626e-04
1.877854         	7.499068985e-04
1.890068         	8.055790577e-04
1.901062         	7.504070472e-04
1.913429         	7.416323202e-04
1.92425          	7.135852294e-04
1.936875         	8.463252807e-04
1.947396         	6.822984205e-04
1.957917         	5.777207452e-04
1.968438         	6.458199866e-04
1.978958         	5.895272444e-04
1.989479         	6.422449458e-04
2                	5.647729581e-04
2.011494         	6.762235155e-04
2.025035         	7.820766200e-04
2.036506         	6.182775051e-04
2.049887         	7.194464110e-04
2.061335         	6.704856231e-04
2.074744         	7.464370691e-04
2.086167         	6.255113237e-04
2.099606         	7.418098501e-04
2.111003         	6.403503909e-04
2.124473         	6.894213081e-04
2.135843         	6.193155687e-04
2.149346         	7.393492491e-04
2.160688         	6.365000257e-04
2.174225         	6.933172618e-04
2.185537         	6.246136516e-04
2.199111         	7.230540922e-04
2.210553         	6.529774148e-04
2.223933         	6.762910482e-04
2.235346         	6.013152940e-04
2.248761         	6.908065067e-04
2.260143         	6.220707441e-04
2.273595         	7.017133826e-04
2.284945         	6.085622063e-04
2.298437         	6.784500976e-04
2.309752         	6.248238270e-04
2.323287         	7.395889871e-04
2.334565         	6.179474423e-04
2.347874         	6.586649801e-04
2.359118         	6.094414922e-04
2.372469         	6.854411734e-04
2.383675         	6.216479047e-04
2.397074         	6.454918824e-04
2.408239         	5.864294232e-04
2.421389         	6.659324220e-04
2.432516         	5.866567825e-04
2.445713         	6.710687079e-04
2.456799         	5.872033969e-04
2.470048         	6.833744744e-04
2.481089         	5.852097167e-04
2.494061         	6.961154173e-04
2.50506          	5.931805061e-04
2.518085         	6.262780600e-04
2.529037         	5.483665637e-04
2.54212          	6.791774349e-04
2.553022         	6.079183975e-04
2.565792         	6.839544920e-04
2.576926         	5.938127480e-04
2.590147         	6.431573149e-04
2.601224         	5.335980617e-04
2.614517         	6.706241930e-04
2.625531         	5.931624414e-04
2.638443         	6.749701632e-04
2.649742         	5.920590048e-04
2.663213         	6.286270658e-04
2.67444          	5.248108604e-04
2.687462         	6.244253998e-04
2.699037         	6.025427519e-04
2.712718         	6.851725393e-04
2.724209         	5.780668146e-04
2.737342         	5.989824516e-04
2.749281         	5.454509942e-04
2.762477         	6.044055499e-04
2.774353         	5.697882730e-04
2.787626         	6.384430321e-04
2.799425         	5.588772818e-04
2.812796         	5.956535580e-04
2.825277         	5.370587645e-04
2.838717         	5.764287070e-04
2.851123         	5.204124588e-04
2.864658         	6.140494829e-04
2.876961         	5.486398302e-04
2.889265         	5.199503231e-04
2.901569         	5.231744691e-04
2.913873         	4.972100078e-04
2.926177         	4.703985938e-04
2.938481         	5.287018801e-04
2.950785         	4.920933935e-04
2.963088         	4.995831239e-04
2.975392         	5.093416721e-04
2.987696         	4.915141309e-04
3                	4.538122531e-04
3.013514         	5.223083405e-04
3.026844         	5.125180715e-04
3.04036          	5.723292582e-04
3.053689         	5.260002786e-04
3.067208         	5.161810210e-04
3.080726         	4.964433155e-04
3.094245         	4.900972331e-04
3.107764         	4.883499711e-04
3.121282         	5.206179885e-04
3.134801         	5.405165080e-04
3.148534         	5.564256997e-04
3.162268         	4.820685567e-04
3.176001         	4.806150361e-04
3.189734         	4.862526065e-04
3.203468         	4.765504692e-04
3.217201         	4.840164437e-04
3.230934         	5.030725620e-04
3.244668         	4.944499779e-04
3.258401         	4.831798818e-04
3.272134         	4.572454887e-04
3.286132         	4.745121991e-04
3.300129         	4.657532578e-04
3.314127         	4.480293678e-04
3.328124         	4.410873481e-04
3.342121         	4.777013749e-04
3.356119         	5.059163631e-04
3.370116         	4.789471793e-04
3.384114         	4.520428840e-04
3.398111         	4.452496817e-04
3.412108         	4.238843582e-04
3.426106         	4.224557153e-04
3.440103         	4.495939845e-04
3.454101         	4.758686162e-04
3.468467         	5.052200033e-04
3.482832         	4.535605641e-04
3.497198         	4.262278789e-04
3.511564         	4.360389145e-04
3.52593          	4.330823657e-04
3.540295         	4.297120053e-04
3.554661         	4.303040119e-04
3.569027         	4.353821624e-04
3.583393         	4.434889851e-04
3.597758         	4.181999435e-04
3.612124         	4.057639252e-04
3.62649          	4.130869240e-04
3.640856         	3.917485410e-04
3.655222         	3.786044756e-04
3.669587         	3.882069530e-04
3.683953         	4.257896502e-04
3.698319         	4.354778759e-04
3.712685         	4.036199484e-04
3.72705          	3.743725174e-04
3.741416         	3.822804639e-04
3.755782         	3.818433880e-04
3.770148         	3.854883635e-04
3.784513         	3.900220281e-04
3.798879         	4.032417576e-04
3.813245         	4.023357501e-04
3.827611         	3.836904197e-04
3.841977         	3.709271486e-04
3.856342         	3.851253765e-04
3.870708         	3.692071521e-04
3.885074         	3.413625583e-04
3.89944          	3.347667489e-04
3.913805         	3.411695651e-04
3.928171         	3.729677836e-04
3.942537         	3.787198709e-04
3.956903         	3.421968808e-04
3.971268         	3.459237364e-04
3.985634         	3.383990532e-04
4                	3.324709182e-04
4.015152         	3.536629342e-04
4.030303         	3.627288195e-04
4.045455         	3.538224726e-04
4.060606         	3.806455082e-04
4.076006         	3.957264040e-04
4.091406         	3.727743281e-04
4.106806         	3.744987874e-04
4.122206         	3.654130918e-04
4.137606         	3.513135953e-04
4.153005         	3.316205533e-04
4.168405         	3.294577624e-04
4.183805         	3.408776737e-04
4.199205         	3.550012257e-04
4.214605         	3.389737937e-04
4.230005         	3.159539824e-04
4.245405         	3.352400366e-04
4.261126         	3.390693282e-04
4.276846         	3.310644060e-04
4.292567         	3.156983500e-04
4.308288         	3.205066871e-04
4.324009         	3.375090189e-04
4.339729         	3.579823662e-04
4.35545          	3.446240030e-04
4.371171         	3.212218570e-04
4.386891         	3.356649679e-04
4.402612         	3.278644266e-04
4.418333         	3.219963800e-04
4.434054         	3.160251581e-04
4.449774         	2.885021612e-04
4.465495         	3.080701804e-04
4.481216         	3.048766869e-04
4.496937         	2.822687346e-04
4.512657         	3.078151361e-04
4.528378         	2.957398415e-04
4.544099         	2.933887083e-04
4.55982          	2.887408453e-04
4.57554          	2.878220907e-04
4.591261         	2.944250783e-04
4.606982         	3.073272189e-04
4.622702         	2.983396026e-04
4.638423         	2.835909740e-04
4.654144         	3.038256691e-04
4.669865         	3.021057485e-04
4.685585         	2.938305530e-04
4.701306         	2.848998360e-04
4.717027         	2.835049392e-04
4.732748         	2.869225474e-04
4.748468         	2.953780991e-04
4.764189         	2.643278113e-04
4.77991          	2.548662476e-04
4.79563          	2.639111661e-04
4.811351         	2.554588986e-04
4.827072         	2.515343574e-04
4.842793         	2.478034919e-04
4.858513         	2.424785573e-04
4.874234         	2.586313896e-04
4.889955         	2.572679270e-04
4.905676         	2.465263533e-04
4.921396         	2.684549679e-04
4.937117         	2.586166748e-04
4.952838         	2.568772106e-04
4.968559         	2.541676515e-04
4.984279         	2.552294155e-04
5                	2.541761122e-04
5.016129         	2.690502908e-04
5.032258         	2.611281080e-04
5.048387         	2.508407831e-04
5.064516         	2.737208998e-04
5.080645         	2.622972899e-04
5.096774         	2.526470396e-04
5.112903         	2.498651508e-04
5.129032         	2.363125689e-04
5.145161         	2.322718967e-04
5.16129          	2.298158510e-04
5.177419         	2.144959628e-04
5.193548         	2.353548144e-04
5.209677         	2.282361627e-04
5.225806         	2.238259819e-04
5.241935         	2.170962067e-04
5.258065         	2.130963754e-04
5.274194         	2.191589700e-04
5.290323         	2.202376072e-04
5.306452         	2.187519238e-04
5.322581         	2.295235398e-04
5.33871          	2.339535205e-04
5.354839         	2.295188525e-04
5.370968         	2.257242958e-04
5.387097         	2.248800077e-04
5.403226         	2.212006406e-04
5.419355         	2.120783466e-04
5.435484         	2.136113442e-04
5.451613         	2.212436127e-04
5.467742         	2.383470056e-04
5.483871         	2.285490005e-04
5.5              	2.165369615e-04
5.516129         	2.122760337e-04
5.532258         	2.089139706e-04
5.548387         	1.998487107e-04
5.564516         	1.880749885e-04
5.580645         	1.833947947e-04
5.596774         	2.033617376e-04
5.612903         	1.955726710e-04
5.629032         	1.903987762e-04
5.645161         	1.822642714e-04
5.66129          	1.726172014e-04
5.677419         	1.698557103e-04
5.693548         	1.680112661e-04
5.709677         	1.807245401e-04
5.725806         	2.016595792e-04
5.741935         	1.904054364e-04
5.758065         	1.845138246e-04
5.774194         	1.814253344e-04
5.790323         	1.813773713e-04
5.806452         	1.777471578e-04
5.822581         	1.711327215e-04
5.83871          	1.725609242e-04
5.854839         	1.958065347e-04
5.870968         	1.949181401e-04
5.887097         	1.880763375e-04
5.903226         	1.789575511e-04
5.919355         	1.739114102e-04
5.935484         	1.726816022e-04
5.951613         	1.731097527e-04
5.967742         	1.704375049e-04
5.983871         	1.819922871e-04
6                	1.841115655e-04
6.016129         	1.797721420e-04
6.032258         	1.761473883e-04
6.048387         	1.697205306e-04
6.064516         	1.555644905e-04
6.080645         	1.462623059e-04
6.096774         	1.402427950e-04
6.112903         	1.493646569e-04
6.129032         	1.574181611e-04
6.145161         	1.488309083e-04
6.16129          	1.417523273e-04
6.177419         	1.376512297e-04
6.193548         	1.359278391e-04
6.209677         	1.345842159e-04
6.225806         	1.299781911e-04
6.241935         	1.322044703e-04
6.258065         	1.521665111e-04
6.274194         	1.483192304e-04
6.290323         	1.393479594e-04
6.306452         	1.298771268e-04
6.322581         	1.241025727e-04
6.33871          	1.229632096e-04
6.354839         	1.263984353e-04
6.370968         	1.260469168e-04
6.387097         	1.341154294e-04
6.403226         	1.383654944e-04
6.419355         	1.371950358e-04
6.435484         	1.379025931e-04
6.451613         	1.359018619e-04
6.467742         	1.310791914e-04
6.483871         	1.298630694e-04
6.5              	1.287550349e-04
6.516129         	1.318753561e-04
6.532258         	1.458261377e-04
6.548387         	1.405236529e-04
6.564516         	1.358971882e-04
6.580645         	1.322395799e-04
6.596774         	1.304702320e-04
6.612903         	1.275149813e-04
6.629032         	1.258588794e-04
6.645161         	1.224709845e-04
6.66129          	1.263960586e-04
6.677419         	1.318667343e-04
6.693548         	1.227236098e-04
6.709677         	1.119858676e-04
6.725806         	1.040248600e-04
6.741935         	9.940906456e-05
6.758065         	9.765832603e-05
6.774194         	9.816275181e-05
6.790323         	9.500304906e-05
6.806452         	9.995096605e-05
6.822581         	1.041470287e-04
6.83871          	1.023348050e-04
6.854839         	1.001596813e-04
6.870968         	9.599081451e-05
6.887097         	9.309200606e-05
6.903226         	9.432258380e-05
6.919355         	9.315041398e-05
6.935484         	8.919512825e-05
6.951613         	9.202836719e-05
6.967742         	9.336620010e-05
6.983871         	8.872805414e-05
7                	8.489591756e-05
7.016129         	8.227923913e-05
7.032258         	7.853281714e-05
7.048387         	7.604026386e-05
7.064516         	7.533621439e-05
7.080645         	7.446296468e-05
7.096774         	8.010586560e-05
7.112903         	8.242478662e-05
7.129032         	7.969505702e-05
7.145161         	7.604286127e-05
7.16129          	7.435945993e-05
7.177419         	7.397449184e-05
7.193548         	7.222514041e-05
7.209677         	7.175691695e-05
7.225806         	7.136174966e-05
7.241935         	7.494661380e-05
7.258065         	7.961687469e-05
7.274194         	7.908214466e-05
7.290323         	7.815039894e-05
7.306452         	7.850202894e-05
7.322581         	7.888150954e-05
7.33871          	8.006698642e-05
7.354839         	8.057525653e-05
7.370968         	8.148101048e-05
7.387097         	8.397236053e-05
7.403226         	8.736387455e-05
7.419355         	8.814076303e-05
7.435484         	8.699078429e-05
7.451613         	8.245555515e-05
7.467742         	7.656154453e-05
7.483871         	7.029099321e-05
7.5              	6.367645360e-05
7.516129         	6.095174774e-05
7.532258         	6.325958577e-05
7.548387         	6.385117124e-05
7.564516         	6.428658547e-05
7.580645         	6.448964272e-05
7.596774         	6.500290947e-05
7.612903         	6.381299224e-05
7.629032         	6.190373087e-05
7.645161         	6.226597897e-05
7.66129          	6.431350076e-05
7.677419         	6.546567968e-05
7.693548         	6.531383978e-05
7.709677         	6.554469020e-05
7.725806         	6.773153294e-05
7.741935         	6.629730475e-05
7.758065         	6.247144018e-05
7.774194         	5.981110344e-05
7.790323         	5.838497678e-05
7.806452         	5.573346763e-05
7.822581         	5.412871175e-05
7.83871          	5.363382419e-05
7.854839         	5.457449135e-05
7.870968         	5.608049206e-05
7.887097         	5.536964086e-05
7.903226         	5.502237939e-05
7.919355         	5.447330865e-05
7.935484         	5.362325096e-05
7.951613         	5.293029313e-05
7.967742         	5.311794797e-05
7.983871         	5.268252699e-05
8                	5.307266727e-05
8.016129         	5.042425180e-05
8.032258         	5.129643390e-05
8.048387         	5.016838204e-05
8.064516         	4.820529211e-05
8.080645         	4.856173767e-05
8.096774         	4.849352405e-05
8.112903         	4.775331382e-05
8.129032         	4.604716493e-05
8.145161         	4.375977741e-05
8.16129          	4.351459620e-05
8.177419         	4.239151308e-05
8.193548         	4.180224963e-05
8.209677         	4.127442370e-05
8.225806         	4.150414026e-05
8.241935         	3.887926465e-05
8.258065         	3.532058033e-05
8.274194         	3.235645026e-05
8.290323         	3.167885927e-05
8.306452         	3.077993467e-05
8.322581         	2.980557868e-05
8.33871          	2.870280197e-05
8.354839         	2.789663416e-05
8.370968         	2.741190801e-05
8.387097         	2.635612108e-05
8.403226         	2.653655344e-05
8.419355         	2.609586061e-05
8.435484         	2.489763729e-05
8.451613         	2.378049301e-05
8.467742         	2.248620546e-05
8.483871         	2.116957049e-05
8.5              	2.045497078e-05
8.516129         	1.957911936e-05
8.532258         	1.974053961e-05
8.548387         	2.002074044e-05
8.564516         	2.094510823e-05
8.580645         	2.772063387e-05
8.596774         	3.308836144e-05
8.612903         	3.253022329e-05
8.629032         	3.290309491e-05
8.645161         	3.365457038e-05
8.66129          	3.056331149e-05
8.677419         	2.478070255e-05
8.693548         	1.936224792e-05
8.709677         	1.794679384e-05
8.725806         	1.956287353e-05
8.741935         	1.938278827e-05
8.758065         	1.946930801e-05
8.774194         	1.916781587e-05
8.790323         	1.891482895e-05
8.806452         	1.855916977e-05
8.822581         	1.815587555e-05
8.83871          	1.819167832e-05
8.854839         	1.832109298e-05
8.870968         	1.832138681e-05
8.887097         	1.807025678e-05
8.903226         	1.813923166e-05
8.919355         	1.810600650e-05
8.935484         	1.651213589e-05
8.951613         	1.308818378e-05
8.967742         	1.044346622e-05
8.983871         	8.719240519e-06
9                	7.815885619e-06
9.016129         	7.058048590e-06
9.032258         	6.533282536e-06
9.048387         	6.080406358e-06
9.064516         	5.650709980e-06
9.080645         	5.579850698e-06
9.096774         	5.485282392e-06
9.112903         	5.330132668e-06
9.129032         	5.119106719e-06
9.145161         	5.010519463e-06
9.16129          	4.961109011e-06
9.177419         	4.979774268e-06
9.193548         	4.950882263e-06
9.209677         	4.907503849e-06
9.225806         	4.875224122e-06
9.241935         	4.911799240e-06
9.258065         	4.992294268e-06
9.274194         	5.040383416e-06
9.290323         	5.069770703e-06
9.306452         	5.082551987e-06
9.322581         	5.056685023e-06
9.33871          	4.998394880e-06
9.354839         	4.931784268e-06
9.370968         	4.921298636e-06
9.387097         	5.007360496e-06
9.403226         	5.055351478e-06
9.419355         	5.067722926e-06
9.435484         	5.063363449e-06
9.451613         	5.065939954e-06
9.467742         	5.072318893e-06
9.483871         	5.052137551e-06
9.5              	5.002590424e-06
9.516129         	4.941706399e-06
9.532258         	4.852568337e-06
9.548387         	4.788763564e-06
9.564516         	4.711244136e-06
9.580645         	4.633300161e-06
9.596774         	4.562863296e-06
9.612903         	4.488212257e-06
9.629032         	4.434381297e-06
9.645161         	4.389949038e-06
9.66129          	4.326875363e-06
9.677419         	4.268789158e-06
9.693548         	4.200773565e-06
9.709677         	4.156292889e-06
9.725806         	4.126043008e-06
9.741935         	4.080776972e-06
9.758065         	4.032988017e-06
9.774194         	3.993701985e-06
9.790323         	3.996626995e-06
9.806452         	3.993805693e-06
9.822581         	3.982304699e-06
9.83871          	3.980970274e-06
9.854839         	3.976455468e-06
9.870968         	3.992904383e-06
9.887097         	4.002627420e-06
9.903226         	3.988754595e-06
9.919355         	3.971926489e-06
9.935484         	3.956840253e-06
9.951613         	3.964530329e-06
9.967742         	3.961704020e-06
9.983871         	3.938926397e-06
10               	3.908340712e-06
10.01613         	3.874547440e-06
10.032258        	3.872850447e-06
10.048387        	3.869827349e-06
10.064516        	3.845123115e-06
10.080645        	3.811347120e-06
10.096774        	3.770972967e-06
10.112903        	3.754801343e-06
10.129032        	3.726728578e-06
10.145161        	3.675351178e-06
10.16129         	3.619672304e-06
10.177419        	3.566456361e-06
10.193548        	3.551290357e-06
10.209677        	3.523649552e-06
10.225806        	3.481037734e-06
10.241935        	3.437332571e-06
10.258065        	3.398376156e-06
10.274194        	3.379648737e-06
10.290323        	3.347129722e-06
10.306452        	3.299278506e-06
10.322581        	3.250483269e-06
10.33871         	3.216998122e-06
10.354839        	3.210858237e-06
10.370968        	3.202857569e-06
10.387097        	3.189408862e-06
10.403226        	3.176929983e-06
10.419355        	3.164092881e-06
10.435484        	3.165274541e-06
10.451613        	3.155299361e-06
10.467742        	3.138125784e-06
10.483871        	3.121832467e-06
10.5             	3.110001718e-06
10.516129        	3.109145412e-06
10.532258        	3.101656850e-06
10.548387        	3.098624511e-06
10.564516        	3.095230003e-06
10.580645        	3.085597744e-06
10.596774        	3.080208216e-06
10.612903        	3.069934638e-06
10.629032        	3.052438906e-06
10.645161        	3.042564067e-06
10.66129         	3.030827475e-06
10.677419        	3.023355319e-06
10.693548        	3.012305395e-06
10.709677        	2.989887402e-06
10.725806        	2.969267358e-06
10.741935        	2.948836262e-06
10.758065        	2.931647676e-06
10.774194        	2.915420433e-06
10.790323        	2.887461226e-06
10.806452        	2.861162649e-06
10.822581        	2.833695160e-06
10.83871         	2.812636536e-06
10.854839        	2.797023424e-06
10.870968        	2.770659210e-06
10.887097        	2.742331682e-06
10.903226        	2.709575748e-06
10.919355        	2.680378973e-06
10.935484        	2.663440703e-06
10.951613        	2.637325486e-06
10.967742        	2.618568345e-06
10.983871        	2.598366069e-06
11               	2.586441843e-06
11.016129        	2.588855351e-06
11.032258        	2.583397044e-06
11.048387        	2.580527308e-06
11.064516        	2.568832961e-06
11.080645        	2.555765374e-06
11.096774        	2.551243015e-06
11.112903        	2.543921899e-06
11.129032        	2.537780766e-06
11.145161        	2.522186734e-06
11.16129         	2.509613327e-06
11.177419        	2.504531513e-06
11.193548        	2.498621212e-06
11.209677        	2.492232578e-06
11.225806        	2.477721414e-06
11.241935        	2.459587102e-06
11.258065        	2.444979633e-06
11.274194        	2.429031592e-06
11.290323        	2.415327987e-06
11.306452        	2.401333930e-06
11.322581        	2.384822863e-06
11.33871         	2.371615373e-06
11.354839        	2.358155315e-06
11.370968        	2.347017653e-06
11.387097        	2.329862884e-06
11.403226        	2.306231808e-06
11.419355        	2.284688824e-06
11.435484        	2.263038678e-06
11.451613        	2.243485778e-06
11.467742        	2.218987152e-06
11.483871        	2.192397495e-06
11.5             	2.170505471e-06
11.516129        	2.150008446e-06
11.532258        	2.137083162e-06
11.548387        	2.118798776e-06
11.564516        	2.093155393e-06
11.580645        	2.074039909e-06
11.596774        	2.055350216e-06
11.612903        	2.042843641e-06
11.629032        	2.026691080e-06
11.645161        	2.008501744e-06
11.66129         	1.996042171e-06
11.677419        	1.985240573e-06
11.693548        	1.978315650e-06
11.709677        	1.965460693e-06
11.725806        	1.950980012e-06
11.741935        	1.939548642e-06
11.758065        	1.926876797e-06
11.774194        	1.918109856e-06
11.790323        	1.901452041e-06
11.806452        	1.887326973e-06
11.822581        	1.874312175e-06
11.83871         	1.862290489e-06
11.854839        	1.855831827e-06
11.870968        	1.840852166e-06
11.887097        	1.833313362e-06
11.903226        	1.822417040e-06
11.919355        	1.809600845e-06
11.935484        	1.796195412e-06
11.951613        	1.776038136e-06
11.967742        	1.769159775e-06
11.983871        	1.755922212e-06
12               	1.743457519e-06
12.016129        	1.726447555e-06
12.032258        	1.712097973e-06
12.048387        	1.703297204e-06
12.064516        	1.688474091e-06
12.080645        	1.672537826e-06
12.096774        	1.651229302e-06
12.112903        	1.633899799e-06
12.129032        	1.624226021e-06
12.145161        	1.614542485e-06
12.16129         	1.604081333e-06
12.177419        	1.582882724e-06
12.193548        	1.569738236e-06
12.209677        	1.562244059e-06
12.225806        	1.556106766e-06
12.241935        	1.542446016e-06
12.258065        	1.521305655e-06
12.274194        	1.507004096e-06
12.290323        	1.503122414e-06
12.306452        	1.498845310e-06
12.322581        	1.486203354e-06
12.33871         	1.462691989e-06
12.354839        	1.455848342e-06
12.370968        	1.453592364e-06
12.387097        	1.449312771e-06
12.403226        	1.434270462e-06
12.419355        	1.411197550e-06
12.435484        	1.404052487e-06
12.451613        	1.400615953e-06
12.467742        	1.394296786e-06
12.483871        	1.379703671e-06
12.5             	1.357925346e-06
12.516129        	1.351291941e-06
12.532258        	1.347219252e-06
12.548387        	1.339632587e-06
12.564516        	1.324347187e-06
12.580645        	1.303221404e-06
12.596774        	1.299853358e-06
12.612903        	1.299135689e-06
12.629032        	1.292828644e-06
12.645161        	1.278384378e-06
12.66129         	1.258879297e-06
12.677419        	1.256796900e-06