/*--------------------------------*- C++ -*----------------------------------*\
  =========                 |
  \\      /  F ield         | OpenFOAM: The Open Source CFD Toolbox
   \\    /   O peration     | Website:  https://openfoam.org
    \\  /    A nd           | Version:  12
     \\/     M anipulation  |
\*---------------------------------------------------------------------------*/
FoamFile
{
    format      ascii;
    class       volScalarField;
    location    "600";
    object      epsilon;
}
// * * * * * * * * * * * * * * * * * * * * * * * * * * * * * * * * * * * * * //

dimensions      [0 2 -3 0 0 0 0];

internalField   nonuniform List<scalar> 
80
(
56.7362
340.825
855.152
978.773
846.348
682.327
545.727
440.65
360.565
298.841
250.473
211.928
180.731
155.132
133.872
116.029
100.916
88.0137
76.921
67.3258
58.981
51.6892
45.2908
39.6552
34.6749
30.2601
26.3358
22.8383
19.7135
16.9152
14.404
12.1464
10.115
8.2887
6.65405
5.20838
3.96368
2.95023
2.21446
1.81069
1.81444
2.22534
2.96722
3.98539
5.23352
6.68167
8.31816
10.1459
12.1784
14.4368
16.9486
19.7471
22.8717
26.3685
30.2916
34.7044
39.6821
45.314
51.7077
58.9934
67.3307
76.9167
87.998
100.887
115.983
133.806
155.043
180.613
211.776
250.28
298.598
360.261
440.268
545.249
681.722
845.572
977.776
854.056
340.331
56.6593
)
;

boundaryField
{
    lowerWall
    {
        type            fixedValue;
        value           uniform 1e-08;
    }
    upperWall
    {
        type            fixedValue;
        value           uniform 1e-08;
    }
    front
    {
        type            cyclic;
    }
    back
    {
        type            cyclic;
    }
    defaultFaces
    {
        type            empty;
    }
}


// ************************************************************************* //
