/*--------------------------------*- C++ -*----------------------------------*\
  =========                 |
  \\      /  F ield         | OpenFOAM: The Open Source CFD Toolbox
   \\    /   O peration     | Website:  https://openfoam.org
    \\  /    A nd           | Version:  12
     \\/     M anipulation  |
\*---------------------------------------------------------------------------*/
FoamFile
{
    format      ascii;
    class       volSymmTensorField;
    location    "600";
    object      R;
}
// * * * * * * * * * * * * * * * * * * * * * * * * * * * * * * * * * * * * * //

dimensions      [0 2 -2 0 0 0 0];

internalField   nonuniform List<symmTensor> 
80
(
(0.00556227 -8.46735e-05 -0 0.00556227 -0 0.00556227)
(0.106277 -0.0101493 -0 0.106277 -0 0.106277)
(0.324093 -0.0858073 -0 0.324093 -0 0.324093)
(0.447704 -0.146322 -0 0.447704 -0 0.447704)
(0.495148 -0.17696 -0 0.495148 -0 0.495148)
(0.511951 -0.194037 -0 0.511951 -0 0.511951)
(0.516905 -0.203868 -0 0.516905 -0 0.516905)
(0.517326 -0.210012 -0 0.517326 -0 0.517326)
(0.516059 -0.214178 -0 0.516059 -0 0.516059)
(0.51422 -0.217198 -0 0.51422 -0 0.51422)
(0.51223 -0.219489 -0 0.51223 -0 0.51223)
(0.510215 -0.22126 -0 0.510215 -0 0.510215)
(0.508176 -0.22262 -0 0.508176 -0 0.508176)
(0.506056 -0.223621 -0 0.506056 -0 0.506056)
(0.503775 -0.224283 -0 0.503775 -0 0.503775)
(0.501243 -0.224609 -0 0.501243 -0 0.501243)
(0.498366 -0.224587 -0 0.498366 -0 0.498366)
(0.495052 -0.224201 -0 0.495052 -0 0.495052)
(0.491207 -0.223426 -0 0.491207 -0 0.491207)
(0.486738 -0.222236 -0 0.486738 -0 0.486738)
(0.481552 -0.220598 -0 0.481552 -0 0.481552)
(0.475553 -0.218478 -0 0.475553 -0 0.475553)
(0.468644 -0.215836 -0 0.468644 -0 0.468644)
(0.460723 -0.212629 -0 0.460723 -0 0.460723)
(0.451681 -0.208809 -0 0.451681 -0 0.451681)
(0.441407 -0.204321 -0 0.441407 -0 0.441407)
(0.429777 -0.199103 -0 0.429777 -0 0.429777)
(0.416663 -0.193085 -0 0.416663 -0 0.416663)
(0.401927 -0.186187 -0 0.401927 -0 0.401927)
(0.385426 -0.178316 -0 0.385426 -0 0.385426)
(0.367014 -0.169366 -0 0.367014 -0 0.367014)
(0.346558 -0.159214 -0 0.346558 -0 0.346558)
(0.323959 -0.14772 -0 0.323959 -0 0.323959)
(0.299196 -0.134721 -0 0.299196 -0 0.299196)
(0.272413 -0.120031 -0 0.272413 -0 0.272413)
(0.24408 -0.103448 -0 0.24408 -0 0.24408)
(0.21526 -0.0847785 -0 0.21526 -0 0.21526)
(0.187969 -0.0638711 -0 0.187969 -0 0.187969)
(0.16543 -0.0405018 -0 0.16543 -0 0.16543)
(0.151845 -0.0139826 -0 0.151845 -0 0.151845)
(0.15202 0.0145237 -0 0.15202 -0 0.15202)
(0.165914 0.0410321 -0 0.165914 -0 0.165914)
(0.188674 0.0643963 -0 0.188674 -0 0.188674)
(0.216097 0.0852961 -0 0.216097 -0 0.216097)
(0.244982 0.103952 -0 0.244982 -0 0.244982)
(0.273334 0.120519 -0 0.273334 -0 0.273334)
(0.300111 0.135191 -0 0.300111 -0 0.300111)
(0.324853 0.148171 -0 0.324853 -0 0.324853)
(0.347421 0.159645 -0 0.347421 -0 0.347421)
(0.367841 0.169776 -0 0.367841 -0 0.367841)
(0.386213 0.178706 -0 0.386213 -0 0.386213)
(0.402673 0.186555 -0 0.402673 -0 0.402673)
(0.417365 0.193432 -0 0.417365 -0 0.417365)
(0.430433 0.199427 -0 0.430433 -0 0.430433)
(0.442016 0.204621 -0 0.442016 -0 0.442016)
(0.452243 0.209085 -0 0.452243 -0 0.452243)
(0.461237 0.212881 -0 0.461237 -0 0.461237)
(0.46911 0.216063 -0 0.46911 -0 0.46911)
(0.47597 0.21868 -0 0.47597 -0 0.47597)
(0.48192 0.220775 -0 0.48192 -0 0.48192)
(0.487058 0.222388 -0 0.487058 -0 0.487058)
(0.491478 0.223554 -0 0.491478 -0 0.491478)
(0.495275 0.224304 -0 0.495275 -0 0.495275)
(0.498542 0.224666 -0 0.498542 -0 0.498542)
(0.501372 0.224665 -0 0.501372 -0 0.501372)
(0.503859 0.224317 -0 0.503859 -0 0.503859)
(0.506096 0.223633 -0 0.506096 -0 0.506096)
(0.508174 0.222612 -0 0.508174 -0 0.508174)
(0.510172 0.221234 -0 0.510172 -0 0.510172)
(0.512147 0.219446 -0 0.512147 -0 0.512147)
(0.514101 0.217141 -0 0.514101 -0 0.514101)
(0.515905 0.214108 -0 0.515905 -0 0.515905)
(0.51714 0.209932 -0 0.51714 -0 0.51714)
(0.516691 0.20378 -0 0.516691 -0 0.516691)
(0.511711 0.193941 -0 0.511711 -0 0.511711)
(0.494885 0.176858 -0 0.494885 -0 0.494885)
(0.447425 0.146221 -0 0.447425 -0 0.447425)
(0.323824 0.0857161 -0 0.323824 -0 0.323824)
(0.10616 0.0101322 -0 0.10616 -0 0.10616)
(0.0055561 8.4555e-05 -0 0.0055561 -0 0.0055561)
)
;

boundaryField
{
    lowerWall
    {
        type            calculated;
        value           uniform (6.66667e-11 -0 -0 6.66667e-11 -0 6.66667e-11);
    }
    upperWall
    {
        type            calculated;
        value           uniform (6.66667e-11 0 -0 6.66667e-11 -0 6.66667e-11);
    }
    front
    {
        type            cyclic;
    }
    back
    {
        type            cyclic;
    }
    defaultFaces
    {
        type            empty;
    }
}


// ************************************************************************* //
