/*--------------------------------*- C++ -*----------------------------------*\
  =========                 |
  \\      /  F ield         | OpenFOAM: The Open Source CFD Toolbox
   \\    /   O peration     | Website:  https://openfoam.org
    \\  /    A nd           | Version:  12
     \\/     M anipulation  |
\*---------------------------------------------------------------------------*/
FoamFile
{
    format      ascii;
    class       volVectorField;
    location    "600";
    object      U;
}
// * * * * * * * * * * * * * * * * * * * * * * * * * * * * * * * * * * * * * //

dimensions      [0 1 -1 0 0 0 0];

internalField   nonuniform List<vector> 
80
(
(0.642757 0 0)
(1.97521 0 0)
(3.14402 0 0)
(3.96614 0 0)
(4.54901 0 0)
(4.98954 0 0)
(5.3426 0 0)
(5.63991 0 0)
(5.90016 0 0)
(6.13481 0 0)
(6.35123 0 0)
(6.55431 0 0)
(6.74746 0 0)
(6.93313 0 0)
(7.11315 0 0)
(7.28889 0 0)
(7.46143 0 0)
(7.63162 0 0)
(7.80016 0 0)
(7.96763 0 0)
(8.13449 0 0)
(8.30115 0 0)
(8.46794 0 0)
(8.63516 0 0)
(8.80304 0 0)
(8.97178 0 0)
(9.14151 0 0)
(9.31233 0 0)
(9.48426 0 0)
(9.65721 0 0)
(9.83097 0 0)
(10.0051 0 0)
(10.179 0 0)
(10.3513 0 0)
(10.5201 0 0)
(10.6822 0 0)
(10.8327 0 0)
(10.9638 0 0)
(11.0649 0 0)
(11.1231 0 0)
(11.1225 0 0)
(11.0632 0 0)
(10.9613 0 0)
(10.8295 0 0)
(10.6786 0 0)
(10.5161 0 0)
(10.3471 0 0)
(10.1747 0 0)
(10.0008 0 0)
(9.82659 0 0)
(9.6528 0 0)
(9.47985 0 0)
(9.30794 0 0)
(9.13714 0 0)
(8.96745 0 0)
(8.79876 0 0)
(8.63094 0 0)
(8.46379 0 0)
(8.29708 0 0)
(8.1305 0 0)
(7.96373 0 0)
(7.79637 0 0)
(7.62793 0 0)
(7.45785 0 0)
(7.28543 0 0)
(7.10982 0 0)
(6.92994 0 0)
(6.7444 0 0)
(6.55139 0 0)
(6.34847 0 0)
(6.13221 0 0)
(5.89771 0 0)
(5.63762 0 0)
(5.34048 0 0)
(4.98758 0 0)
(4.54721 0 0)
(3.96452 0 0)
(3.1426 0 0)
(1.97419 0 0)
(0.642411 0 0)
)
;

boundaryField
{
    lowerWall
    {
        type            noSlip;
    }
    upperWall
    {
        type            noSlip;
    }
    front
    {
        type            cyclic;
    }
    back
    {
        type            cyclic;
    }
    defaultFaces
    {
        type            empty;
    }
}


// ************************************************************************* //
