/*--------------------------------*- C++ -*----------------------------------*\
  =========                 |
  \\      /  F ield         | OpenFOAM: The Open Source CFD Toolbox
   \\    /   O peration     | Website:  https://openfoam.org
    \\  /    A nd           | Version:  12
     \\/     M anipulation  |
\*---------------------------------------------------------------------------*/
FoamFile
{
    format      ascii;
    class       volScalarField;
    location    "100";
    object      epsilon;
}
// * * * * * * * * * * * * * * * * * * * * * * * * * * * * * * * * * * * * * //

dimensions      [0 2 -3 0 0 0 0];

internalField   nonuniform List<scalar> 
80
(
2.07756e-07
6.87889e-07
1.46457e-06
2.7491e-06
4.79301e-06
7.86341e-06
1.21806e-05
1.78393e-05
2.47655e-05
3.27719e-05
4.17447e-05
5.1935e-05
6.43205e-05
8.11196e-05
0.000106842
0.00015088
0.000234107
0.000405741
0.000785457
0.00166085
0.00367245
0.0081867
0.0194522
0.0426021
0.0667813
0.0654755
0.0493378
0.0337446
0.0232645
0.0181249
0.0169451
0.0181056
0.0206899
0.0240204
0.0273013
0.0294987
0.0294307
0.0262481
0.0206392
0.0162265
0.0175795
0.0230334
0.0274452
0.0288372
0.0275468
0.0246391
0.0211554
0.0179041
0.0154749
0.0143806
0.0154065
0.020032
0.0292953
0.0431064
0.0575917
0.0592538
0.0391922
0.0187874
0.0082201
0.00379085
0.00175516
0.000844008
0.000440702
0.000255791
0.000165231
0.000116971
8.86148e-05
7.00009e-05
5.62356e-05
4.49249e-05
3.50279e-05
2.62812e-05
1.87964e-05
1.27469e-05
8.17731e-06
4.95615e-06
2.82849e-06
1.50038e-06
7.02195e-07
2.11462e-07
)
;

boundaryField
{
    lowerWall
    {
        type            fixedValue;
        value           uniform 1e-08;
    }
    upperWall
    {
        type            fixedValue;
        value           uniform 1e-08;
    }
    front
    {
        type            cyclic;
    }
    back
    {
        type            cyclic;
    }
    defaultFaces
    {
        type            empty;
    }
}


// ************************************************************************* //
