/*--------------------------------*- C++ -*----------------------------------*\
  =========                 |
  \\      /  F ield         | OpenFOAM: The Open Source CFD Toolbox
   \\    /   O peration     | Website:  https://openfoam.org
    \\  /    A nd           | Version:  12
     \\/     M anipulation  |
\*---------------------------------------------------------------------------*/
FoamFile
{
    format      ascii;
    class       volScalarField;
    location    "100";
    object      nut;
}
// * * * * * * * * * * * * * * * * * * * * * * * * * * * * * * * * * * * * * //

dimensions      [0 2 -1 0 0 0 0];

internalField   nonuniform List<scalar> 
80
(
6.7702e-16
2.6525e-15
9.21394e-15
2.69827e-14
6.94203e-14
1.61319e-13
3.44405e-13
6.83676e-13
1.27595e-12
2.26758e-12
3.89875e-12
6.60989e-12
1.12862e-11
1.98312e-11
3.66179e-11
7.25606e-11
1.57949e-10
3.87872e-10
1.10153e-09
3.66735e-09
1.43455e-08
6.56164e-08
3.01013e-07
1.48172e-06
4.9387e-06
9.11778e-06
1.35188e-05
2.33194e-05
4.99189e-05
9.70709e-05
0.000149521
0.00019751
0.000240473
0.000279332
0.000313525
0.000340685
0.000357275
0.000360363
0.000352217
0.000345757
0.000356382
0.000373787
0.000380794
0.000371964
0.000349607
0.000317986
0.000280686
0.000239735
0.000195262
0.000145861
9.17443e-05
4.3978e-05
1.92704e-05
1.12785e-05
7.90372e-06
4.42194e-06
1.41317e-06
3.09606e-07
7.03277e-08
1.56809e-08
4.04313e-09
1.21937e-09
4.29508e-10
1.7455e-10
7.99436e-11
4.02052e-11
2.16891e-11
1.22851e-11
7.15275e-12
4.18922e-12
2.41695e-12
1.34824e-12
7.16028e-13
3.57585e-13
1.66129e-13
7.09576e-14
2.73952e-14
9.29687e-15
2.65879e-15
6.71623e-16
)
;

boundaryField
{
    lowerWall
    {
        type            nutLowReWallFunction;
        Cmu             0.09;
        kappa           0.41;
        E               9.8;
        value           uniform 0;
    }
    upperWall
    {
        type            nutLowReWallFunction;
        Cmu             0.09;
        kappa           0.41;
        E               9.8;
        value           uniform 0;
    }
    front
    {
        type            cyclic;
    }
    back
    {
        type            cyclic;
    }
    defaultFaces
    {
        type            empty;
    }
}


// ************************************************************************* //
