/*--------------------------------*- C++ -*----------------------------------*\
  =========                 |
  \\      /  F ield         | OpenFOAM: The Open Source CFD Toolbox
   \\    /   O peration     | Website:  https://openfoam.org
    \\  /    A nd           | Version:  12
     \\/     M anipulation  |
\*---------------------------------------------------------------------------*/
FoamFile
{
    format      ascii;
    class       volSymmTensorField;
    location    "100";
    object      R;
}
// * * * * * * * * * * * * * * * * * * * * * * * * * * * * * * * * * * * * * //

dimensions      [0 2 -2 0 0 0 0];

internalField   nonuniform List<symmTensor> 
80
(
(1.44267e-10 -4.52036e-12 -0 1.44267e-10 -0 1.44267e-10)
(5.19607e-10 -1.73199e-11 -0 5.19607e-10 -0 5.19607e-10)
(1.41308e-09 -5.79856e-11 -0 1.41308e-09 -0 1.41308e-09)
(3.31304e-09 -1.61087e-10 -0 3.31304e-09 -0 3.31304e-09)
(7.01674e-09 -3.87377e-10 -0 7.01674e-09 -0 7.01674e-09)
(1.37005e-08 -8.29739e-10 -0 1.37005e-08 -0 1.37005e-08)
(2.49147e-08 -1.61128e-09 -0 2.49147e-08 -0 2.49147e-08)
(4.24817e-08 -2.87261e-09 -0 4.24817e-08 -0 4.24817e-08)
(6.83796e-08 -4.75638e-09 -0 6.83796e-08 -0 6.83796e-08)
(1.04862e-07 -7.41151e-09 -0 1.04862e-07 -0 1.04862e-07)
(1.55184e-07 -1.10468e-08 -0 1.55184e-07 -0 1.55184e-07)
(2.25377e-07 -1.60589e-08 -0 2.25377e-07 -0 2.25377e-07)
(3.27737e-07 -2.32665e-08 -0 3.27737e-07 -0 3.27737e-07)
(4.87873e-07 -3.43458e-08 -0 4.87873e-07 -0 4.87873e-07)
(7.608e-07 -5.2787e-08 -0 7.608e-07 -0 7.608e-07)
(1.27257e-06 -8.63341e-08 -0 1.27257e-06 -0 1.27257e-06)
(2.33829e-06 -1.53987e-07 -0 2.33829e-06 -0 2.33829e-06)
(4.82143e-06 -3.08077e-07 -0 4.82143e-06 -0 4.82143e-06)
(1.12868e-05 -7.10298e-07 -0 1.12868e-05 -0 1.12868e-05)
(2.9778e-05 -1.9189e-06 -0 2.9778e-05 -0 2.9778e-05)
(8.56687e-05 -6.11086e-06 -0 8.56687e-05 -0 8.56687e-05)
(0.000251897 -2.28913e-05 -0 0.000251897 -0 0.000251897)
(0.000680574 -8.56588e-05 -0 0.000680574 -0 0.000680574)
(0.00160042 -0.000328579 -0 0.00160042 -0 0.00160042)
(0.0027204 -0.000789366 -0 0.0027204 -0 0.0027204)
(0.00314061 -0.000999525 -0 0.00314061 -0 0.00314061)
(0.00301585 -0.000968744 -0 0.00301585 -0 0.00301585)
(0.00288664 -0.000951532 -0 0.00288664 -0 0.00288664)
(0.00300186 -0.00101304 -0 0.00300186 -0 0.00300186)
(0.00332683 -0.0011278 -0 0.00332683 -0 0.00332683)
(0.00380329 -0.00142032 -0 0.00380329 -0 0.00380329)
(0.00441649 -0.00192283 -0 0.00441649 -0 0.00441649)
(0.00514482 -0.00255291 -0 0.00514482 -0 0.00514482)
(0.00592884 -0.00321286 -0 0.00592884 -0 0.00592884)
(0.00666324 -0.00380203 -0 0.00666324 -0 0.00666324)
(0.00719749 -0.00419741 -0 0.00719749 -0 0.00719749)
(0.00735018 -0.00423612 -0 0.00735018 -0 0.00735018)
(0.00696937 -0.00371764 -0 0.00696937 -0 0.00696937)
(0.00611441 -0.00247457 -0 0.00611441 -0 0.00611441)
(0.00537497 -0.000558695 -0 0.00537497 -0 0.00537497)
(0.00567405 0.00156263 -0 0.00567405 -0 0.00567405)
(0.00664142 0.00323721 -0 0.00664142 -0 0.00664142)
(0.0073131 0.00411901 -0 0.0073131 -0 0.0073131)
(0.00741417 0.00433137 -0 0.00741417 -0 0.00741417)
(0.00703945 0.00409246 -0 0.00703945 -0 0.00703945)
(0.00637136 0.00358853 -0 0.00637136 -0 0.00637136)
(0.00557626 0.00295483 -0 0.00557626 -0 0.00557626)
(0.00477942 0.00228925 -0 0.00477942 -0 0.00477942)
(0.00406306 0.00167422 -0 0.00406306 -0 0.00406306)
(0.00346868 0.00119736 -0 0.00346868 -0 0.00346868)
(0.00300441 0.000937208 -0 0.00300441 -0 0.00300441)
(0.00267705 0.000847246 -0 0.00267705 -0 0.00267705)
(0.0025528 0.000791766 -0 0.0025528 -0 0.0025528)
(0.00269009 0.000823006 -0 0.00269009 -0 0.00269009)
(0.00284122 0.00087378 -0 0.00284122 -0 0.00284122)
(0.0024929 0.000703522 -0 0.0024929 -0 0.0024929)
(0.00151595 0.000309476 -0 0.00151595 -0 0.00151595)
(0.00067498 8.70892e-05 -0 0.00067498 -0 0.00067498)
(0.000259689 2.43667e-05 -0 0.000259689 -0 0.000259689)
(9.07635e-05 6.65599e-06 -0 9.07635e-05 -0 9.07635e-05)
(3.21156e-05 2.11172e-06 -0 3.21156e-05 -0 3.21156e-05)
(1.23066e-05 7.8558e-07 -0 1.23066e-05 -0 1.23066e-05)
(5.28719e-06 3.41001e-07 -0 5.28719e-06 -0 5.28719e-06)
(2.56933e-06 1.7014e-07 -0 2.56933e-06 -0 2.56933e-06)
(1.39781e-06 9.51129e-08 -0 1.39781e-06 -0 1.39781e-06)
(8.34119e-07 5.79584e-08 -0 8.34119e-07 -0 8.34119e-07)
(5.33262e-07 3.75645e-08 -0 5.33262e-07 -0 5.33262e-07)
(3.56711e-07 2.53267e-08 -0 3.56711e-07 -0 3.56711e-07)
(2.43962e-07 1.73785e-08 -0 2.43962e-07 -0 2.43962e-07)
(1.66876e-07 1.18702e-08 -0 1.66876e-07 -0 1.66876e-07)
(1.11925e-07 7.89996e-09 -0 1.11925e-07 -0 1.11925e-07)
(7.24091e-08 5.02597e-09 -0 7.24091e-08 -0 7.24091e-08)
(4.46262e-08 3.00858e-09 -0 4.46262e-08 -0 4.46262e-08)
(2.59704e-08 1.67295e-09 -0 2.59704e-08 -0 2.59704e-08)
(1.4178e-08 8.5448e-10 -0 1.4178e-08 -0 1.4178e-08)
(7.21373e-09 3.95954e-10 -0 7.21373e-09 -0 7.21373e-09)
(3.38612e-09 1.63548e-10 -0 3.38612e-09 -0 3.38612e-09)
(1.43667e-09 5.85069e-11 -0 1.43667e-09 -0 1.43667e-09)
(5.25604e-10 1.73607e-11 -0 5.25604e-10 -0 5.25604e-10)
(1.44966e-10 4.48427e-12 -0 1.44966e-10 -0 1.44966e-10)
)
;

boundaryField
{
    lowerWall
    {
        type            calculated;
        value           uniform (6.66667e-11 -0 -0 6.66667e-11 -0 6.66667e-11);
    }
    upperWall
    {
        type            calculated;
        value           uniform (6.66667e-11 0 -0 6.66667e-11 -0 6.66667e-11);
    }
    front
    {
        type            cyclic;
    }
    back
    {
        type            cyclic;
    }
    defaultFaces
    {
        type            empty;
    }
}


// ************************************************************************* //
