/*--------------------------------*- C++ -*----------------------------------*\
  =========                 |
  \\      /  F ield         | OpenFOAM: The Open Source CFD Toolbox
   \\    /   O peration     | Website:  https://openfoam.org
    \\  /    A nd           | Version:  12
     \\/     M anipulation  |
\*---------------------------------------------------------------------------*/
FoamFile
{
    format      ascii;
    class       volVectorField;
    location    "100";
    object      U;
}
// * * * * * * * * * * * * * * * * * * * * * * * * * * * * * * * * * * * * * //

dimensions      [0 1 -1 0 0 0 0];

internalField   nonuniform List<vector> 
80
(
(0.189073 0 0)
(0.584559 0 0)
(1.01699 0 0)
(1.48207 0 0)
(1.97468 0 0)
(2.48899 0 0)
(3.01871 0 0)
(3.55725 0 0)
(4.09796 0 0)
(4.63437 0 0)
(5.16039 0 0)
(5.67048 0 0)
(6.15985 0 0)
(6.62454 0 0)
(7.06157 0 0)
(7.46895 0 0)
(7.84569 0 0)
(8.19183 0 0)
(8.50835 0 0)
(8.7972 0 0)
(9.06116 0 0)
(9.30374 0 0)
(9.52809 0 0)
(9.73213 0 0)
(9.90286 0 0)
(10.0355 0 0)
(10.1369 0 0)
(10.2071 0 0)
(10.2462 0 0)
(10.2683 0 0)
(10.286 0 0)
(10.3053 0 0)
(10.3288 0 0)
(10.3578 0 0)
(10.3928 0 0)
(10.4337 0 0)
(10.4794 0 0)
(10.5273 0 0)
(10.5707 0 0)
(10.5964 0 0)
(10.5874 0 0)
(10.5494 0 0)
(10.5015 0 0)
(10.4534 0 0)
(10.4094 0 0)
(10.371 0 0)
(10.3388 0 0)
(10.3124 0 0)
(10.2915 0 0)
(10.2747 0 0)
(10.2595 0 0)
(10.2398 0 0)
(10.2015 0 0)
(10.1298 0 0)
(10.0267 0 0)
(9.89371 0 0)
(9.72469 0 0)
(9.52357 0 0)
(9.30129 0 0)
(9.0599 0 0)
(8.79658 0 0)
(8.5081 0 0)
(8.19177 0 0)
(7.84573 0 0)
(7.46903 0 0)
(7.06166 0 0)
(6.62462 0 0)
(6.15991 0 0)
(5.67053 0 0)
(5.16042 0 0)
(4.63438 0 0)
(4.09795 0 0)
(3.55723 0 0)
(3.01869 0 0)
(2.48897 0 0)
(1.97466 0 0)
(1.48205 0 0)
(1.01697 0 0)
(0.584551 0 0)
(0.18907 0 0)
)
;

boundaryField
{
    lowerWall
    {
        type            noSlip;
    }
    upperWall
    {
        type            noSlip;
    }
    front
    {
        type            cyclic;
    }
    back
    {
        type            cyclic;
    }
    defaultFaces
    {
        type            empty;
    }
}


// ************************************************************************* //
