# y+ ()           
# Time            	patch             	min               	max               	average           
1                 	walls	9.1422891534e+03	9.1433283349e+03	9.1428087442e+03
