#           v             n
     0.523599             0
     0.648652             0
     0.790112             0
     0.953116             0
      1.13449             0
      1.34047             0
      1.56672             0
      1.82069             0
      2.09677    1.8475e-07
      2.40376   3.13882e-06
      2.73462   2.73648e-05
      3.09966   0.000133576
      3.49026   0.000477082
      3.91837    0.00121007
      4.37366     0.0025016
      4.86986    0.00403442
       5.3948    0.00552171
      5.96412    0.00610683
      6.56366    0.00579961
      7.21112    0.00452994
      7.89023    0.00306636
      8.62085    0.00173544
      9.38447   0.000861198
      10.2033   0.000363142
      11.0564   0.000135916
      11.9684   4.38613e-05
      12.9159   1.27068e-05
      13.9262   3.21411e-06
      14.9731   1.95731e-06
