/*--------------------------------*- C++ -*----------------------------------*\
  =========                 |
  \\      /  F ield         | OpenFOAM: The Open Source CFD Toolbox
   \\    /   O peration     | Website:  https://openfoam.org
    \\  /    A nd           | Version:  12
     \\/     M anipulation  |
\*---------------------------------------------------------------------------*/
FoamFile
{
    format      ascii;
    class       volScalarField;
    location    "10.5";
    object      p;
}
// * * * * * * * * * * * * * * * * * * * * * * * * * * * * * * * * * * * * * //

dimensions      [1 -1 -2 0 0 0 0];

internalField   nonuniform List<scalar> 
3829
(
-611.074
-611.075
-611.077
-611.08
-611.084
-611.089
-611.096
-611.104
-611.113
-611.124
-611.136
-611.15
-611.166
-611.184
-611.205
-611.227
-611.252
-611.28
-611.31
-611.344
-611.38
-611.419
-611.461
-611.506
-611.555
-611.606
-611.66
-611.718
-611.778
-611.84
-611.906
-611.973
-612.043
-612.114
-612.187
-612.261
-612.336
-612.412
-612.488
-612.564
-612.639
-612.713
-612.786
-612.858
-612.928
-612.995
-613.058
-613.119
-613.175
-613.228
-613.277
-613.322
-613.363
-613.399
-613.432
-613.459
-613.483
-613.502
-613.518
-613.529
-613.537
-613.541
-613.542
-613.541
-613.537
-613.531
-613.524
-613.516
-613.509
-613.501
-613.494
-613.489
-613.486
-613.486
-613.489
-613.495
-613.506
-613.521
-613.54
-613.565
-613.595
-613.63
-613.67
-613.714
-613.763
-613.816
-613.873
-613.931
-613.992
-614.054
-614.116
-614.177
-614.237
-614.293
-614.345
-614.392
-614.434
-614.468
-614.495
-614.515
-614.526
-614.527
-614.52
-614.505
-614.482
-614.452
-614.416
-614.376
-614.331
-614.284
-614.238
-614.193
-614.152
-614.115
-614.084
-614.061
-614.047
-614.041
-614.047
-614.062
-614.086
-614.118
-614.158
-614.203
-614.253
-614.305
-614.355
-614.401
-614.443
-614.477
-614.502
-614.517
-614.521
-614.513
-614.495
-614.467
-614.432
-614.39
-614.346
-614.301
-614.258
-614.221
-614.192
-614.173
-614.164
-614.168
-614.182
-614.207
-614.24
-614.278
-614.32
-614.361
-614.399
-614.431
-614.454
-614.468
-614.47
-614.462
-614.446
-614.423
-614.397
-614.369
-614.344
-614.322
-614.306
-614.297
-614.294
-614.297
-614.304
-614.312
-614.319
-614.324
-614.325
-614.32
-614.311
-614.298
-614.283
-614.268
-614.255
-614.246
-614.243
-614.247
-614.258
-614.276
-614.297
-614.322
-614.346
-614.368
-614.384
-614.393
-614.394
-614.386
-614.371
-614.351
-614.327
-614.301
-614.276
-614.255
-614.239
-614.231
-1769.33
-1769.33
-1769.34
-1769.34
-1769.34
-1769.34
-1769.35
-1769.35
-1769.36
-1769.36
-1769.37
-1769.38
-1769.4
-1769.41
-1769.43
-1769.45
-1769.47
-1769.5
-1769.53
-1769.57
-1769.6
-1769.64
-1769.69
-1769.74
-1769.8
-1769.85
-1769.92
-1769.98
-1770.05
-1770.13
-1770.2
-1770.28
-1770.37
-1770.45
-1770.54
-1770.62
-1770.71
-1770.8
-1770.89
-1770.98
-1771.06
-1771.15
-1771.23
-1771.31
-1771.39
-1771.46
-1771.53
-1771.6
-1771.66
-1771.72
-1771.77
-1771.81
-1771.86
-1771.89
-1771.92
-1771.94
-1771.96
-1771.98
-1771.98
-1771.99
-1771.99
-1771.98
-1771.97
-1771.96
-1771.94
-1771.93
-1771.91
-1771.89
-1771.87
-1771.86
-1771.84
-1771.82
-1771.81
-1771.81
-1771.8
-1771.8
-1771.81
-1771.82
-1771.84
-1771.87
-1771.9
-1771.94
-1771.98
-1772.03
-1772.09
-1772.15
-1772.22
-1772.29
-1772.36
-1772.43
-1772.5
-1772.57
-1772.64
-1772.71
-1772.77
-1772.82
-1772.87
-1772.91
-1772.94
-1772.96
-1772.97
-1772.97
-1772.96
-1772.94
-1772.91
-1772.87
-1772.82
-1772.77
-1772.71
-1772.65
-1772.6
-1772.54
-1772.49
-1772.44
-1772.41
-1772.38
-1772.36
-1772.35
-1772.36
-1772.38
-1772.41
-1772.45
-1772.5
-1772.56
-1772.61
-1772.68
-1772.74
-1772.8
-1772.85
-1772.89
-1772.92
-1772.93
-1772.94
-1772.93
-1772.9
-1772.87
-1772.82
-1772.77
-1772.72
-1772.66
-1772.61
-1772.56
-1772.53
-1772.51
-1772.5
-1772.5
-1772.52
-1772.55
-1772.59
-1772.64
-1772.69
-1772.74
-1772.79
-1772.82
-1772.85
-1772.86
-1772.86
-1772.85
-1772.83
-1772.8
-1772.77
-1772.74
-1772.71
-1772.68
-1772.66
-1772.65
-1772.65
-1772.66
-1772.67
-1772.68
-1772.69
-1772.7
-1772.7
-1772.7
-1772.69
-1772.67
-1772.65
-1772.63
-1772.62
-1772.61
-1772.6
-1772.61
-1772.62
-1772.64
-1772.66
-1772.69
-1772.72
-1772.74
-1772.76
-1772.77
-1772.77
-1772.76
-1772.75
-1772.72
-1772.7
-1772.67
-1772.64
-1772.62
-1772.6
-1772.59
-2795.4
-2795.4
-2795.39
-2795.39
-2795.39
-2795.38
-2795.38
-2795.38
-2795.37
-2795.37
-2795.37
-2795.37
-2795.37
-2795.38
-2795.38
-2795.39
-2795.41
-2795.43
-2795.46
-2795.49
-2795.53
-2795.57
-2795.62
-2795.68
-2795.74
-2795.81
-2795.89
-2795.97
-2796.06
-2796.15
-2796.25
-2796.35
-2796.46
-2796.57
-2796.68
-2796.79
-2796.9
-2797.02
-2797.13
-2797.24
-2797.35
-2797.45
-2797.56
-2797.66
-2797.75
-2797.84
-2797.92
-2797.99
-2798.06
-2798.12
-2798.17
-2798.22
-2798.25
-2798.28
-2798.31
-2798.32
-2798.33
-2798.33
-2798.32
-2798.31
-2798.29
-2798.27
-2798.24
-2798.21
-2798.17
-2798.13
-2798.09
-2798.05
-2798.02
-2797.98
-2797.94
-2797.91
-2797.89
-2797.87
-2797.85
-2797.85
-2797.85
-2797.86
-2797.87
-2797.9
-2797.94
-2797.98
-2798.04
-2798.1
-2798.17
-2798.25
-2798.33
-2798.42
-2798.51
-2798.6
-2798.69
-2798.78
-2798.87
-2798.96
-2799.03
-2799.1
-2799.16
-2799.21
-2799.24
-2799.26
-2799.27
-2799.26
-2799.24
-2799.21
-2799.17
-2799.11
-2799.04
-2798.97
-2798.89
-2798.81
-2798.73
-2798.65
-2798.58
-2798.52
-2798.47
-2798.44
-2798.41
-2798.41
-2798.42
-2798.45
-2798.49
-2798.54
-2798.61
-2798.69
-2798.77
-2798.85
-2798.93
-2799.01
-2799.07
-2799.12
-2799.16
-2799.18
-2799.18
-2799.17
-2799.13
-2799.08
-2799.02
-2798.95
-2798.88
-2798.8
-2798.73
-2798.67
-2798.63
-2798.6
-2798.59
-2798.6
-2798.63
-2798.67
-2798.72
-2798.79
-2798.86
-2798.92
-2798.98
-2799.02
-2799.05
-2799.07
-2799.07
-2799.05
-2799.02
-2798.98
-2798.93
-2798.89
-2798.85
-2798.82
-2798.8
-2798.79
-2798.79
-2798.81
-2798.82
-2798.84
-2798.86
-2798.87
-2798.88
-2798.87
-2798.86
-2798.84
-2798.81
-2798.79
-2798.77
-2798.75
-2798.75
-2798.75
-2798.77
-2798.79
-2798.82
-2798.85
-2798.89
-2798.92
-2798.94
-2798.95
-2798.95
-2798.94
-2798.92
-2798.89
-2798.86
-2798.83
-2798.8
-2798.77
-2798.75
-2798.74
-3704.3
-3704.3
-3704.29
-3704.28
-3704.26
-3704.25
-3704.22
-3704.2
-3704.17
-3704.14
-3704.12
-3704.09
-3704.07
-3704.05
-3704.03
-3704.02
-3704.02
-3704.03
-3704.04
-3704.07
-3704.11
-3704.15
-3704.21
-3704.29
-3704.37
-3704.47
-3704.57
-3704.69
-3704.81
-3704.94
-3705.08
-3705.23
-3705.37
-3705.53
-3705.68
-3705.83
-3705.99
-3706.14
-3706.29
-3706.43
-3706.58
-3706.71
-3706.84
-3706.96
-3707.08
-3707.18
-3707.27
-3707.36
-3707.44
-3707.5
-3707.56
-3707.6
-3707.63
-3707.66
-3707.67
-3707.67
-3707.66
-3707.64
-3707.61
-3707.57
-3707.53
-3707.47
-3707.42
-3707.35
-3707.29
-3707.22
-3707.15
-3707.08
-3707.02
-3706.95
-3706.89
-3706.84
-3706.79
-3706.75
-3706.72
-3706.7
-3706.7
-3706.7
-3706.72
-3706.75
-3706.79
-3706.85
-3706.91
-3706.99
-3707.09
-3707.19
-3707.29
-3707.41
-3707.53
-3707.65
-3707.78
-3707.9
-3708.01
-3708.12
-3708.22
-3708.31
-3708.38
-3708.44
-3708.48
-3708.51
-3708.51
-3708.5
-3708.46
-3708.41
-3708.35
-3708.26
-3708.17
-3708.06
-3707.95
-3707.84
-3707.73
-3707.62
-3707.53
-3707.44
-3707.38
-3707.33
-3707.3
-3707.29
-3707.31
-3707.35
-3707.41
-3707.48
-3707.58
-3707.68
-3707.79
-3707.91
-3708.02
-3708.12
-3708.21
-3708.28
-3708.32
-3708.35
-3708.35
-3708.32
-3708.27
-3708.2
-3708.11
-3708.01
-3707.91
-3707.81
-3707.72
-3707.64
-3707.58
-3707.54
-3707.53
-3707.55
-3707.59
-3707.65
-3707.72
-3707.81
-3707.9
-3707.99
-3708.06
-3708.12
-3708.16
-3708.17
-3708.17
-3708.14
-3708.09
-3708.04
-3707.97
-3707.91
-3707.86
-3707.82
-3707.8
-3707.8
-3707.81
-3707.83
-3707.86
-3707.89
-3707.91
-3707.93
-3707.94
-3707.93
-3707.91
-3707.89
-3707.85
-3707.82
-3707.79
-3707.77
-3707.76
-3707.77
-3707.79
-3707.82
-3707.85
-3707.89
-3707.93
-3707.97
-3707.99
-3708.01
-3708.01
-3707.99
-3707.97
-3707.94
-3707.9
-3707.86
-3707.83
-3707.8
-3707.77
-3707.76
-4509.72
-4509.7
-4509.68
-4509.65
-4509.6
-4509.54
-4509.48
-4509.41
-4509.33
-4509.25
-4509.17
-4509.09
-4509.01
-4508.94
-4508.88
-4508.83
-4508.79
-4508.77
-4508.76
-4508.77
-4508.8
-4508.86
-4508.93
-4509.02
-4509.13
-4509.26
-4509.41
-4509.57
-4509.74
-4509.93
-4510.13
-4510.33
-4510.54
-4510.75
-4510.97
-4511.18
-4511.39
-4511.6
-4511.79
-4511.99
-4512.17
-4512.34
-4512.5
-4512.65
-4512.79
-4512.92
-4513.03
-4513.13
-4513.21
-4513.27
-4513.32
-4513.36
-4513.38
-4513.38
-4513.38
-4513.35
-4513.32
-4513.27
-4513.21
-4513.14
-4513.06
-4512.97
-4512.87
-4512.77
-4512.67
-4512.56
-4512.45
-4512.34
-4512.24
-4512.14
-4512.04
-4511.96
-4511.89
-4511.82
-4511.78
-4511.74
-4511.73
-4511.73
-4511.74
-4511.78
-4511.83
-4511.9
-4511.99
-4512.09
-4512.21
-4512.34
-4512.49
-4512.64
-4512.8
-4512.96
-4513.12
-4513.28
-4513.43
-4513.57
-4513.7
-4513.82
-4513.91
-4513.99
-4514.04
-4514.06
-4514.06
-4514.04
-4513.99
-4513.91
-4513.81
-4513.7
-4513.56
-4513.42
-4513.27
-4513.11
-4512.96
-4512.82
-4512.69
-4512.57
-4512.48
-4512.42
-4512.38
-4512.38
-4512.4
-4512.46
-4512.54
-4512.65
-4512.77
-4512.92
-4513.07
-4513.22
-4513.37
-4513.51
-4513.62
-4513.71
-4513.78
-4513.8
-4513.8
-4513.76
-4513.69
-4513.59
-4513.47
-4513.33
-4513.19
-4513.06
-4512.93
-4512.83
-4512.75
-4512.7
-4512.69
-4512.72
-4512.77
-4512.86
-4512.96
-4513.08
-4513.2
-4513.32
-4513.42
-4513.49
-4513.54
-4513.55
-4513.53
-4513.49
-4513.43
-4513.35
-4513.26
-4513.18
-4513.11
-4513.06
-4513.04
-4513.04
-4513.06
-4513.09
-4513.14
-4513.18
-4513.22
-4513.25
-4513.26
-4513.25
-4513.22
-4513.19
-4513.14
-4513.1
-4513.06
-4513.03
-4513.02
-4513.03
-4513.05
-4513.09
-4513.13
-4513.19
-4513.23
-4513.28
-4513.31
-4513.32
-4513.32
-4513.31
-4513.28
-4513.24
-4513.19
-4513.15
-4513.1
-4513.07
-4513.04
-4513.03
-5223.61
-5223.58
-5223.52
-5223.43
-5223.32
-5223.18
-5223.01
-5222.83
-5222.65
-5222.47
-5222.28
-5222.1
-5221.92
-5221.76
-5221.61
-5221.48
-5221.36
-5221.28
-5221.22
-5221.2
-5221.22
-5221.27
-5221.36
-5221.49
-5221.65
-5221.84
-5222.07
-5222.32
-5222.59
-5222.87
-5223.16
-5223.46
-5223.77
-5224.07
-5224.37
-5224.66
-5224.95
-5225.22
-5225.48
-5225.73
-5225.96
-5226.18
-5226.38
-5226.56
-5226.72
-5226.86
-5226.98
-5227.09
-5227.17
-5227.24
-5227.28
-5227.31
-5227.31
-5227.3
-5227.26
-5227.21
-5227.14
-5227.06
-5226.96
-5226.84
-5226.72
-5226.58
-5226.44
-5226.29
-5226.13
-5225.97
-5225.82
-5225.66
-5225.51
-5225.37
-5225.24
-5225.12
-5225.01
-5224.92
-5224.85
-5224.8
-5224.77
-5224.77
-5224.79
-5224.83
-5224.9
-5224.99
-5225.1
-5225.23
-5225.39
-5225.56
-5225.75
-5225.95
-5226.15
-5226.36
-5226.57
-5226.78
-5226.97
-5227.16
-5227.32
-5227.47
-5227.59
-5227.68
-5227.74
-5227.77
-5227.76
-5227.72
-5227.65
-5227.54
-5227.41
-5227.25
-5227.07
-5226.87
-5226.67
-5226.46
-5226.26
-5226.07
-5225.9
-5225.75
-5225.63
-5225.55
-5225.51
-5225.5
-5225.54
-5225.61
-5225.73
-5225.87
-5226.05
-5226.24
-5226.44
-5226.64
-5226.83
-5227.01
-5227.16
-5227.28
-5227.35
-5227.39
-5227.37
-5227.32
-5227.22
-5227.08
-5226.92
-5226.74
-5226.56
-5226.38
-5226.21
-5226.08
-5225.98
-5225.93
-5225.92
-5225.95
-5226.03
-5226.15
-5226.29
-5226.44
-5226.61
-5226.75
-5226.88
-5226.97
-5227.02
-5227.04
-5227.01
-5226.95
-5226.85
-5226.75
-5226.63
-5226.53
-5226.44
-5226.38
-5226.36
-5226.36
-5226.39
-5226.44
-5226.51
-5226.57
-5226.63
-5226.66
-5226.67
-5226.66
-5226.63
-5226.58
-5226.52
-5226.46
-5226.41
-5226.38
-5226.36
-5226.37
-5226.4
-5226.44
-5226.5
-5226.57
-5226.63
-5226.68
-5226.71
-5226.73
-5226.73
-5226.71
-5226.67
-5226.63
-5226.58
-5226.52
-5226.47
-5226.43
-5226.4
-5226.38
-5855.96
-5855.91
-5855.82
-5855.67
-5855.49
-5855.25
-5854.99
-5854.69
-5854.36
-5854.01
-5853.65
-5853.29
-5852.94
-5852.62
-5852.33
-5852.08
-5851.88
-5851.73
-5851.64
-5851.6
-5851.63
-5851.72
-5851.87
-5852.09
-5852.36
-5852.69
-5853.08
-5853.49
-5853.92
-5854.36
-5854.8
-5855.24
-5855.67
-5856.08
-5856.49
-5856.88
-5857.24
-5857.59
-5857.92
-5858.22
-5858.51
-5858.76
-5859
-5859.2
-5859.39
-5859.55
-5859.68
-5859.78
-5859.86
-5859.91
-5859.94
-5859.94
-5859.92
-5859.88
-5859.81
-5859.72
-5859.61
-5859.48
-5859.33
-5859.17
-5858.99
-5858.79
-5858.59
-5858.38
-5858.17
-5857.96
-5857.74
-5857.53
-5857.33
-5857.14
-5856.96
-5856.8
-5856.66
-5856.54
-5856.44
-5856.37
-5856.33
-5856.32
-5856.34
-5856.4
-5856.48
-5856.6
-5856.74
-5856.91
-5857.11
-5857.33
-5857.57
-5857.82
-5858.08
-5858.35
-5858.62
-5858.88
-5859.13
-5859.36
-5859.57
-5859.75
-5859.9
-5860.01
-5860.08
-5860.11
-5860.09
-5860.04
-5859.93
-5859.79
-5859.61
-5859.41
-5859.17
-5858.92
-5858.65
-5858.39
-5858.13
-5857.88
-5857.66
-5857.47
-5857.32
-5857.22
-5857.17
-5857.17
-5857.22
-5857.32
-5857.47
-5857.66
-5857.88
-5858.13
-5858.39
-5858.65
-5858.9
-5859.12
-5859.31
-5859.46
-5859.55
-5859.59
-5859.57
-5859.49
-5859.36
-5859.18
-5858.97
-5858.74
-5858.5
-5858.27
-5858.06
-5857.89
-5857.77
-5857.7
-5857.7
-5857.75
-5857.85
-5858
-5858.19
-5858.38
-5858.6
-5858.78
-5858.94
-5859.05
-5859.11
-5859.12
-5859.08
-5858.99
-5858.87
-5858.73
-5858.58
-5858.45
-5858.34
-5858.27
-5858.24
-5858.26
-5858.3
-5858.38
-5858.46
-5858.55
-5858.62
-5858.66
-5858.68
-5858.66
-5858.62
-5858.56
-5858.48
-5858.4
-5858.34
-5858.3
-5858.28
-5858.29
-5858.33
-5858.38
-5858.45
-5858.53
-5858.6
-5858.66
-5858.7
-5858.72
-5858.72
-5858.7
-5858.65
-5858.6
-5858.54
-5858.48
-5858.42
-5858.37
-5858.34
-5858.32
-6417.8
-6417.72
-6417.54
-6417.27
-6416.92
-6416.46
-6415.94
-6415.33
-6414.7
-6414.05
-6413.42
-6412.8
-6412.23
-6411.7
-6411.24
-6410.85
-6410.52
-6410.27
-6410.1
-6410
-6409.99
-6410.06
-6410.23
-6410.48
-6410.84
-6411.27
-6411.92
-6412.48
-6413.19
-6413.76
-6414.39
-6414.98
-6415.55
-6416.1
-6416.63
-6417.12
-6417.58
-6418
-6418.39
-6418.75
-6419.08
-6419.37
-6419.63
-6419.85
-6420.04
-6420.2
-6420.33
-6420.43
-6420.51
-6420.55
-6420.55
-6420.53
-6420.48
-6420.4
-6420.29
-6420.16
-6420
-6419.81
-6419.61
-6419.39
-6419.14
-6418.89
-6418.62
-6418.35
-6418.07
-6417.79
-6417.51
-6417.24
-6416.98
-6416.73
-6416.5
-6416.3
-6416.11
-6415.96
-6415.84
-6415.75
-6415.7
-6415.68
-6415.71
-6415.78
-6415.88
-6416.03
-6416.21
-6416.42
-6416.67
-6416.95
-6417.24
-6417.56
-6417.89
-6418.22
-6418.55
-6418.88
-6419.18
-6419.47
-6419.73
-6419.95
-6420.13
-6420.26
-6420.34
-6420.38
-6420.35
-6420.27
-6420.13
-6419.95
-6419.72
-6419.46
-6419.16
-6418.84
-6418.5
-6418.17
-6417.84
-6417.54
-6417.26
-6417.03
-6416.85
-6416.72
-6416.66
-6416.66
-6416.73
-6416.86
-6417.05
-6417.3
-6417.58
-6417.89
-6418.22
-6418.54
-6418.85
-6419.13
-6419.37
-6419.54
-6419.65
-6419.7
-6419.66
-6419.56
-6419.39
-6419.16
-6418.89
-6418.6
-6418.3
-6418.01
-6417.76
-6417.55
-6417.4
-6417.33
-6417.32
-6417.39
-6417.53
-6417.72
-6417.95
-6418.21
-6418.46
-6418.69
-6418.88
-6419.02
-6419.09
-6419.1
-6419.04
-6418.92
-6418.76
-6418.58
-6418.4
-6418.23
-6418.1
-6418.02
-6417.99
-6418.01
-6418.08
-6418.18
-6418.29
-6418.4
-6418.49
-6418.55
-6418.57
-6418.55
-6418.49
-6418.41
-6418.31
-6418.22
-6418.14
-6418.09
-6418.07
-6418.08
-6418.12
-6418.19
-6418.27
-6418.37
-6418.45
-6418.52
-6418.57
-6418.59
-6418.59
-6418.56
-6418.51
-6418.44
-6418.37
-6418.3
-6418.24
-6418.18
-6418.14
-6418.12
-6916.08
-6915.95
-6915.7
-6915.31
-6914.71
-6913.95
-6913.12
-6912.02
-6910.93
-6909.78
-6908.61
-6907.47
-6906.39
-6905.43
-6904.59
-6903.89
-6903.32
-6902.89
-6902.61
-6902.5
-6902.55
-6902.76
-6903.14
-6903.66
-6904.35
-6905.17
-6906.25
-6907.25
-6908.3
-6909.24
-6910.17
-6911.02
-6911.8
-6912.51
-6913.15
-6913.73
-6914.26
-6914.74
-6915.17
-6915.56
-6915.91
-6916.22
-6916.5
-6916.73
-6916.92
-6917.09
-6917.21
-6917.3
-6917.35
-6917.36
-6917.34
-6917.29
-6917.2
-6917.08
-6916.92
-6916.74
-6916.52
-6916.28
-6916.01
-6915.72
-6915.42
-6915.09
-6914.75
-6914.41
-6914.06
-6913.7
-6913.36
-6913.02
-6912.69
-6912.39
-6912.1
-6911.85
-6911.62
-6911.43
-6911.28
-6911.17
-6911.11
-6911.09
-6911.13
-6911.21
-6911.34
-6911.51
-6911.74
-6912
-6912.31
-6912.64
-6913.01
-6913.39
-6913.79
-6914.2
-6914.6
-6915
-6915.37
-6915.71
-6916.02
-6916.29
-6916.5
-6916.66
-6916.75
-6916.77
-6916.74
-6916.64
-6916.47
-6916.24
-6915.96
-6915.63
-6915.26
-6914.86
-6914.45
-6914.04
-6913.64
-6913.27
-6912.94
-6912.66
-6912.44
-6912.29
-6912.22
-6912.23
-6912.32
-6912.48
-6912.72
-6913.02
-6913.37
-6913.75
-6914.15
-6914.55
-6914.93
-6915.26
-6915.55
-6915.76
-6915.89
-6915.93
-6915.88
-6915.75
-6915.54
-6915.26
-6914.93
-6914.57
-6914.2
-6913.85
-6913.54
-6913.29
-6913.12
-6913.03
-6913.03
-6913.12
-6913.3
-6913.54
-6913.82
-6914.13
-6914.44
-6914.72
-6914.95
-6915.11
-6915.19
-6915.19
-6915.1
-6914.96
-6914.76
-6914.54
-6914.31
-6914.11
-6913.96
-6913.86
-6913.83
-6913.87
-6913.95
-6914.08
-6914.22
-6914.36
-6914.47
-6914.54
-6914.56
-6914.53
-6914.46
-6914.36
-6914.25
-6914.13
-6914.04
-6913.98
-6913.95
-6913.97
-6914.02
-6914.1
-6914.2
-6914.31
-6914.41
-6914.49
-6914.54
-6914.56
-6914.55
-6914.52
-6914.46
-6914.39
-6914.31
-6914.23
-6914.16
-6914.1
-6914.05
-6914.03
-7359.87
-7359.66
-7359.23
-7358.58
-7357.77
-7356.65
-7355.1
-7352.93
-7350.17
-7347.5
-7345.76
-7344.11
-7342.73
-7341.57
-7340.6
-7339.83
-7339.23
-7338.8
-7338.51
-7338.37
-7338.36
-7338.54
-7338.93
-7339.57
-7340.53
-7341.55
-7343.45
-7345.88
-7347.56
-7348.83
-7350.01
-7350.95
-7351.91
-7352.68
-7353.38
-7354
-7354.56
-7355.06
-7355.51
-7355.92
-7356.27
-7356.59
-7356.86
-7357.09
-7357.28
-7357.43
-7357.54
-7357.61
-7357.64
-7357.63
-7357.58
-7357.49
-7357.36
-7357.19
-7356.99
-7356.74
-7356.47
-7356.17
-7355.83
-7355.47
-7355.09
-7354.69
-7354.28
-7353.85
-7353.43
-7353
-7352.58
-7352.17
-7351.78
-7351.41
-7351.06
-7350.75
-7350.48
-7350.26
-7350.08
-7349.95
-7349.87
-7349.86
-7349.9
-7350
-7350.16
-7350.37
-7350.64
-7350.96
-7351.32
-7351.73
-7352.16
-7352.62
-7353.1
-7353.59
-7354.07
-7354.53
-7354.98
-7355.38
-7355.75
-7356.06
-7356.31
-7356.49
-7356.59
-7356.62
-7356.57
-7356.44
-7356.23
-7355.95
-7355.61
-7355.21
-7354.76
-7354.29
-7353.8
-7353.31
-7352.83
-7352.39
-7351.99
-7351.66
-7351.4
-7351.23
-7351.15
-7351.16
-7351.28
-7351.48
-7351.77
-7352.13
-7352.56
-7353.01
-7353.49
-7353.97
-7354.42
-7354.82
-7355.15
-7355.4
-7355.55
-7355.59
-7355.53
-7355.36
-7355.1
-7354.76
-7354.37
-7353.94
-7353.49
-7353.08
-7352.71
-7352.42
-7352.22
-7352.12
-7352.13
-7352.24
-7352.46
-7352.75
-7353.09
-7353.46
-7353.83
-7354.16
-7354.43
-7354.61
-7354.7
-7354.69
-7354.58
-7354.4
-7354.16
-7353.89
-7353.62
-7353.38
-7353.2
-7353.09
-7353.07
-7353.11
-7353.23
-7353.38
-7353.55
-7353.72
-7353.85
-7353.94
-7353.96
-7353.93
-7353.84
-7353.72
-7353.58
-7353.44
-7353.34
-7353.26
-7353.24
-7353.26
-7353.32
-7353.41
-7353.53
-7353.65
-7353.76
-7353.85
-7353.91
-7353.93
-7353.93
-7353.89
-7353.82
-7353.74
-7353.65
-7353.56
-7353.48
-7353.41
-7353.37
-7353.34
-7755.19
-7754.92
-7754.36
-7753.45
-7752.1
-7750.17
-7747.91
-7745.3
-7741.73
-7738.78
-7736.16
-7733.78
-7731.73
-7729.94
-7728.42
-7727.16
-7726.16
-7725.43
-7725
-7724.88
-7725.06
-7725.53
-7726.3
-7727.35
-7728.74
-7730.39
-7732.42
-7735.18
-7737.3
-7739.07
-7740.1
-7741.28
-7742.25
-7743.06
-7743.75
-7744.36
-7744.9
-7745.39
-7745.82
-7746.21
-7746.56
-7746.87
-7747.13
-7747.35
-7747.53
-7747.67
-7747.76
-7747.81
-7747.81
-7747.77
-7747.69
-7747.56
-7747.39
-7747.17
-7746.91
-7746.61
-7746.28
-7745.91
-7745.5
-7745.07
-7744.61
-7744.14
-7743.64
-7743.14
-7742.63
-7742.13
-7741.63
-7741.14
-7740.68
-7740.25
-7739.84
-7739.48
-7739.16
-7738.9
-7738.69
-7738.54
-7738.46
-7738.44
-7738.49
-7738.61
-7738.8
-7739.05
-7739.37
-7739.74
-7740.17
-7740.65
-7741.16
-7741.7
-7742.26
-7742.83
-7743.39
-7743.94
-7744.45
-7744.93
-7745.35
-7745.71
-7745.99
-7746.2
-7746.32
-7746.34
-7746.28
-7746.12
-7745.87
-7745.53
-7745.12
-7744.65
-7744.12
-7743.57
-7742.99
-7742.41
-7741.85
-7741.34
-7740.88
-7740.49
-7740.19
-7739.99
-7739.91
-7739.93
-7740.07
-7740.32
-7740.66
-7741.09
-7741.59
-7742.13
-7742.69
-7743.25
-7743.77
-7744.23
-7744.62
-7744.9
-7745.07
-7745.12
-7745.04
-7744.84
-7744.53
-7744.12
-7743.66
-7743.16
-7742.63
-7742.15
-7741.72
-7741.38
-7741.15
-7741.04
-7741.06
-7741.21
-7741.46
-7741.81
-7742.21
-7742.65
-7743.07
-7743.46
-7743.76
-7743.97
-7744.07
-7744.05
-7743.92
-7743.69
-7743.41
-7743.09
-7742.77
-7742.5
-7742.29
-7742.17
-7742.14
-7742.21
-7742.35
-7742.53
-7742.74
-7742.94
-7743.1
-7743.19
-7743.22
-7743.17
-7743.07
-7742.93
-7742.77
-7742.61
-7742.48
-7742.4
-7742.37
-7742.4
-7742.47
-7742.58
-7742.71
-7742.85
-7742.97
-7743.07
-7743.13
-7743.16
-7743.15
-7743.1
-7743.03
-7742.94
-7742.84
-7742.74
-7742.65
-7742.58
-7742.53
-7742.5
-8107.59
-8107.52
-8107.4
-8107.27
-8107.15
-8107.34
-8107.24
-8106.78
-8086.83
-8087.02
-8087.34
-8087.71
-8088.28
-8088.81
-8089.37
-8089.91
-8090.42
-8090.9
-8091.34
-8091.75
-8092.12
-8092.45
-8092.74
-8092.99
-8093.2
-8093.37
-8093.49
-8093.56
-8093.59
-8093.57
-8093.5
-8093.38
-8093.22
-8093
-8092.73
-8092.42
-8092.06
-8091.66
-8091.23
-8090.75
-8090.24
-8089.71
-8089.15
-8088.58
-8087.99
-8087.4
-8086.82
-8086.24
-8085.68
-8085.14
-8084.64
-8084.18
-8083.76
-8083.4
-8083.1
-8082.86
-8082.69
-8082.6
-8082.58
-8082.64
-8082.78
-8083
-8083.3
-8083.66
-8084.1
-8084.6
-8085.15
-8085.74
-8086.36
-8087.01
-8087.66
-8088.3
-8088.93
-8089.52
-8090.06
-8090.55
-8090.95
-8091.28
-8091.51
-8091.64
-8091.66
-8091.58
-8091.38
-8091.09
-8090.7
-8090.22
-8089.67
-8089.07
-8088.42
-8087.75
-8087.09
-8086.45
-8085.86
-8085.33
-8084.89
-8084.55
-8084.33
-8084.23
-8084.27
-8084.43
-8084.72
-8085.13
-8085.63
-8086.2
-8086.83
-8087.47
-8088.11
-8088.71
-8089.24
-8089.68
-8090
-8090.19
-8090.24
-8090.14
-8089.9
-8089.53
-8089.07
-8088.53
-8087.95
-8087.34
-8086.79
-8086.31
-8085.92
-8085.66
-8085.54
-8085.57
-8085.74
-8086.04
-8086.44
-8086.91
-8087.42
-8087.9
-8088.34
-8088.69
-8088.92
-8089.03
-8088.99
-8088.83
-8088.57
-8088.24
-8087.87
-8087.5
-8087.19
-8086.96
-8086.82
-8086.8
-8086.88
-8087.05
-8087.27
-8087.51
-8087.74
-8087.92
-8088.03
-8088.06
-8088
-8087.88
-8087.72
-8087.53
-8087.35
-8087.21
-8087.12
-8087.08
-8087.11
-8087.2
-8087.32
-8087.47
-8087.62
-8087.76
-8087.87
-8087.94
-8087.96
-8087.95
-8087.9
-8087.81
-8087.72
-8087.61
-8087.5
-8087.41
-8087.33
-8087.27
-8087.24
-8420.2
-8420.15
-8420.07
-8419.94
-8419.75
-8419.51
-8419.36
-8419.23
-8393.93
-8394.22
-8394.57
-8394.91
-8395.34
-8395.77
-8396.22
-8396.67
-8397.11
-8397.54
-8397.94
-8398.32
-8398.67
-8398.98
-8399.26
-8399.5
-8399.7
-8399.85
-8399.96
-8400.01
-8400.02
-8399.98
-8399.88
-8399.72
-8399.52
-8399.26
-8398.94
-8398.58
-8398.16
-8397.7
-8397.19
-8396.64
-8396.06
-8395.45
-8394.81
-8394.15
-8393.49
-8392.82
-8392.15
-8391.49
-8390.86
-8390.25
-8389.68
-8389.16
-8388.69
-8388.28
-8387.94
-8387.67
-8387.48
-8387.38
-8387.36
-8387.44
-8387.6
-8387.85
-8388.19
-8388.61
-8389.11
-8389.68
-8390.3
-8390.97
-8391.68
-8392.41
-8393.15
-8393.88
-8394.59
-8395.25
-8395.87
-8396.41
-8396.86
-8397.23
-8397.48
-8397.62
-8397.64
-8397.54
-8397.31
-8396.97
-8396.53
-8395.98
-8395.35
-8394.66
-8393.93
-8393.17
-8392.42
-8391.7
-8391.03
-8390.43
-8389.94
-8389.56
-8389.31
-8389.21
-8389.26
-8389.45
-8389.79
-8390.25
-8390.82
-8391.47
-8392.18
-8392.92
-8393.64
-8394.31
-8394.91
-8395.4
-8395.76
-8395.97
-8396.01
-8395.9
-8395.62
-8395.2
-8394.67
-8394.05
-8393.39
-8392.71
-8392.09
-8391.54
-8391.11
-8390.82
-8390.69
-8390.73
-8390.94
-8391.28
-8391.74
-8392.28
-8392.84
-8393.4
-8393.89
-8394.28
-8394.53
-8394.64
-8394.6
-8394.41
-8394.1
-8393.72
-8393.3
-8392.89
-8392.53
-8392.27
-8392.13
-8392.11
-8392.21
-8392.41
-8392.66
-8392.94
-8393.2
-8393.4
-8393.52
-8393.55
-8393.49
-8393.35
-8393.16
-8392.95
-8392.75
-8392.59
-8392.49
-8392.45
-8392.49
-8392.58
-8392.72
-8392.89
-8393.06
-8393.21
-8393.32
-8393.4
-8393.42
-8393.41
-8393.35
-8393.26
-8393.15
-8393.03
-8392.92
-8392.82
-8392.73
-8392.67
-8392.64
-8697.28
-8697.25
-8697.18
-8697.08
-8696.92
-8696.78
-8696.68
-8696.65
-8666.36
-8666.5
-8666.73
-8666.96
-8667.3
-8667.66
-8668.04
-8668.44
-8668.83
-8669.22
-8669.6
-8669.96
-8670.3
-8670.6
-8670.87
-8671.1
-8671.29
-8671.44
-8671.53
-8671.57
-8671.56
-8671.49
-8671.37
-8671.18
-8670.94
-8670.63
-8670.27
-8669.85
-8669.38
-8668.85
-8668.28
-8667.66
-8667
-8666.31
-8665.6
-8664.86
-8664.11
-8663.36
-8662.61
-8661.88
-8661.17
-8660.49
-8659.85
-8659.27
-8658.74
-8658.29
-8657.91
-8657.62
-8657.41
-8657.3
-8657.28
-8657.37
-8657.56
-8657.85
-8658.23
-8658.7
-8659.26
-8659.9
-8660.6
-8661.35
-8662.14
-8662.96
-8663.78
-8664.6
-8665.39
-8666.13
-8666.81
-8667.41
-8667.91
-8668.31
-8668.59
-8668.74
-8668.76
-8668.64
-8668.38
-8668
-8667.49
-8666.87
-8666.17
-8665.39
-8664.57
-8663.73
-8662.89
-8662.08
-8661.33
-8660.67
-8660.12
-8659.71
-8659.44
-8659.33
-8659.39
-8659.61
-8659.99
-8660.51
-8661.15
-8661.89
-8662.68
-8663.5
-8664.31
-8665.06
-8665.73
-8666.27
-8666.67
-8666.89
-8666.93
-8666.79
-8666.48
-8666
-8665.4
-8664.71
-8663.97
-8663.22
-8662.52
-8661.92
-8661.44
-8661.12
-8660.99
-8661.04
-8661.27
-8661.66
-8662.18
-8662.78
-8663.42
-8664.03
-8664.57
-8665
-8665.29
-8665.4
-8665.34
-8665.12
-8664.78
-8664.34
-8663.87
-8663.41
-8663.02
-8662.73
-8662.57
-8662.56
-8662.68
-8662.91
-8663.2
-8663.51
-8663.8
-8664.03
-8664.16
-8664.19
-8664.12
-8663.96
-8663.75
-8663.51
-8663.29
-8663.11
-8663
-8662.97
-8663.01
-8663.11
-8663.27
-8663.45
-8663.63
-8663.79
-8663.92
-8664
-8664.02
-8664
-8663.94
-8663.84
-8663.72
-8663.6
-8663.48
-8663.37
-8663.28
-8663.22
-8663.19
-8942.87
-8942.85
-8942.8
-8942.73
-8942.65
-8942.62
-8942.57
-8942.55
-8907.43
-8907.52
-8907.71
-8907.9
-8908.18
-8908.49
-8908.83
-8909.19
-8909.56
-8909.93
-8910.3
-8910.65
-8910.98
-8911.28
-8911.54
-8911.77
-8911.96
-8912.1
-8912.18
-8912.21
-8912.18
-8912.09
-8911.94
-8911.73
-8911.45
-8911.1
-8910.69
-8910.22
-8909.69
-8909.11
-8908.47
-8907.78
-8907.05
-8906.28
-8905.49
-8904.67
-8903.84
-8903.01
-8902.18
-8901.37
-8900.59
-8899.84
-8899.14
-8898.5
-8897.92
-8897.42
-8897.01
-8896.69
-8896.46
-8896.34
-8896.33
-8896.43
-8896.65
-8896.97
-8897.39
-8897.92
-8898.54
-8899.24
-8900.02
-8900.85
-8901.73
-8902.63
-8903.54
-8904.44
-8905.3
-8906.12
-8906.86
-8907.52
-8908.08
-8908.51
-8908.81
-8908.97
-8908.98
-8908.84
-8908.56
-8908.12
-8907.56
-8906.88
-8906.1
-8905.24
-8904.33
-8903.4
-8902.47
-8901.58
-8900.76
-8900.03
-8899.43
-8898.98
-8898.69
-8898.57
-8898.65
-8898.9
-8899.32
-8899.9
-8900.61
-8901.43
-8902.3
-8903.21
-8904.1
-8904.93
-8905.66
-8906.25
-8906.68
-8906.92
-8906.96
-8906.8
-8906.45
-8905.92
-8905.25
-8904.49
-8903.67
-8902.84
-8902.08
-8901.41
-8900.89
-8900.55
-8900.4
-8900.47
-8900.73
-8901.17
-8901.74
-8902.41
-8903.11
-8903.78
-8904.38
-8904.85
-8905.15
-8905.27
-8905.2
-8904.95
-8904.56
-8904.08
-8903.55
-8903.05
-8902.62
-8902.3
-8902.14
-8902.13
-8902.27
-8902.53
-8902.85
-8903.2
-8903.52
-8903.77
-8903.92
-8903.94
-8903.86
-8903.68
-8903.45
-8903.19
-8902.95
-8902.75
-8902.63
-8902.6
-8902.64
-8902.76
-8902.93
-8903.12
-8903.32
-8903.49
-8903.63
-8903.71
-8903.74
-8903.72
-8903.65
-8903.54
-8903.42
-8903.28
-8903.15
-8903.04
-8902.95
-8902.88
-8902.85
-9160.51
-9160.5
-9160.49
-9160.48
-9160.44
-9160.39
-9160.35
-9160.33
-9120.83
-9120.9
-9121.07
-9121.25
-9121.5
-9121.79
-9122.11
-9122.46
-9122.82
-9123.19
-9123.55
-9123.9
-9124.23
-9124.53
-9124.8
-9125.03
-9125.21
-9125.35
-9125.43
-9125.45
-9125.4
-9125.3
-9125.12
-9124.88
-9124.56
-9124.18
-9123.73
-9123.21
-9122.62
-9121.98
-9121.27
-9120.52
-9119.72
-9118.88
-9118.01
-9117.11
-9116.21
-9115.3
-9114.4
-9113.51
-9112.66
-9111.84
-9111.08
-9110.38
-9109.76
-9109.21
-9108.76
-9108.42
-9108.18
-9108.05
-9108.05
-9108.16
-9108.39
-9108.75
-9109.22
-9109.8
-9110.48
-9111.25
-9112.1
-9113.01
-9113.96
-9114.95
-9115.94
-9116.92
-9117.86
-9118.75
-9119.56
-9120.27
-9120.87
-9121.34
-9121.66
-9121.83
-9121.84
-9121.68
-9121.36
-9120.88
-9120.26
-9119.52
-9118.66
-9117.72
-9116.73
-9115.71
-9114.7
-9113.73
-9112.83
-9112.05
-9111.4
-9110.91
-9110.59
-9110.47
-9110.56
-9110.84
-9111.31
-9111.95
-9112.73
-9113.62
-9114.57
-9115.56
-9116.53
-9117.43
-9118.22
-9118.87
-9119.33
-9119.59
-9119.63
-9119.44
-9119.05
-9118.47
-9117.74
-9116.9
-9116.01
-9115.11
-9114.28
-9113.55
-9112.99
-9112.62
-9112.47
-9112.55
-9112.84
-9113.32
-9113.96
-9114.68
-9115.45
-9116.18
-9116.83
-9117.33
-9117.66
-9117.78
-9117.69
-9117.42
-9116.99
-9116.46
-9115.88
-9115.33
-9114.86
-9114.53
-9114.35
-9114.35
-9114.51
-9114.79
-9115.16
-9115.54
-9115.89
-9116.16
-9116.31
-9116.34
-9116.25
-9116.05
-9115.79
-9115.51
-9115.25
-9115.04
-9114.91
-9114.88
-9114.93
-9115.05
-9115.24
-9115.45
-9115.66
-9115.84
-9115.98
-9116.07
-9116.1
-9116.07
-9116
-9115.88
-9115.75
-9115.61
-9115.47
-9115.35
-9115.26
-9115.19
-9115.15
-9353.32
-9353.31
-9353.3
-9353.29
-9353.27
-9353.25
-9353.22
-9353.21
-9309.8
-9309.86
-9310.01
-9310.19
-9310.43
-9310.71
-9311.03
-9311.37
-9311.74
-9312.1
-9312.47
-9312.83
-9313.17
-9313.48
-9313.75
-9313.99
-9314.17
-9314.31
-9314.38
-9314.4
-9314.34
-9314.22
-9314.02
-9313.75
-9313.4
-9312.98
-9312.49
-9311.92
-9311.28
-9310.58
-9309.82
-9309
-9308.13
-9307.22
-9306.27
-9305.31
-9304.33
-9303.35
-9302.37
-9301.42
-9300.49
-9299.62
-9298.8
-9298.04
-9297.37
-9296.79
-9296.3
-9295.93
-9295.68
-9295.55
-9295.54
-9295.67
-9295.93
-9296.32
-9296.83
-9297.46
-9298.19
-9299.03
-9299.95
-9300.93
-9301.97
-9303.03
-9304.1
-9305.16
-9306.17
-9307.13
-9308
-9308.77
-9309.41
-9309.92
-9310.26
-9310.44
-9310.44
-9310.26
-9309.91
-9309.39
-9308.72
-9307.9
-9306.98
-9305.96
-9304.88
-9303.78
-9302.69
-9301.65
-9300.68
-9299.84
-9299.14
-9298.61
-9298.28
-9298.15
-9298.25
-9298.56
-9299.08
-9299.77
-9300.61
-9301.58
-9302.61
-9303.68
-9304.72
-9305.7
-9306.55
-9307.24
-9307.74
-9308.01
-9308.04
-9307.84
-9307.41
-9306.78
-9305.98
-9305.08
-9304.11
-9303.14
-9302.24
-9301.47
-9300.86
-9300.47
-9300.31
-9300.4
-9300.72
-9301.25
-9301.94
-9302.73
-9303.55
-9304.34
-9305.04
-9305.58
-9305.92
-9306.05
-9305.95
-9305.64
-9305.17
-9304.59
-9303.97
-9303.38
-9302.87
-9302.51
-9302.33
-9302.34
-9302.52
-9302.83
-9303.22
-9303.64
-9304.02
-9304.31
-9304.47
-9304.5
-9304.39
-9304.18
-9303.9
-9303.6
-9303.32
-9303.1
-9302.96
-9302.92
-9302.98
-9303.12
-9303.31
-9303.53
-9303.76
-9303.95
-9304.1
-9304.19
-9304.22
-9304.19
-9304.11
-9303.99
-9303.85
-9303.7
-9303.56
-9303.43
-9303.33
-9303.26
-9303.23
-9524.13
-9524.12
-9524.12
-9524.11
-9524.09
-9524.08
-9524.06
-9524.06
-9477.13
-9477.18
-9477.34
-9477.51
-9477.75
-9478.04