#           v             n
     0.523599   4.63209e-15
     0.648652   7.71566e-15
     0.790112   3.18244e-14
     0.953116   1.42409e-13
      1.13449   6.61335e-13
      1.34047   3.27915e-12
      1.56672   1.66205e-11
      1.82069   8.84935e-11
      2.09677   4.73949e-10
      2.40376   2.62024e-09
      2.73462   1.43088e-08
      3.09966   7.90458e-08
      3.49026   4.21828e-07
      3.91837   2.21965e-06
      4.37366   1.09474e-05
      4.86986   5.13303e-05
       5.3948   0.000215316
      5.96412   0.000807955
      6.56366     0.0024882
      7.21112    0.00604268
      7.89023    0.00983208
      8.62085    0.00958678
      9.38447    0.00817289
      10.2033    0.00482478
      11.0564             0
      11.9684             0
      12.9159             0
      13.9262             0
      14.9731             0
