#           v             n
     0.523599   0.000309514
     0.648652   8.75894e-05
     0.790112   0.000115125
     0.953116   0.000158435
      1.13449   0.000216423
      1.34047   0.000307456
      1.56672   0.000430611
      1.82069   0.000621738
      2.09677   0.000876912
      2.40376    0.00126126
      2.73462    0.00175112
      3.09966    0.00244645
      3.49026    0.00324949
      3.91837    0.00427209
      4.37366    0.00523617
      4.86986    0.00622162
       5.3948    0.00671684
      5.96412    0.00684281
      6.56366    0.00611332
      7.21112    0.00495842
      7.89023     0.0033229
      8.62085    0.00186205
      9.38447   0.000724049
      10.2033   0.000161152
      11.0564             0
      11.9684             0
      12.9159             0
      13.9262             0
      14.9731             0
