/*--------------------------------*- C++ -*----------------------------------*\
  =========                 |
  \\      /  F ield         | OpenFOAM: The Open Source CFD Toolbox
   \\    /   O peration     | Website:  https://openfoam.org
    \\  /    A nd           | Version:  12
     \\/     M anipulation  |
\*---------------------------------------------------------------------------*/
FoamFile
{
    format      ascii;
    class       surfaceScalarField;
    location    "11.52";
    object      phi;
}
// * * * * * * * * * * * * * * * * * * * * * * * * * * * * * * * * * * * * * //

dimensions      [1 0 -1 0 0 0 0];

internalField   nonuniform List<scalar> 
7429
(
-3.59755e-05
3.59757e-05
-7.20097e-05
3.60345e-05
-0.000108849
3.68394e-05
-0.000146752
3.79039e-05
-0.000185972
3.92201e-05
-0.000226769
4.07974e-05
-0.000269419
4.26507e-05
-0.000314201
4.47818e-05
-0.000361411
4.72103e-05
-0.000411363
4.99522e-05
-0.000464355
5.29922e-05
-0.000520717
5.63633e-05
-0.000580738
6.00205e-05
-0.00064475
6.40128e-05
-0.000713018
6.8268e-05
-0.000785854
7.28367e-05
-0.000863508
7.76544e-05
-0.000946245
8.27373e-05
-0.00103429
8.8046e-05
-0.00112787
9.35773e-05
-0.00122709
9.92267e-05
-0.00133205
0.000104952
-0.00144273
0.000110686
-0.00155904
0.00011631
-0.00168081
0.000121767
-0.00180771
0.000126901
-0.00193943
0.000131721
-0.00207551
0.000136083
-0.00221549
0.000139973
-0.00235873
0.000143244
-0.00250462
0.000145885
-0.00265243
0.000147812
-0.00280132
0.000148897
-0.00295039
0.000149062
-0.00309859
0.000148207
-0.0032448
0.000146208
-0.00338773
0.000142928
-0.00352606
0.000138332
-0.00365833
0.000132272
-0.00378307
0.000124733
-0.00389865
0.000115586
-0.00400349
0.000104836
-0.00409592
9.24296e-05
-0.00417435
7.84334e-05
-0.00423714
6.27947e-05
-0.00428285
4.57006e-05
-0.00431036
2.75104e-05
-0.00431814
7.78386e-06
-0.00429672
-2.14177e-05
-0.00424874
-4.79802e-05
-0.0041739
-7.48408e-05
-0.00407205
-0.000101852
-0.0039429
-0.000129153
-0.00378673
-0.000156164
-0.00360373
-0.000183002
-0.00339477
-0.000208966
-0.0031607
-0.000234068
-0.00290276
-0.000257936
-0.00262235
-0.000280413
-0.00232103
-0.000301317
-0.00200058
-0.000320453
-0.00166338
-0.000337195
-0.00131208
-0.000351303
-0.000949931
-0.000362149
-0.000580263
-0.000369669
-0.000207031
-0.000373232
0.000165727
-0.000372759
0.000533424
-0.000367697
0.000891451
-0.000358027
0.00123498
-0.000343526
0.00155937
-0.000324392
0.00185964
-0.00030027
0.00213102
-0.000271378
0.00236914
-0.000238121
0.00256961
-0.000200468
0.00272863
-0.000159028
0.00284279
-0.000114155
0.00290947
-6.66808e-05
0.00292727
-1.77997e-05
0.00288665
4.06151e-05
0.00279029
9.63605e-05
0.00264075
0.000149542
0.00243951
0.000201245
0.00218962
0.000249889
0.00189418
0.000295441
0.00155757
0.000336607
0.00118491
0.000372664
0.000782352
0.000402554
0.000356993
0.000425359
-8.31363e-05
0.000440129
-0.000529327
0.000446191
-0.000972169
0.000442841
-0.00140196
0.000429787
-0.00180907
0.000407114
-0.00218358
0.000374505
-0.00251617
0.000332599
-0.00279826
0.000282087
-0.0030219
0.000223641
-0.00318074
0.00015884
-0.00326966
8.89162e-05
-0.00328572
1.6058e-05
-0.00321653
-6.91891e-05
-0.00307006
-0.000146464
-0.00285044
-0.000219619
-0.0025628
-0.000287642
-0.00221355
-0.000349252
-0.00181145
-0.0004021
-0.00136713
-0.000444319
-0.000893356
-0.000473776
-0.000404108
-0.000489248
8.57588e-05
-0.000489867
0.000560236
-0.000474477
0.00100397
-0.00044373
0.00140179
-0.000397822
0.0017399
-0.000338108
0.00200657
-0.000266672
0.00219225
-0.000185684
0.00229036
-9.81099e-05
0.00229689
-6.52389e-06
0.00220484
9.20412e-05
0.00202545
0.000179392
0.00176799
0.000257463
0.00144344
0.000324554
0.00106659
0.000376845
0.000655201
0.00041139
0.000229078
0.000426122
-0.000190735
0.000419813
-0.000582333
0.000391598
-0.000925844
0.000343511
-0.00120257
0.000276725
-0.00139762
0.000195047
-0.0015002
0.000102582
-0.00150248
2.2848e-06
-0.00139898
-0.000103507
-0.00120143
-0.000197547
-0.00092247
-0.000278958
-0.00057752
-0.00034495
-0.000187942
-0.000389577
0.000221244
-0.000409187
0.000623309
-0.000402065
0.00099131
-0.000368001
0.00129995
-0.000308639
0.00152746
-0.000227509
0.00165782
-0.000130362
0.00168234
-2.45165e-05
0.00158842
9.39213e-05
0.00139065
0.000197764
0.00110415
0.0002865
0.000748958
0.000355192
0.0003527
0.000396259
-5.48895e-05
0.000407589
-0.000440675
0.000385785
-0.000774398
0.000333723
-0.0010297
0.000255299
-0.0011875
0.000157803
-0.00123737
4.98712e-05
-0.0011717
-6.56734e-05
-0.00100522
-0.000166481
-0.00075664
-0.000248578
-0.000451495
-0.000305145
-0.00012096
-0.000330535
0.000202102
-0.000323062
0.000485691
-0.000283589
0.000703852
-0.000218161
0.000838655
-0.000134803
0.000882526
-4.38709e-05
0.000834538
4.79877e-05
0.000711012
0.000123526
0.000533114
0.000177899
0.000327021
0.000206093
0.000120909
0.000206112
-5.95844e-05
0.000180494
-0.000194788
0.000135204
-0.000273917
7.91289e-05
-0.000295853
2.19361e-05
-0.000267635
-2.82188e-05
-0.00020664
-6.0994e-05
-0.000133049
-7.35913e-05
-6.81682e-05
-6.48809e-05
-2.9714e-05
-3.84542e-05
-2.85604e-05
-1.15365e-06
-7.01032e-05
4.15429e-05
-0.000147146
7.70429e-05
-0.000245845
9.86986e-05
-0.000345736
9.98909e-05
-0.000426006
8.02704e-05
-0.000468101
4.20952e-05
-0.000458251
-9.8504e-06
-0.000389907
-6.83442e-05
-0.000268458
-0.000121449
-0.00010659
-0.000161868
7.61445e-05
-0.000182735
0.000254486
-0.000178341
0.000403417
-0.000148932
0.000500682
-9.72649e-05
0.000530661
-2.99783e-05
0.000486387
4.42732e-05
0.000372077
0.00011431
0.000202088
0.000169989
0.000202088
2.59932e-05
9.98298e-06
5.69478e-05
5.08039e-06
8.75707e-05
6.21705e-06
0.000117396
8.07889e-06
0.000145987
1.06303e-05
0.000172937
1.38479e-05
0.000197709
1.78792e-05
0.000219786
2.27049e-05
0.000238502
2.84947e-05
0.000253247
3.52084e-05
0.000263291
4.29488e-05
0.000268014
5.16405e-05
0.000266747
6.12875e-05
0.000258868
7.18929e-05
0.000243785
8.3351e-05
0.000220883
9.57394e-05
0.000189614
0.000108924
0.000149427
0.000122925
9.98161e-05
0.000137657
4.03588e-05
0.000153035
-2.9334e-05
0.00016892
-0.000109597
0.000185216
-0.000200759
0.000201849
-0.000302958
0.000218509
-0.000416374
0.000235184
-0.000540924
0.000251452
-0.000676526
0.000267323
-0.000822729
0.000282286
-0.0009791
0.000296344
-0.00114489
0.000309035
-0.0013191
0.000320092
-0.00150047
0.000329185
-0.00168769
0.000336112
-0.00187903
0.000340406
-0.00207284
0.000342015
-0.0022669
0.000340267
-0.00245922
0.000335255
-0.00264776
0.000326865
-0.0028318
0.000316321
-0.00301026
0.000303185
-0.00318091
0.00028624
-0.00334136
0.000265286
-0.00348933
0.000240397
-0.00362202
0.000211128
-0.00373812
0.000178896
-0.00383461
0.000142187
-0.00390755
0.00010045
-0.00395545
5.56897e-05
-0.00398156
4.68846e-06
-0.00397881
-5.07279e-05
-0.00394637
-0.000107288
-0.00388297
-0.000165253
-0.00378812
-0.000223994
-0.0036614
-0.000282888
-0.00350306
-0.000341339
-0.00331339
-0.000398645
-0.00309339
-0.000454067
-0.00284382
-0.000507504
-0.00256626
-0.000557967
-0.00226228
-0.000605297
-0.00193475
-0.00064799
-0.00158636
-0.000685583
-0.00122043
-0.000717228
-0.000840745
-0.000741839
-0.000451289
-0.000759125
-5.65547e-05
-0.000767966
0.000338682
-0.000767996
0.000729507
-0.000758521
0.00111072
-0.000739236
0.00147683
-0.000709645
0.0018227
-0.000670256
0.00214269
-0.000620261
0.00243157
-0.000560261
0.0026842
-0.000490752
0.00289607
-0.000412333
0.00306263
-0.000325593
0.00318073
-0.000232245
0.00324719
-0.000133141
0.00325812
-2.87357e-05
0.00320764
9.10947e-05
0.00309867
0.000205329
0.00293248
0.000315734
0.00271087
0.000422856
0.00243653
0.000524227
0.00211258
0.000619389
0.00174359
0.000705602
0.00133523
0.000781025
0.000894871
0.00084291
0.000430274
0.000889956
-4.95524e-05
0.000919956
-0.000535172
0.00093181
-0.00101626
0.000923929
-0.00148231
0.000895836
-0.00192281
0.000847619
-0.00232687
0.000778563
-0.00268445
0.000690177
-0.00298636
0.000583994
-0.0032239
0.000461188
-0.00339005
0.000324981
-0.00347916
0.000178028
-0.00348748
2.43818e-05
-0.00340678
-0.000149891
-0.00324384
-0.0003094
-0.00300196
-0.000461504
-0.00268608
-0.000603526
-0.00230379
-0.000731538
-0.00186478
-0.000841112
-0.00138135
-0.000927746
-0.000867239
-0.000987887
-0.000338082
-0.00101841
0.000189546
-0.0010175
0.000698376
-0.000983307
0.00117213
-0.000917483
0.00159389
-0.000819586
0.00194944
-0.000693653
0.00222553
-0.00054276
0.0024127
-0.000372857
0.00250387
-0.000189285
0.0024899
7.449e-06
0.00237612
0.000205826
0.0021685
0.000387012
0.00187585
0.000550108
0.00151107
0.000689332
0.00109072
0.000797202
0.000634959
0.000867148
0.000165478
0.000895604
-0.000294326
0.000879616
-0.000720929
0.000818201
-0.00109213
0.000714712
-0.00138874
0.000573336
-0.00159434
0.00040065
-0.00169781
0.000206047
-0.00168861
-6.91003e-06
-0.00156829
-0.000223827
-0.00134666
-0.000419178
-0.00103538
-0.000590244
-0.000653792
-0.000726535
-0.000225824
-0.000817545
0.000223206
-0.000858216
0.000662093
-0.000840952
0.00106123
-0.000767136
0.00139387
-0.000641286
0.00163677
-0.000470403
0.00177171
-0.000265302
0.00178995
-4.27601e-05
0.00168338
0.000200493
0.00146522
0.000415923
0.00115113
0.000600591
0.000764739
0.000741585
0.000335184
0.000825814
-0.00010266
0.000845433
-0.000514329
0.000797454
-0.000866756
0.00068615
-0.00113211
0.000520651
-0.00129007
0.00031577
-0.00133039
9.01825e-05
-0.00124816
-0.000147903
-0.00105886
-0.000355775
-0.00078289
-0.000524548
-0.000449194
-0.000638841
-9.21104e-05
-0.000687619
0.00025159
-0.000666762
0.000548467
-0.000580466
0.000771367
-0.000441061
0.000901656
-0.000265092
0.000932194
-7.44084e-05
0.000865905
0.000114276
0.000720082
0.000269349
0.000518945
0.000379036
0.000292119
0.000432918
7.04665e-05
0.000427765
-0.000117524
0.000368485
-0.00025217
0.00026985
-0.000322679
0.000149637
-0.000329459
2.87163e-05
-0.000282632
-7.50455e-05
-0.000201681
-0.000141945
-0.000109609
-0.000165664
-3.01708e-05
-0.000144319
1.71101e-05
-8.57351e-05
2.1059e-05
-5.10257e-06
-2.44462e-05
8.70481e-05
-0.000106657
0.000159254
-0.00021587
0.000207912
-0.000326659
0.00021068
-0.000417007
0.000170618
-0.000466984
9.20728e-05
-0.000462503
-1.43315e-05
-0.000397027
-0.00013382
-0.000275911
-0.000242565
-0.000112589
-0.00032519
7.22781e-05
-0.000367602
0.000252877
-0.000358941
0.000403612
-0.000299666
0.00050202
-0.000195673
0.000532353
-6.03116e-05
0.000488034
8.85926e-05
0.000373267
0.000229077
0.000202745
0.000340511
0.000404834
-1.43156e-05
2.42992e-05
-3.10785e-05
2.18438e-05
-4.87291e-05
2.38683e-05
-6.76539e-05
2.70043e-05
-8.84133e-05
3.13903e-05
-0.000111552
3.69874e-05
-0.000137793
4.41203e-05
-0.000167588
5.25003e-05
-0.000201628
6.2536e-05
-0.000240109
7.36895e-05
-0.000283459
8.63001e-05
-0.000331994
0.000100175
-0.000386127
0.000115421
-0.0004459
0.000131667
-0.000511586
0.000149038
-0.00058317
0.000167324
-0.000660853
0.000186608
-0.00074468
0.000206752
-0.000834857
0.000227835
-0.000931551
0.000249729
-0.00103489
0.000272264
-0.00114496
0.000295281
-0.00126176
0.000318652
-0.00138522
0.000341965
-0.00151554
0.000365511
-0.00165239
0.000388303
-0.00179601
0.000410941
-0.0019463
0.000432574
-0.00210395
0.000454
-0.00226893
0.000474008
-0.00244174
0.000492902
-0.00262181
0.000509263
-0.00280872
0.000523014
-0.00300152
0.000533207
-0.00319911
0.000539607
-0.00340016
0.000541319
-0.00360297
0.000538066
-0.00380537
0.000529266
-0.0040036
0.000514554
-0.00419411
0.000493692
-0.00437416
0.000466284
-0.00454124
0.000432368
-0.00469255
0.000391705
-0.00482556
0.000344143
-0.00493668
0.000290016
-0.00502449
0.000229996
-0.00508854
0.000164497
-0.00512547
9.26247e-05
-0.00512874
7.95709e-06
-0.00508957
-8.98999e-05
-0.005013
-0.000183853
-0.00490015
-0.000278109
-0.00475128
-0.000372859
-0.00456672
-0.000467449
-0.00434701
-0.000561049
-0.00409231
-0.000653348
-0.00380354
-0.000742834
-0.00348178
-0.000829268
-0.00312861
-0.00091113
-0.00274584
-0.000988066
-0.00233646
-0.00105737
-0.00190304
-0.001119
-0.00145032
-0.00116995
-0.000982254
-0.00120991
-0.000504006
-0.00123737
-2.08133e-05
-0.00125116
0.000461726
-0.00125054
0.000937443
-0.00123424
0.00140006
-0.00120185
0.00184326
-0.00115285
0.00226068
-0.00108767
0.00264585
-0.00100543
0.00299262
-0.000907036
0.00329521
-0.000793343
0.00354761
-0.000664728
0.0037444
-0.000522382
0.00388157
-0.000369415
0.00395565
-0.000207227
0.00396547
-3.85547e-05
0.00389976
0.000156809
0.00376599
0.000339096
0.00356387
0.000517856
0.00329585
0.000690873
0.00296388
0.000856203
0.0025728
0.00101046
0.00212795
0.00115046
0.0016375
0.00127147
0.00110925
0.00137115
0.000553018
0.00144619
-2.05173e-05
0.00149349
-0.000599741
0.00151103
-0.0011721
0.00149628
-0.0017252
0.00144894
-0.00224641
0.00136882
-0.00272287
0.00125503
-0.00314248
0.00110979
-0.00349407
0.000935576
-0.00376791
0.000735029
-0.00395557
0.000512645
-0.00404995
0.000272404
-0.00404209
1.65293e-05
-0.00393795
-0.000254033
-0.00373652
-0.000510831
-0.00344113
-0.000756899
-0.00305794
-0.000986709
-0.00259669
-0.00119279
-0.00206983
-0.00136797
-0.00149196
-0.00150561
-0.000880412
-0.00159943
-0.000253389
-0.00164543
0.000368809
-0.00163969
0.000965557
-0.00158005
0.00151744
-0.00146937
0.00200413
-0.00130628
0.00240961
-0.00109913
0.00271795
-0.000851095
0.00291808
-0.000572987
0.00300234
-0.000273545
0.00296082
4.89611e-05
0.00280334
0.000363312
0.00253448
0.000655869
0.00216518
0.000919412
0.00171211
0.0011424
0.0011953
0.00131401
0.000639391
0.00142306
7.09561e-05
0.00146404
-0.000480709
0.00143128
-0.000989672
0.00132716
-0.00142902
0.00115406
-0.00177509
0.000919399
-0.00200857
0.000634131
-0.00211696
0.000314437
-0.00209049
-3.33803e-05
-0.00193388
-0.000380432
-0.00165669
-0.000696369
-0.00127279
-0.00097415
-0.000806886
-0.00119243
-0.000287112
-0.00133732
0.000252698
-0.00139803
0.00077674
-0.00136499
0.00125093
-0.00124132
0.00164193
-0.00103229
0.00192204
-0.000750507
0.00207338
-0.00041665
0.00208181
-5.1188e-05
0.00194588
0.000336423
0.00167864
0.000683164
0.00129873
0.000980506
0.000836486
0.00120382
0.000327519
0.00133478
-0.000188003
0.00136096
-0.000667303
0.00127675
-0.00107178
0.00109062
-0.00136943
0.000818305
-0.00153702
0.000483359
-0.00156386
0.000117024
-0.00144881
-0.000262958
-0.00120916
-0.000595419
-0.000871202
-0.00086251
-0.000470301
-0.00103974
-4.74992e-05
-0.00111042
0.000350316
-0.00106458
0.000687175
-0.000917325
0.00093093
-0.000684816
0.00106138
-0.000395543
0.00107301
-8.60388e-05
0.000971617
0.000215671
0.000779839
0.000461127
0.000528589
0.000630286
0.000254399
0.000707109
-4.87185e-06
0.000687036
-0.000217196
0.000580809
-0.000359052
0.000411706
-0.00042029
0.000210875
-0.000402588
1.10136e-05
-0.000323161
-0.000154472
-0.000205428
-0.000259677
-7.8714e-05
-0.000292379
2.74916e-05
-0.000250524
9.0662e-05
-0.000148905
9.76542e-05
-1.20947e-05
4.46872e-05
0.000140015
-5.52756e-05
0.000259216
-0.000187826
0.000340463
-0.00032267
0.000345524
-0.000434097
0.000282045
-0.000499022
0.000156998
-0.000501719
-1.16346e-05
-0.000435246
-0.000200293
-0.000305827
-0.000371983
-0.000129081
-0.000501936
7.16808e-05
-0.000568364
0.0002678
-0.00055506
0.000431145
-0.000463011
0.000537567
-0.000302095
0.000570284
-9.30279e-05
0.000522798
0.000136078
0.000399693
0.000352182
0.000216966
0.000523238
0.0006218
7.58411e-05
-5.15414e-05
0.000160243
-6.25577e-05
0.000248082
-6.39701e-05
0.000340369
-6.52822e-05
0.000437371
-6.56111e-05
0.000540032
-6.56732e-05
0.000646961
-6.2808e-05
0.000759053
-5.95908e-05
0.000872526
-5.0937e-05
0.000986598
-4.03822e-05
0.00109774
-2.48401e-05
0.00119967
-1.7523e-06
0.00129242
2.26735e-05
0.00137601
4.80726e-05
0.00144927
7.57794e-05
0.00151119
0.000105408
0.00156032
0.00013747
0.00159499
0.000172086
0.00161362
0.00020921
0.00161483
0.000248518
0.0015962
0.000290892
0.00155598
0.000335505
0.00149142
0.000383208
0.00140152
0.000431863
0.00128372
0.000483313
0.00113853
0.000533494
0.000962976
0.000586496
0.000760461
0.000635089
0.00052778
0.000686682
0.000269417
0.00073237
-1.44925e-05
0.000776812
-0.000320205
0.000814975
-0.000644921
0.000847731
-0.000983819
0.000872105
-0.00133164
0.000887432
-0.00168461
0.000894285
-0.00204319
0.00089665
-0.00240443
0.000890506
-0.00276492
0.000875039
-0.0031194
0.000848171
-0.00346269
0.000809578
-0.00378828
0.000757962
-0.00409262
0.000696036
-0.00437198
0.000623508
-0.00462137
0.000539401
-0.00483243
0.000441055
-0.00500481
0.000336883
-0.0051327
0.000220516
-0.00522142
9.66701e-05
-0.00526823
-4.30849e-05
-0.00526764
-0.000184441
-0.00521733
-0.000328421
-0.0051163
-0.00047389
-0.00496403
-0.000619718
-0.00476057
-0.000764506
-0.00450632
-0.000907606
-0.0042025
-0.00104665
-0.0038508
-0.00118097
-0.00345474
-0.00130719
-0.00301741
-0.00142539
-0.00254329
-0.0015315
-0.00203774
-0.00162454
-0.00150534
-0.00170235
-0.000952385
-0.00176286
-0.000384822
-0.00180493
0.000190328
-0.00182631
0.00076604
-0.00182625
0.00133498
-0.00180318
0.00188899
-0.00175587
0.00241992
-0.00168377
0.00292012
-0.00158787
0.00338098
-0.00146629
0.00379463
-0.00132069
0.00415412
-0.00115284
0.00445305
-0.000963655
0.00468456
-0.000753896
0.00484212
-0.000526974
0.00492095
-0.000286051
0.00491722
-3.48309e-05
0.00482984
0.00024419
0.00465937
0.000509573
0.0044061
0.000771126
0.00407178
0.00102518
0.00366027
0.00126771
0.0031773
0.00149344
0.00263007
0.00169769
0.00202732
0.00187422
0.00137996
0.00201852
0.000700029
0.00212612
5.77918e-07
0.00219294
-0.000704207
0.00221582
-0.00139887
0.00219095
-0.00206834
0.00211841
-0.00269715
0.00199763
-0.00327006
0.00182794
-0.00377181
0.00161154
-0.00418899
0.00135276
-0.00450949
0.00105553
-0.00472421
0.000727363
-0.00482848
0.000376672
-0.00480632
-5.62576e-06
-0.00466757
-0.000392779
-0.00441097
-0.000767434
-0.00404095
-0.00112692
-0.00356577
-0.00146189
-0.00299754
-0.00176102
-0.00235169
-0.00201382
-0.00164659
-0.00221071
-0.000903093
-0.00234293
-0.000145379
-0.00240314
0.000603714
-0.00238879
0.0013184
-0.00229474
0.00197479
-0.00212576
0.00254919
-0.00188068
0.00302089
-0.00157083
0.00337248
-0.00120269
0.00359001
-0.000790516
0.00366503
-0.000348568
0.00358934
0.000124652
0.00337231
0.000580343
0.00302121
0.00100697
0.00254985
0.00139077
0.00197856
0.00171369
0.00133497
0.00195759
0.000646877
0.00211116
-5.10026e-05
0.00216192
-0.000726215
0.00210649
-0.00134266
0.00194361
-0.00186967
0.00168107
-0.00227996
0.00132968
-0.0025515
0.000905675
-0.00266825
0.00043119
-0.00261807
-8.35621e-05
-0.00241172
-0.000586784
-0.00205728
-0.00105081
-0.0015756
-0.00145583
-0.000996218
-0.00177181
-0.00035539
-0.00197815
0.000305625
-0.00205904
0.000943983
-0.00200335
0.00151566
-0.001813
0.00198359
-0.00150022
0.00231529
-0.00108221
0.00248321
-0.000584575
0.00247996
-4.79311e-05
0.00230275
0.00051363
0.00196731
0.0010186
0.00149816
0.00144966
0.000932338
0.00176965
0.000315247
0.00195187
-0.00030274
0.00197894
-0.000872205
0.00184622
-0.00134631
0.00156473
-0.00168621
0.00115821
-0.00186632
0.000663476
-0.00187505
0.000125751
-0.00171517
-0.000422835
-0.00140784
-0.000902757
-0.000986577
-0.00128377
-0.000496545
-0.00152977
1.05838e-05
-0.00161755
0.0004837
-0.00153769
0.000874101
-0.00130773
0.00114625
-0.000956963
0.00127764
-0.000526931
0.00126264
-7.10395e-05
0.00111494
0.00036337
0.000862404
0.000713661
0.000544102
0.000948587
0.000207493
0.00104372
-0.000102487
0.000997015
-0.000346142
0.000824464
-0.000497678
0.000563242
-0.000546186
0.000259384
-0.000498019
-3.71536e-05
-0.000375933
-0.000276558
-0.000210601
-0.000425009
-3.91329e-05
-0.000463847
0.000100239
-0.000389896
0.000182382
-0.000231049
0.000191318
-2.10306e-05
0.000125972
0.000205361
-1.40567e-06
0.000386594
-0.000161699
0.000500756
-0.00032778
0.000511604
-0.000466206
0.000420472
-0.000549339
0.00024013
-0.000559679
-1.29518e-06
-0.00048976
-0.000270212
-0.000347121
-0.000514623
-0.000150551
-0.000698505
7.2879e-05
-0.000791794
0.000290813
-0.000772994
0.000471807
-0.000644005
0.000589288
-0.000419577
0.000625151
-0.00012889
0.000572675
0.000188554
0.000437602
0.000487254
0.000237519
0.000723321
0.000859319
0.000106386
-0.000157926
0.000221482
-0.000177654
0.000336395
-0.000178882
0.000450152
-0.000179038
0.000558518
-0.000173977
0.000659864
-0.000167019
0.000742746
-0.000145689
0.000804043
-0.000120887
0.000828212
-7.51055e-05
0.000836446
-4.86161e-05
0.000833801
-2.2194e-05
0.000806107
2.59422e-05
0.000752384
7.6397e-05
0.000678301
0.000122155
0.000588236
0.000165845
0.000486881
0.000206764
0.000378473
0.000245879
0.000266493
0.000284066
0.00015368
0.000322024
4.0184e-05
0.000362015
-7.53467e-05
0.000406423
-0.000192195
0.000452353
-0.000314098
0.000505112
-0.000441412
0.000559177
-0.000577391
0.000619293
-0.000716684
0.000672786
-0.000861141
0.000730954
-0.00101147
0.000785418
-0.0011885
0.000863716
-0.00139499
0.000938852
-0.00163582
0.00101765
-0.0019094
0.00108855
-0.00221448
0.00115281
-0.00254806
0.00120569
-0.00290664
0.00124601
-0.00328443
0.00127207
-0.00367084
0.00128306
-0.00405864
0.00127831
-0.00444052
0.00125692
-0.00481133
0.00121898
-0.0051655
0.00116375
-0.00549903
0.00109149
-0.00580557
0.00100258
-0.00607828
0.000896215
-0.00631471
0.000775828
-0.00651288
0.000639227
-0.00666704
0.000491048
-0.00677228
0.000325756
-0.00683405
0.000158443
-0.00682766
-4.94803e-05
-0.00676112
-0.000250981
-0.00663904
-0.000450503
-0.00646113
-0.000651802
-0.00622685
-0.000853994
-0.00593637
-0.00105499
-0.00558984
-0.00125413
-0.00518839
-0.00144811
-0.00473384
-0.00163552
-0.00422916
-0.00181187
-0.00367783
-0.00197672
-0.00308553
-0.0021238
-0.00245685
-0.00225322
-0.00179802
-0.00236118
-0.00111638
-0.00244451
-0.000419177
-0.00250214
0.00028496
-0.00253045
0.000988265
-0.00252955
0.00168057
-0.00249549
0.00235286
-0.00242815
0.00299563
-0.00232654
0.00359915
-0.0021914
0.00415412
-0.00202126
0.00465201
-0.00181857
0.00508201
-0.00158284
0.00543788
-0.00131953
0.00570957
-0.00102559
0.00589325
-0.000710649
0.00598535
-0.000378155
0.00596876
-1.82441e-05
0.00585811
0.000354839
0.00564642
0.000721268
0.00533483
0.00108272
0.00492594
0.00143407
0.0044242
0.00176945
0.00383642
0.00208122
0.00317224
0.00236187
0.00244298
0.00260349
0.00166121
0.00280028
0.000841916
0.00294542
5.64602e-07
0.00303429
-0.000845312
0.0030617
-0.00167704
0.00302267
-0.00247582
0.00291719
-0.00322426
0.00274608
-0.00390311
0.00250679
-0.00449579
0.00220421
-0.00498623
0.0018432
-0.00536025
0.00142955
-0.00560626
0.000973377
-0.00571161
0.000482022
-0.00567231
-4.49288e-05
-0.00549199
-0.0005731
-0.00517142
-0.001088
-0.0047151
-0.00158324
-0.00413431
-0.00204268
-0.00344392
-0.00245141
-0.00266241
-0.00279532
-0.00181299
-0.00306014
-0.000921371
-0.00323455
-1.46908e-05
-0.00330982
0.000877078
-0.00328055
0.00172385
-0.00314151
0.00249718
-0.00289909
0.00316852
-0.00255202
0.00371348
-0.00211578
0.0041118
-0.00160101
0.0043464
-0.00102511
0.004408
-0.000410175
0.00429233
0.000240324
0.00400816
0.000864512
0.00356239
0.00145274
0.00297434
0.00197882
0.00227101
0.00241702
0.00148261
0.00274599
0.000645413
0.00294835
-0.000198537
0.00300587
-0.00100974
0.00291769
-0.00174814
0.00268201
-0.00237423
0.00230716
-0.00285394
0.00180939
-0.00316163
0.00121337
-0.00328252
0.000552081
-0.00320545
-0.000160628
-0.00293933
-0.000852907
-0.00249574
-0.0014944
-0.00190357
-0.002048
-0.00119579
-0.00247959
-0.000417852
-0.00275609
0.000379958
-0.00285685
0.00114461
-0.002768
0.00182764
-0.00249603
0.0023792
-0.00205177
0.0027621
-0.00146511
0.00295383
-0.000776308
0.00292728
-2.13831e-05
0.00270276
0.000738154
0.00228916
0.0014322
0.00171779
0.00202103
0.00103533
0.00245211
0.000296411
0.00269079
-0.000437925
0.00271328
-0.00110806
0.00251635
-0.0016585
0.00211516
-0.00204495
0.00154466
-0.00223613
0.000854651
-0.00222195
0.000111577
-0.00200916
-0.00063563
-0.0016238
-0.00128812
-0.00110751
-0.00180006
-0.000516047
-0.00212123
8.75912e-05
-0.00222119
0.000642164
-0.00209227
0.00109152
-0.00175708
0.00139277
-0.00125822
0.00152205
-0.000656211
0.00147436
-2.33453e-05
0.00127232
0.000565404
0.00094913
0.00103685
0.000555019
0.0013427
0.00014701
0.00145173
-0.000217478
0.0013615
-0.000494737
0.00110172
-0.000654592
0.000723097
-0.000687051
0.000291844
-0.000603424
-0.00012078
-0.000431998
-0.000447984
-0.000213662
-0.000643346
5.87654e-06
-0.000683385
0.000183166
-0.000567186
0.000285353
-0.000333236
0.000294835
-3.0513e-05
0.000214485
0.000285711
5.97728e-05
0.000541306
-0.000136468
0.000696997
-0.000337983
0.000713118
-0.000505845
0.000588334
-0.000608229
0.000342515
-0.000625693
1.61685e-05
-0.000550491
-0.000345413
-0.000392459
-0.000672655
-0.000173545
-0.000917419
7.50253e-05
-0.00104036
0.000316747
-0.00101472
0.000516672
-0.00084393
0.000645722
-0.000548627
0.00068459
-0.000167758
0.000626657
0.000246487
0.000478388
0.000635522
0.000259393
0.000942317
0.00111871
-4.13229e-05
-0.000116603
-5.85066e-05
-0.00016047
-4.51806e-05
-0.000192208
1.64332e-05
-0.000240652
0.000135706
-0.00029325
0.000337796
-0.000369109
0.000588983
-0.000396875
0.000940015
-0.000471919
0.00123518
-0.000370267
0.00149802
-0.000311459
0.00169751
-0.000221685
0.00186583
-0.000142371
0.00200955
-6.73305e-05
0.00215056
-1.88472e-05
0.00229408
2.23239e-05
0.00245611
4.47312e-05
0.00263218
6.9812e-05
0.00281892
9.73254e-05
0.00300981
0.000131137
0.00319843
0.000173395
0.00337088
0.000233968
0.00351148
0.000311756
0.00360153
0.00041506
0.00364099
0.000519715
0.00361096
0.000649325
0.00352953
0.00075422
0.00334784
0.000912643
0.00314291
0.000990353
0.00280885
0.00119777
0.00242298
0.00132473
0.00195469
0.00148594
0.00142944
0.00161379
0.000847546
0.00173471
0.000220809
0.00183243
-0.000440329
0.00190715
-0.00112358
0.00195533
-0.00181586
0.00197534
-0.00250479
0.00196723
-0.00317939
0.00193152
-0.00382782
0.00186741
-0.00444155
0.00177747
-0.00501312
0.00166306
-0.00553974
0.0015292
-0.00600988
0.00136636
-0.00642103
0.00118698
-0.00676849
0.000986687
-0.00704879
0.000771343
-0.00725818
0.000535152
-0.007389
0.000289265
-0.00746151
2.30243e-05
-0.00746394
-0.000248553
-0.00738975
-0.000524693
-0.00723785
-0.000803698
-0.0070096
-0.00108224
-0.00670431
-0.00136028
-0.00632534
-0.0016331
-0.00587556
-0.0018979
-0.00535886
-0.00215221
-0.00477959
-0.00239113
-0.00414417
-0.00261215
-0.00345728
-0.00281068
-0.00272606
-0.00298445
-0.00195881
-0.00312843
-0.00116369
-0.00323963
-0.000350359
-0.00331547
0.000472096
-0.0033529
0.00129344
-0.0033509
0.0021028
-0.00330484
0.00288796
-0.00321331
0.00363784
-0.00307642
0.00434168
-0.00289524
0.00498871
-0.00266829
0.00556601
-0.00239587
0.00606356
-0.00208039
0.00647306
-0.00172902
0.00678403
-0.00133656
0.00699291
-0.000919529
0.00708394
-0.000469181
0.00705896
6.73856e-06
0.00691969
0.000494103
0.00666243
0.000978528
0.00628708
0.00145807
0.00579708
0.00192407
0.00519962
0.00236691
0.00450275
0.00277809
0.00371665
0.00314797
0.0028556
0.00346454
0.00193407
0.00372181
0.000970304
0.00390918
-1.73063e-05
0.0040219
-0.00100884
0.00405323
-0.00198172
0.00399556
-0.00291412
0.00384959
-0.00378413
0.00361609
-0.00457191
0.00329457
-0.00525621
0.00288851
-0.00581862
0.00240561
-0.00624109
0.00185201
-0.0065099
0.00124219
-0.00661743
0.000589549
-0.00655979
-0.000102566
-0.00633621
-0.000796678
-0.00594625
-0.00147796
-0.00539841
-0.00213109
-0.0047059
-0.00273519
-0.00388725
-0.00327007
-0.00296584
-0.00371674
-0.0019678
-0.00405818
-0.000923411
-0.00427893
0.000135259
-0.00436849
0.00117303
-0.00431833
0.00215491
-0.00412339
0.00304573
-0.00378991
0.00381496
-0.00332125
0.00443366
-0.00273449
0.00487663
-0.00204399
0.00512554
-0.00127403
0.00516888
-0.000453514
0.00501061
0.000398593
0.00465073
0.0012244
0.00410515
0.00199833
0.00339645
0.00268752
0.00255375
0.00325972
0.0016154
0.00368434
0.000627364
0.00393639
-0.000368544
0.00400178
-0.00131885
0.003868
-0.00217654
0.0035397
-0.00289862
0.00302924
-0.00344858
0.00235934
-0.00379428
0.00155908
-0.00391384
0.000671637
-0.00380562
-0.00026885
-0.00347561
-0.00118291
-0.00293794
-0.00203208
-0.00222669
-0.00275925
-0.00138548
-0.0033208
-0.000465919
-0.00367564
0.000470673
-0.00379344
0.00136619
-0.00366352
0.00215705
-0.0032869
0.00279329
-0.00268801
0.00323022
-0.00190204
0.0034328
-0.000978885
0.00338975
2.16664e-05
0.00311097
0.00101693
0.00261158
0.0019316
0.00193314
0.00269946
0.00112958
0.00325568
0.000265978
0.00355439
-0.000587579
0.00356684
-0.00135894
0.00328772
-0.00198451
0.00274073
-0.00241487
0.00197502
-0.00261531
0.0010551
-0.00257266
6.89206e-05
-0.00230272
-0.000905567
-0.00183403
-0.00175681
-0.00121892
-0.00241517
-0.000524109
-0.00281604
0.000179023
-0.00292432
0.000815298
-0.00272854
0.00132088
-0.00226266
0.00164833
-0.00158567
0.0017723
-0.000780183
0.00168982
5.91317e-05
0.00142766
0.000827565
0.00102992
0.00143459
0.000557238
0.00181538
7.60185e-05
0.00193295
-0.000343564
0.00178109
-0.000653201
0.00141136
-0.000818974
0.000888869
-0.00083198
0.000304849
-0.000708481
-0.000244279
-0.00048443
-0.000672035
-0.000210068
-0.000917708
5.87988e-05
-0.000952251
0.000272408
-0.000780795
0.000392753
-0.000453581
0.000401679
-3.94386e-05
0.000303526
0.000383865
0.000119085
0.000725747
-0.000113732
0.000929814
-0.000351029
0.000950416
-0.000548099
0.000785404
-0.00066904
0.000463456
-0.000691752
3.88802e-05
-0.000610684
-0.000426481
-0.000436631
-0.000846707
-0.000195393
-0.00115866
7.76547e-05
-0.00131341
0.000342171
-0.00127923
0.000559918
-0.00106168
0.000699575
-0.000688284
0.00074082
-0.000209003
0.000677217
0.000310091
0.000516508
0.000796231
0.000279982
0.00117884
0.00139869
1.14684e-05
-0.000128071
5.19086e-05
-0.000200909
0.00014239
-0.000282689
0.000316367
-0.000414628
0.000609075
-0.000585956
0.00102779
-0.000787825
0.00156413
-0.000933214
0.00225906
-0.00116685
0.00253183
-0.000643035
0.00257818
-0.000357807
0.00251511
-0.000158616
0.00243993
-6.71934e-05
0.00232183
5.07662e-05
0.00217571
0.000127274
0.00203227
0.000165764
0.00189717
0.000179838
0.00178473
0.000182249
0.00170088
0.000181178
0.00164572
0.000186298
0.00161608
0.000203036
0.00160139
0.00024866
0.00162334
0.000289798
0.00165837
0.00038003
0.00171095
0.000467136
0.00173544
0.000624844
0.00174944
0.000740212
0.00165912
0.00100297
0.00160809
0.00104138
0.00136128
0.00144458
0.000992072
0.00169393