/*--------------------------------*- C++ -*----------------------------------*\
  =========                 |
  \\      /  F ield         | OpenFOAM: The Open Source CFD Toolbox
   \\    /   O peration     | Website:  https://openfoam.org
    \\  /    A nd           | Version:  12
     \\/     M anipulation  |
\*---------------------------------------------------------------------------*/
FoamFile
{
    format      ascii;
    class       volScalarField;
    location    "8.08";
    object      p;
}
// * * * * * * * * * * * * * * * * * * * * * * * * * * * * * * * * * * * * * //

dimensions      [1 -1 -2 0 0 0 0];

internalField   nonuniform List<scalar> 
3829
(
-617.971
-617.969
-617.967
-617.963
-617.958
-617.952
-617.944
-617.934
-617.923
-617.91
-617.895
-617.878
-617.859
-617.838
-617.814
-617.788
-617.76
-617.728
-617.694
-617.657
-617.616
-617.573
-617.526
-617.476
-617.423
-617.366
-617.307
-617.244
-617.179
-617.11
-617.039
-616.966
-616.89
-616.812
-616.732
-616.65
-616.568
-616.484
-616.399
-616.314
-616.228
-616.143
-616.058
-615.974
-615.891
-615.809
-615.729
-615.651
-615.576
-615.503
-615.433
-615.366
-615.303
-615.244
-615.189
-615.139
-615.093
-615.052
-615.015
-614.982
-614.954
-614.929
-614.909
-614.893
-614.881
-614.872
-614.867
-614.864
-614.864
-614.866
-614.87
-614.875
-614.88
-614.886
-614.891
-614.896
-614.899
-614.9
-614.899
-614.895
-614.889
-614.879
-614.865
-614.847
-614.825
-614.799
-614.77
-614.736
-614.7
-614.66
-614.619
-614.575
-614.53
-614.484
-614.439
-614.394
-614.352
-614.312
-614.275
-614.243
-614.215
-614.193
-614.177
-614.167
-614.163
-614.166
-614.175
-614.19
-614.211
-614.235
-614.264
-614.295
-614.328
-614.362
-614.394
-614.425
-614.453
-614.476
-614.495
-614.508
-614.515
-614.516
-614.51
-614.499
-614.482
-614.461
-614.436
-614.409
-614.381
-614.354
-614.329
-614.306
-614.288
-614.274
-614.265
-614.263
-614.266
-614.273
-614.284
-614.298
-614.314
-614.33
-614.344
-614.356
-614.365
-614.369
-614.369
-614.364
-614.354
-614.341
-614.326
-614.31
-614.294
-614.28
-614.268
-614.261
-614.258
-614.26
-614.267
-614.278
-614.294
-614.31
-614.327
-614.344
-614.359
-614.371
-614.38
-614.384
-614.384
-614.38
-614.373
-614.363
-614.352
-614.34
-614.329
-614.321
-614.314
-614.311
-614.312
-614.316
-614.323
-614.333
-614.344
-614.357
-614.369
-614.379
-614.387
-614.393
-614.394
-614.391
-614.385
-614.375
-614.362
-614.346
-614.33
-614.313
-614.298
-614.285
-614.276
-614.271
-1776.45
-1776.45
-1776.45
-1776.45
-1776.44
-1776.44
-1776.43
-1776.42
-1776.41
-1776.4
-1776.39
-1776.37
-1776.35
-1776.33
-1776.31
-1776.28
-1776.25
-1776.22
-1776.18
-1776.14
-1776.1
-1776.06
-1776.01
-1775.95
-1775.9
-1775.84
-1775.77
-1775.7
-1775.63
-1775.55
-1775.48
-1775.39
-1775.31
-1775.22
-1775.13
-1775.04
-1774.94
-1774.85
-1774.75
-1774.66
-1774.56
-1774.46
-1774.37
-1774.28
-1774.18
-1774.1
-1774.01
-1773.92
-1773.84
-1773.76
-1773.69
-1773.62
-1773.55
-1773.49
-1773.44
-1773.39
-1773.35
-1773.31
-1773.27
-1773.24
-1773.22
-1773.2
-1773.19
-1773.18
-1773.18
-1773.17
-1773.18
-1773.18
-1773.19
-1773.2
-1773.22
-1773.23
-1773.25
-1773.26
-1773.27
-1773.28
-1773.29
-1773.3
-1773.31
-1773.31
-1773.3
-1773.29
-1773.28
-1773.26
-1773.24
-1773.21
-1773.18
-1773.14
-1773.1
-1773.05
-1773
-1772.95
-1772.9
-1772.85
-1772.79
-1772.74
-1772.69
-1772.65
-1772.6
-1772.57
-1772.54
-1772.51
-1772.49
-1772.48
-1772.48
-1772.49
-1772.5
-1772.52
-1772.55
-1772.58
-1772.62
-1772.66
-1772.7
-1772.74
-1772.78
-1772.81
-1772.85
-1772.88
-1772.9
-1772.91
-1772.92
-1772.92
-1772.91
-1772.9
-1772.87
-1772.85
-1772.82
-1772.78
-1772.75
-1772.72
-1772.69
-1772.66
-1772.64
-1772.62
-1772.61
-1772.61
-1772.62
-1772.63
-1772.64
-1772.66
-1772.68
-1772.7
-1772.72
-1772.74
-1772.75
-1772.75
-1772.75
-1772.74
-1772.73
-1772.72
-1772.7
-1772.68
-1772.66
-1772.64
-1772.63
-1772.62
-1772.62
-1772.62
-1772.63
-1772.64
-1772.66
-1772.68
-1772.7
-1772.72
-1772.73
-1772.75
-1772.76
-1772.76
-1772.76
-1772.76
-1772.75
-1772.74
-1772.72
-1772.71
-1772.7
-1772.69
-1772.68
-1772.68
-1772.68
-1772.68
-1772.69
-1772.7
-1772.71
-1772.73
-1772.74
-1772.75
-1772.76
-1772.77
-1772.77
-1772.77
-1772.76
-1772.75
-1772.73
-1772.72
-1772.7
-1772.68
-1772.67
-1772.65
-1772.64
-1772.64
-2802.8
-2802.8
-2802.8
-2802.8
-2802.8
-2802.8
-2802.8
-2802.8
-2802.8
-2802.8
-2802.79
-2802.79
-2802.78
-2802.77
-2802.75
-2802.73
-2802.71
-2802.67
-2802.63
-2802.59
-2802.54
-2802.49
-2802.44
-2802.38
-2802.32
-2802.24
-2802.16
-2802.08
-2801.98
-2801.88
-2801.78
-2801.68
-2801.57
-2801.46
-2801.34
-2801.23
-2801.11
-2801
-2800.88
-2800.77
-2800.65
-2800.53
-2800.42
-2800.31
-2800.2
-2800.1
-2800
-2799.9
-2799.81
-2799.73
-2799.65
-2799.57
-2799.5
-2799.44
-2799.39
-2799.34
-2799.29
-2799.26
-2799.23
-2799.21
-2799.2
-2799.19
-2799.19
-2799.19
-2799.2
-2799.22
-2799.24
-2799.26
-2799.29
-2799.31
-2799.34
-2799.37
-2799.41
-2799.44
-2799.46
-2799.49
-2799.51
-2799.53
-2799.54
-2799.55
-2799.55
-2799.54
-2799.53
-2799.51
-2799.49
-2799.45
-2799.41
-2799.37
-2799.32
-2799.26
-2799.2
-2799.13
-2799.06
-2799
-2798.93
-2798.86
-2798.8
-2798.74
-2798.69
-2798.64
-2798.61
-2798.58
-2798.56
-2798.55
-2798.55
-2798.56
-2798.58
-2798.61
-2798.65
-2798.7
-2798.75
-2798.8
-2798.86
-2798.91
-2798.96
-2799.01
-2799.06
-2799.09
-2799.12
-2799.14
-2799.15
-2799.14
-2799.13
-2799.11
-2799.07
-2799.04
-2798.99
-2798.95
-2798.9
-2798.86
-2798.82
-2798.79
-2798.76
-2798.74
-2798.73
-2798.74
-2798.75
-2798.76
-2798.79
-2798.81
-2798.84
-2798.87
-2798.9
-2798.92
-2798.93
-2798.94
-2798.94
-2798.93
-2798.91
-2798.89
-2798.86
-2798.84
-2798.81
-2798.79
-2798.77
-2798.76
-2798.76
-2798.76
-2798.77
-2798.79
-2798.81
-2798.84
-2798.86
-2798.88
-2798.91
-2798.92
-2798.93
-2798.94
-2798.93
-2798.93
-2798.92
-2798.9
-2798.88
-2798.87
-2798.85
-2798.84
-2798.83
-2798.83
-2798.83
-2798.83
-2798.84
-2798.86
-2798.87
-2798.89
-2798.9
-2798.92
-2798.93
-2798.93
-2798.94
-2798.93
-2798.93
-2798.91
-2798.9
-2798.88
-2798.86
-2798.84
-2798.82
-2798.81
-2798.8
-2798.79
-3711.99
-3711.99
-3712
-3712
-3712
-3712.01
-3712.01
-3712.01
-3712.01
-3712.01
-3712.01
-3712.01
-3712
-3712
-3711.99
-3711.99
-3711.98
-3711.97
-3711.95
-3711.92
-3711.88
-3711.82
-3711.76
-3711.68
-3711.6
-3711.51
-3711.41
-3711.3
-3711.2
-3711.09
-3710.97
-3710.84
-3710.71
-3710.58
-3710.44
-3710.29
-3710.15
-3710
-3709.86
-3709.71
-3709.57
-3709.42
-3709.29
-3709.15
-3709.02
-3708.9
-3708.78
-3708.67
-3708.56
-3708.47
-3708.38
-3708.3
-3708.23
-3708.16
-3708.11
-3708.06
-3708.03
-3708
-3707.99
-3707.98
-3707.98
-3707.99
-3708.01
-3708.03
-3708.06
-3708.1
-3708.14
-3708.19
-3708.24
-3708.29
-3708.35
-3708.4
-3708.46
-3708.51
-3708.56
-3708.6
-3708.64
-3708.67
-3708.7
-3708.72
-3708.72
-3708.72
-3708.71
-3708.69
-3708.66
-3708.62
-3708.57
-3708.51
-3708.44
-3708.36
-3708.28
-3708.19
-3708.11
-3708.02
-3707.93
-3707.84
-3707.76
-3707.68
-3707.62
-3707.56
-3707.51
-3707.48
-3707.46
-3707.45
-3707.46
-3707.48
-3707.51
-3707.55
-3707.61
-3707.67
-3707.74
-3707.82
-3707.9
-3707.97
-3708.05
-3708.11
-3708.17
-3708.22
-3708.25
-3708.27
-3708.28
-3708.27
-3708.25
-3708.21
-3708.17
-3708.11
-3708.05
-3707.99
-3707.93
-3707.87
-3707.82
-3707.77
-3707.74
-3707.72
-3707.71
-3707.72
-3707.74
-3707.76
-3707.8
-3707.84
-3707.88
-3707.93
-3707.96
-3707.99
-3708.01
-3708.02
-3708.01
-3708
-3707.98
-3707.94
-3707.91
-3707.87
-3707.84
-3707.81
-3707.78
-3707.77
-3707.76
-3707.77
-3707.79
-3707.81
-3707.84
-3707.87
-3707.9
-3707.93
-3707.96
-3707.98
-3707.99
-3708
-3707.99
-3707.98
-3707.96
-3707.94
-3707.92
-3707.9
-3707.88
-3707.87
-3707.86
-3707.85
-3707.85
-3707.86
-3707.87
-3707.89
-3707.91
-3707.93
-3707.95
-3707.96
-3707.98
-3707.98
-3707.99
-3707.98
-3707.97
-3707.96
-3707.94
-3707.92
-3707.9
-3707.87
-3707.85
-3707.84
-3707.82
-3707.82
-4517.47
-4517.48
-4517.49
-4517.51
-4517.54
-4517.58
-4517.62
-4517.66
-4517.7
-4517.75
-4517.79
-4517.83
-4517.86
-4517.88
-4517.9
-4517.91
-4517.9
-4517.89
-4517.87
-4517.84
-4517.79
-4517.73
-4517.66
-4517.57
-4517.46
-4517.35
-4517.22
-4517.09
-4516.94
-4516.77
-4516.59
-4516.4
-4516.21
-4516.01
-4515.82
-4515.63
-4515.43
-4515.24
-4515.05
-4514.86
-4514.68
-4514.5
-4514.33
-4514.17
-4514.01
-4513.86
-4513.72
-4513.59
-4513.48
-4513.37
-4513.27
-4513.18
-4513.11
-4513.05
-4513
-4512.96
-4512.93
-4512.92
-4512.92
-4512.93
-4512.95
-4512.98
-4513.02
-4513.07
-4513.13
-4513.2
-4513.27
-4513.35
-4513.44
-4513.52
-4513.61
-4513.69
-4513.78
-4513.86
-4513.93
-4514
-4514.06
-4514.11
-4514.15
-4514.18
-4514.2
-4514.2
-4514.19
-4514.16
-4514.12
-4514.07
-4514
-4513.92
-4513.83
-4513.74
-4513.63
-4513.52
-4513.4
-4513.28
-4513.16
-4513.05
-4512.94
-4512.85
-4512.76
-4512.69
-4512.63
-4512.59
-4512.56
-4512.56
-4512.57
-4512.6
-4512.65
-4512.72
-4512.8
-4512.89
-4512.98
-4513.09
-4513.19
-4513.29
-4513.39
-4513.48
-4513.56
-4513.62
-4513.66
-4513.68
-4513.69
-4513.67
-4513.64
-4513.59
-4513.53
-4513.45
-4513.37
-4513.28
-4513.2
-4513.12
-4513.05
-4512.99
-4512.95
-4512.93
-4512.92
-4512.94
-4512.96
-4513.01
-4513.06
-4513.12
-4513.18
-4513.23
-4513.28
-4513.32
-4513.35
-4513.36
-4513.35
-4513.33
-4513.3
-4513.25
-4513.2
-4513.15
-4513.11
-4513.07
-4513.04
-4513.02
-4513.01
-4513.02
-4513.04
-4513.08
-4513.11
-4513.16
-4513.2
-4513.24
-4513.27
-4513.29
-4513.31
-4513.31
-4513.3
-4513.29
-4513.26
-4513.24
-4513.21
-4513.18
-4513.16
-4513.14
-4513.13
-4513.12
-4513.13
-4513.14
-4513.15
-4513.17
-4513.2
-4513.22
-4513.24
-4513.26
-4513.27
-4513.28
-4513.29
-4513.28
-4513.27
-4513.26
-4513.23
-4513.21
-4513.18
-4513.16
-4513.14
-4513.12
-4513.1
-4513.09
-5230.69
-5230.71
-5230.74
-5230.78
-5230.83
-5230.9
-5230.98
-5231.06
-5231.16
-5231.26
-5231.36
-5231.47
-5231.58
-5231.68
-5231.77
-5231.83
-5231.89
-5231.92
-5231.93
-5231.91
-5231.87
-5231.81
-5231.72
-5231.61
-5231.47
-5231.3
-5231.12
-5230.91
-5230.68
-5230.45
-5230.22
-5229.98
-5229.74
-5229.49
-5229.24
-5228.99
-5228.74
-5228.5
-5228.26
-5228.03
-5227.8
-5227.59
-5227.38
-5227.18
-5227
-5226.82
-5226.66
-5226.52
-5226.38
-5226.26
-5226.16
-5226.07
-5225.99
-5225.93
-5225.89
-5225.86
-5225.85
-5225.85
-5225.87
-5225.91
-5225.95
-5226.01
-5226.09
-5226.17
-5226.27
-5226.37
-5226.48
-5226.6
-5226.72
-5226.85
-5226.97
-5227.09
-5227.21
-5227.33
-5227.43
-5227.53
-5227.62
-5227.69
-5227.75
-5227.79
-5227.81
-5227.82
-5227.81
-5227.77
-5227.72
-5227.65
-5227.57
-5227.47
-5227.35
-5227.22
-5227.08
-5226.93
-5226.78
-5226.63
-5226.48
-5226.33
-5226.19
-5226.07
-5225.96
-5225.87
-5225.79
-5225.75
-5225.72
-5225.72
-5225.74
-5225.79
-5225.86
-5225.95
-5226.05
-5226.18
-5226.31
-5226.45
-5226.59
-5226.72
-5226.85
-5226.96
-5227.06
-5227.14
-5227.19
-5227.22
-5227.22
-5227.19
-5227.14
-5227.07
-5226.98
-5226.88
-5226.77
-5226.66
-5226.54
-5226.44
-5226.35
-5226.28
-5226.23
-5226.21
-5226.2
-5226.23
-5226.27
-5226.33
-5226.4
-5226.48
-5226.57
-5226.64
-5226.71
-5226.76
-5226.79
-5226.8
-5226.79
-5226.76
-5226.71
-5226.66
-5226.59
-5226.52
-5226.46
-5226.41
-5226.37
-5226.35
-5226.34
-5226.36
-5226.39
-5226.43
-5226.48
-5226.53
-5226.59
-5226.63
-5226.67
-5226.7
-5226.71
-5226.72
-5226.71
-5226.68
-5226.66
-5226.62
-5226.59
-5226.56
-5226.53
-5226.5
-5226.49
-5226.49
-5226.49
-5226.5
-5226.52
-5226.54
-5226.57
-5226.6
-5226.63
-5226.65
-5226.67
-5226.68
-5226.68
-5226.67
-5226.66
-5226.64
-5226.62
-5226.59
-5226.56
-5226.53
-5226.51
-5226.48
-5226.47
-5226.46
-5862.32
-5862.35
-5862.41
-5862.5
-5862.63
-5862.78
-5862.95
-5863.15
-5863.36
-5863.59
-5863.81
-5864.03
-5864.24
-5864.43
-5864.61
-5864.76
-5864.88
-5864.97
-5865.02
-5865.03
-5864.99
-5864.92
-5864.8
-5864.63
-5864.43
-5864.19
-5863.92
-5863.63
-5863.33
-5862.99
-5862.64
-5862.28
-5861.93
-5861.58
-5861.24
-5860.91
-5860.59
-5860.28
-5859.98
-5859.69
-5859.42
-5859.16
-5858.92
-5858.69
-5858.47
-5858.28
-5858.1
-5857.93
-5857.79
-5857.66
-5857.55
-5857.46
-5857.39
-5857.34
-5857.3
-5857.29
-5857.29
-5857.31
-5857.36
-5857.42
-5857.5
-5857.59
-5857.7
-5857.83
-5857.96
-5858.11
-5858.27
-5858.43
-5858.6
-5858.76
-5858.93
-5859.1
-5859.26
-5859.41
-5859.55
-5859.68
-5859.8
-5859.89
-5859.97
-5860.03
-5860.06
-5860.07
-5860.05
-5860.01
-5859.95
-5859.86
-5859.75
-5859.62
-5859.47
-5859.3
-5859.12
-5858.94
-5858.74
-5858.55
-5858.36
-5858.17
-5858
-5857.84
-5857.71
-5857.59
-5857.51
-5857.45
-5857.42
-5857.42
-5857.46
-5857.52
-5857.62
-5857.74
-5857.88
-5858.04
-5858.21
-5858.39
-5858.57
-5858.74
-5858.9
-5859.05
-5859.17
-5859.26
-5859.33
-5859.36
-5859.35
-5859.32
-5859.25
-5859.15
-5859.04
-5858.9
-5858.76
-5858.61
-5858.47
-5858.33
-5858.22
-5858.13
-5858.07
-5858.05
-5858.05
-5858.08
-5858.14
-5858.23
-5858.32
-5858.43
-5858.54
-5858.64
-5858.73
-5858.79
-5858.83
-5858.84
-5858.82
-5858.78
-5858.72
-5858.64
-5858.56
-5858.47
-5858.39
-5858.33
-5858.28
-5858.25
-5858.25
-5858.27
-5858.31
-5858.36
-5858.42
-5858.49
-5858.56
-5858.61
-5858.66
-5858.69
-5858.71
-5858.71
-5858.69
-5858.67
-5858.63
-5858.59
-5858.55
-5858.51
-5858.47
-5858.45
-5858.43
-5858.43
-5858.43
-5858.45
-5858.47
-5858.5
-5858.53
-5858.56
-5858.59
-5858.62
-5858.64
-5858.65
-5858.65
-5858.65
-5858.64
-5858.61
-5858.59
-5858.55
-5858.52
-5858.49
-5858.46
-5858.43
-5858.42
-5858.41
-6421.06
-6421.12
-6421.24
-6421.42
-6421.66
-6421.96
-6422.31
-6422.72
-6423.16
-6423.61
-6424.05
-6424.47
-6424.87
-6425.23
-6425.55
-6425.81
-6426.03
-6426.19
-6426.28
-6426.32
-6426.28
-6426.18
-6426.01
-6425.77
-6425.46
-6425.08
-6424.65
-6424.17
-6423.68
-6423.2
-6422.73
-6422.27
-6421.82
-6421.39
-6420.96
-6420.56
-6420.17
-6419.8
-6419.45
-6419.12
-6418.8
-6418.51
-6418.23
-6417.97
-6417.73
-6417.52
-6417.32
-6417.14
-6416.98
-6416.85
-6416.74
-6416.65
-6416.58
-6416.54
-6416.52
-6416.52
-6416.55
-6416.6
-6416.67
-6416.76
-6416.88
-6417.01
-6417.17
-6417.33
-6417.52
-6417.71
-6417.92
-6418.13
-6418.35
-6418.57
-6418.79
-6419
-6419.21
-6419.4
-6419.59
-6419.75
-6419.9
-6420.02
-6420.11
-6420.18
-6420.23
-6420.24
-6420.22
-6420.17
-6420.08
-6419.97
-6419.83
-6419.67
-6419.48
-6419.27
-6419.05
-6418.82
-6418.57
-6418.33
-6418.1
-6417.87
-6417.65
-6417.46
-6417.3
-6417.16
-6417.06
-6416.99
-6416.96
-6416.97
-6417.02
-6417.11
-6417.23
-6417.38
-6417.57
-6417.77
-6417.99
-6418.21
-6418.43
-6418.65
-6418.85
-6419.03
-6419.18
-6419.29
-6419.36
-6419.4
-6419.39
-6419.34
-6419.24
-6419.12
-6418.97
-6418.8
-6418.61
-6418.43
-6418.25
-6418.09
-6417.95
-6417.84
-6417.77
-6417.74
-6417.75
-6417.8
-6417.88
-6417.99
-6418.12
-6418.25
-6418.39
-6418.52
-6418.62
-6418.7
-6418.75
-6418.76
-6418.74
-6418.68
-6418.6
-6418.5
-6418.39
-6418.29
-6418.19
-6418.11
-6418.05
-6418.02
-6418.02
-6418.05
-6418.1
-6418.16
-6418.24
-6418.32
-6418.4
-6418.47
-6418.53
-6418.56
-6418.58
-6418.58
-6418.56
-6418.52
-6418.48
-6418.43
-6418.38
-6418.33
-6418.29
-6418.26
-6418.24
-6418.24
-6418.24
-6418.26
-6418.29
-6418.32
-6418.36
-6418.4
-6418.43
-6418.46
-6418.49
-6418.5
-6418.5
-6418.5
-6418.48
-6418.46
-6418.43
-6418.39
-6418.35
-6418.32
-6418.28
-6418.25
-6418.23
-6418.22
-6915.19
-6915.29
-6915.49
-6915.78
-6916.18
-6916.68
-6917.27
-6917.95
-6918.72
-6919.52
-6920.31
-6921.07
-6921.77
-6922.41
-6922.98
-6923.45
-6923.84
-6924.12
-6924.3
-6924.36
-6924.32
-6924.16
-6923.89
-6923.52
-6923.03
-6922.45
-6921.79
-6921.06
-6920.33
-6919.63
-6918.96
-6918.32
-6917.73
-6917.18
-6916.66
-6916.18
-6915.73
-6915.31
-6914.91
-6914.54
-6914.19
-6913.87
-6913.57
-6913.29
-6913.03
-6912.79
-6912.58
-6912.39
-6912.23
-6912.09
-6911.98
-6911.9
-6911.84
-6911.81
-6911.8
-6911.82
-6911.87
-6911.95
-6912.06
-6912.19
-6912.34
-6912.52
-6912.72
-6912.93
-6913.17
-6913.42
-6913.68
-6913.95
-6914.22
-6914.49
-6914.77
-6915.03
-6915.29
-6915.53
-6915.75
-6915.96
-6916.14
-6916.28
-6916.4
-6916.49
-6916.54
-6916.55
-6916.52
-6916.46
-6916.36
-6916.22
-6916.05
-6915.84
-6915.61
-6915.36
-6915.09
-6914.8
-6914.51
-6914.21
-6913.92
-6913.65
-6913.39
-6913.16
-6912.96
-6912.8
-6912.68
-6912.6
-6912.57
-6912.59
-6912.66
-6912.77
-6912.93
-6913.12
-6913.34
-6913.59
-6913.86
-6914.14
-6914.41
-6914.68
-6914.92
-6915.13
-6915.31
-6915.44
-6915.53
-6915.56
-6915.54
-6915.47
-6915.36
-6915.2
-6915.01
-6914.8
-6914.57
-6914.34
-6914.12
-6913.93
-6913.76
-6913.64
-6913.56
-6913.52
-6913.54
-6913.61
-6913.71
-6913.85
-6914.01
-6914.18
-6914.35
-6914.51
-6914.64
-6914.73
-6914.79
-6914.8
-6914.76
-6914.69
-6914.59
-6914.47
-6914.33
-6914.2
-6914.08
-6913.99
-6913.92
-6913.89
-6913.89
-6913.93
-6913.99
-6914.07
-6914.16
-6914.26
-6914.35
-6914.43
-6914.5
-6914.54
-6914.55
-6914.55
-6914.52
-6914.48
-6914.43
-6914.37
-6914.31
-6914.25
-6914.21
-6914.17
-6914.15
-6914.15
-6914.16
-6914.18
-6914.21
-6914.25
-6914.29
-6914.34
-6914.38
-6914.41
-6914.43
-6914.45
-6914.45
-6914.45
-6914.43
-6914.4
-6914.37
-6914.33
-6914.29
-6914.25
-6914.21
-6914.18
-6914.16
-6914.14
-7351.63
-7351.78
-7352.08
-7352.55
-7353.21
-7354.07
-7355.2
-7356.55
-7358.55
-7360.04
-7361.37
-7362.53
-7363.52
-7364.36
-7365.06
-7365.63
-7366.07
-7366.39
-7366.58
-7366.65
-7366.58
-7366.37
-7366.01
-7365.48
-7364.76
-7363.85
-7362.74
-7361.11
-7359.99
-7358.99
-7358.14
-7357.39
-7356.72
-7356.1
-7355.53
-7355.01
-7354.53
-7354.08
-7353.67
-7353.27
-7352.91
-7352.56
-7352.24
-7351.95
-7351.67
-7351.43
-7351.2
-7351.01
-7350.84
-7350.7
-7350.59
-7350.51
-7350.46
-7350.44
-7350.45
-7350.5
-7350.58
-7350.68
-7350.82
-7350.99
-7351.19
-7351.41
-7351.66
-7351.93
-7352.22
-7352.52
-7352.84
-7353.17
-7353.5
-7353.83
-7354.16
-7354.49
-7354.79
-7355.09
-7355.35
-7355.6
-7355.81
-7355.99
-7356.13
-7356.23
-7356.28
-7356.29
-7356.26
-7356.18
-7356.06
-7355.89
-7355.68
-7355.44
-7355.16
-7354.85
-7354.53
-7354.18
-7353.83
-7353.48
-7353.14
-7352.81
-7352.51
-7352.24
-7352.01
-7351.82
-7351.68
-7351.59
-7351.56
-7351.59
-7351.68
-7351.82
-7352.01
-7352.24
-7352.52
-7352.82
-7353.14
-7353.47
-7353.8
-7354.11
-7354.4
-7354.65
-7354.86
-7355.01
-7355.11
-7355.14
-7355.11
-7355.02
-7354.88
-7354.69
-7354.46
-7354.2
-7353.93
-7353.65
-7353.39
-7353.16
-7352.96
-7352.82
-7352.73
-7352.7
-7352.72
-7352.81
-7352.94
-7353.11
-7353.31
-7353.51
-7353.72
-7353.9
-7354.06
-7354.17
-7354.23
-7354.24
-7354.2
-7354.11
-7353.98
-7353.83
-7353.67
-7353.51
-7353.37
-7353.26
-7353.19
-7353.15
-7353.16
-7353.2
-7353.28
-7353.37
-7353.49
-7353.6
-7353.71
-7353.8
-7353.87
-7353.91
-7353.93
-7353.92
-7353.89
-7353.84
-7353.78
-7353.71
-7353.64
-7353.58
-7353.52
-7353.49
-7353.47
-7353.46
-7353.47
-7353.5
-7353.53
-7353.58
-7353.63
-7353.68
-7353.72
-7353.76
-7353.79
-7353.8
-7353.81
-7353.8
-7353.78
-7353.75
-7353.71
-7353.67
-7353.62
-7353.58
-7353.54
-7353.5
-7353.48
-7353.47
-7736.7
-7736.88
-7737.24
-7737.82
-7738.66
-7739.82
-7741.38
-7743.45
-7746.52
-7748.66
-7750.6
-7752.29
-7753.75
-7754.99
-7756.03
-7756.88
-7757.53
-7758
-7758.28
-7758.38
-7758.29
-7758
-7757.5
-7756.78
-7755.81
-7754.57
-7753.08
-7750.72
-7749.17
-7747.9
-7746.87
-7746.01
-7745.28
-7744.64
-7744.07
-7743.55
-7743.06
-7742.63
-7742.21
-7741.8
-7741.43
-7741.07
-7740.74
-7740.43
-7740.15
-7739.89
-7739.66
-7739.46
-7739.28
-7739.14
-7739.03
-7738.96
-7738.92
-7738.91
-7738.95
-7739.01
-7739.12
-7739.26
-7739.43
-7739.64
-7739.88
-7740.15
-7740.45
-7740.78
-7741.12
-7741.49
-7741.87
-7742.25
-7742.65
-7743.04
-7743.43
-7743.81
-7744.17
-7744.51
-7744.83
-7745.11
-7745.36
-7745.57
-7745.73
-7745.84
-7745.91
-7745.92
-7745.87
-7745.78
-7745.63
-7745.43
-7745.18
-7744.89
-7744.57
-7744.21
-7743.82
-7743.42
-7743.01
-7742.6
-7742.2
-7741.82
-7741.47
-7741.16
-7740.89
-7740.67
-7740.51
-7740.42
-7740.39
-7740.43
-7740.54
-7740.71
-7740.94
-7741.22
-7741.54
-7741.9
-7742.28
-7742.66
-7743.05
-7743.41
-7743.75
-7744.04
-7744.27
-7744.45
-7744.55
-7744.59
-7744.55
-7744.44
-7744.26
-7744.03
-7743.75
-7743.45
-7743.13
-7742.8
-7742.5
-7742.23
-7742.01
-7741.84
-7741.74
-7741.71
-7741.75
-7741.85
-7742.01
-7742.22
-7742.45
-7742.7
-7742.94
-7743.16
-7743.34
-7743.47
-7743.53
-7743.54
-7743.49
-7743.38
-7743.23
-7743.05
-7742.86
-7742.68
-7742.51
-7742.39
-7742.3
-7742.26
-7742.27
-7742.33
-7742.42
-7742.53
-7742.66
-7742.79
-7742.92
-7743.02
-7743.1
-7743.15
-7743.16
-7743.15
-7743.11
-7743.05
-7742.98
-7742.9
-7742.82
-7742.75
-7742.69
-7742.65
-7742.63
-7742.62
-7742.64
-7742.67
-7742.71
-7742.76
-7742.81
-7742.87
-7742.92
-7742.96
-7742.99
-7743
-7743.01
-7743
-7742.98
-7742.94
-7742.9
-7742.86
-7742.81
-7742.76
-7742.72
-7742.68
-7742.65
-7742.64
-8076.35
-8076.42
-8076.55
-8076.75
-8076.98
-8077.26
-8077.4
-8077.75
-8090.97
-8090.56
-8090.31
-8089.89
-8089.45
-8088.98
-8088.51
-8088.04
-8087.58
-8087.13
-8086.71
-8086.29
-8085.89
-8085.51
-8085.15
-8084.81
-8084.49
-8084.2
-8083.93
-8083.69
-8083.48
-8083.3
-8083.16
-8083.06
-8082.99
-8082.96
-8082.96
-8083.01
-8083.1
-8083.24
-8083.41
-8083.62
-8083.87
-8084.16
-8084.48
-8084.83
-8085.21
-8085.61
-8086.04
-8086.48
-8086.93
-8087.39
-8087.84
-8088.29
-8088.73
-8089.15
-8089.54
-8089.9
-8090.23
-8090.51
-8090.75
-8090.93
-8091.06
-8091.13
-8091.14
-8091.08
-8090.97
-8090.79
-8090.56
-8090.27
-8089.94
-8089.56
-8089.14
-8088.7
-8088.23
-8087.76
-8087.29
-8086.83
-8086.4
-8086
-8085.64
-8085.34
-8085.09
-8084.92
-8084.81
-8084.79
-8084.84
-8084.97
-8085.17
-8085.44
-8085.77
-8086.14
-8086.56
-8086.99
-8087.44
-8087.88
-8088.3
-8088.68
-8089.01
-8089.28
-8089.47
-8089.59
-8089.62
-8089.57
-8089.43
-8089.23
-8088.95
-8088.63
-8088.28
-8087.9
-8087.53
-8087.19
-8086.88
-8086.62
-8086.44
-8086.33
-8086.3
-8086.35
-8086.47
-8086.67
-8086.91
-8087.18
-8087.47
-8087.75
-8088
-8088.2
-8088.35
-8088.42
-8088.43
-8088.36
-8088.23
-8088.05
-8087.84
-8087.63
-8087.42
-8087.23
-8087.09
-8086.99
-8086.95
-8086.97
-8087.03
-8087.14
-8087.27
-8087.42
-8087.57
-8087.7
-8087.82
-8087.91
-8087.96
-8087.97
-8087.96
-8087.91
-8087.84
-8087.76
-8087.67
-8087.58
-8087.51
-8087.44
-8087.4
-8087.37
-8087.37
-8087.39
-8087.42
-8087.47
-8087.52
-8087.58
-8087.64
-8087.69
-8087.74
-8087.77
-8087.79
-8087.79
-8087.78
-8087.76
-8087.72
-8087.68
-8087.63
-8087.57
-8087.52
-8087.48
-8087.44
-8087.41
-8087.39
-8376.88
-8376.91
-8376.99
-8377.09
-8377.22
-8377.36
-8377.47
-8377.7
-8395.21
-8394.88
-8394.65
-8394.31
-8393.94
-8393.55
-8393.14
-8392.72
-8392.3
-8391.88
-8391.47
-8391.06
-8390.66
-8390.28
-8389.91
-8389.56
-8389.23
-8388.92
-8388.64
-8388.39
-8388.18
-8387.99
-8387.85
-8387.74
-8387.68
-8387.66
-8387.68
-8387.75
-8387.86
-8388.02
-8388.22
-8388.47
-8388.76
-8389.1
-8389.47
-8389.87
-8390.31
-8390.77
-8391.26
-8391.76
-8392.28
-8392.8
-8393.31
-8393.83
-8394.32
-8394.79
-8395.24
-8395.65
-8396.01
-8396.33
-8396.6
-8396.8
-8396.94
-8397.02
-8397.02
-8396.96
-8396.82
-8396.62
-8396.35
-8396.02
-8395.64
-8395.21
-8394.73
-8394.23
-8393.7
-8393.17
-8392.64
-8392.12
-8391.63
-8391.18
-8390.78
-8390.44
-8390.17
-8389.97
-8389.86
-8389.84
-8389.9
-8390.05
-8390.29
-8390.6
-8390.97
-8391.4
-8391.88
-8392.37
-8392.88
-8393.38
-8393.85
-8394.28
-8394.65
-8394.95
-8395.16
-8395.29
-8395.32
-8395.25
-8395.09
-8394.85
-8394.54
-8394.17
-8393.76
-8393.34
-8392.92
-8392.52
-8392.18
-8391.89
-8391.69
-8391.57
-8391.54
-8391.6
-8391.75
-8391.98
-8392.25
-8392.57
-8392.9
-8393.22
-8393.5
-8393.73
-8393.89
-8393.97
-8393.97
-8393.89
-8393.74
-8393.53
-8393.3
-8393.05
-8392.81
-8392.6
-8392.44
-8392.34
-8392.3
-8392.32
-8392.39
-8392.51
-8392.67
-8392.83
-8393
-8393.15
-8393.28
-8393.37
-8393.43
-8393.44
-8393.42
-8393.36
-8393.29
-8393.2
-8393.1
-8393
-8392.92
-8392.85
-8392.8
-8392.77
-8392.77
-8392.79
-8392.83
-8392.88
-8392.94
-8393
-8393.07
-8393.13
-8393.17
-8393.21
-8393.23
-8393.23
-8393.22
-8393.19
-8393.16
-8393.11
-8393.05
-8393
-8392.94
-8392.89
-8392.85
-8392.82
-8392.81
-8642.95
-8642.97
-8643
-8643.06
-8643.12
-8643.19
-8643.22
-8643.33
-8664.63
-8664.43
-8664.27
-8664.02
-8663.73
-8663.39
-8663.03
-8662.63
-8662.24
-8661.83
-8661.42
-8661.02
-8660.61
-8660.22
-8659.84
-8659.47
-8659.13
-8658.81
-8658.52
-8658.26
-8658.03
-8657.84
-8657.69
-8657.59
-8657.53
-8657.52
-8657.55
-8657.64
-8657.77
-8657.96
-8658.19
-8658.48
-8658.81
-8659.19
-8659.61
-8660.07
-8660.56
-8661.08
-8661.63
-8662.19
-8662.77
-8663.35
-8663.93
-8664.5
-8665.06
-8665.59
-8666.08
-8666.54
-8666.94
-8667.3
-8667.59
-8667.81
-8667.96
-8668.04
-8668.05
-8667.97
-8667.82
-8667.59
-8667.28
-8666.91
-8666.48
-8665.99
-8665.46
-8664.9
-8664.31
-8663.71
-8663.12
-8662.54
-8662
-8661.5
-8661.05
-8660.68
-8660.38
-8660.17
-8660.05
-8660.03
-8660.11
-8660.28
-8660.55
-8660.9
-8661.32
-8661.81
-8662.34
-8662.9
-8663.46
-8664.02
-8664.54
-8665.02
-8665.43
-8665.76
-8665.99
-8666.12
-8666.15
-8666.07
-8665.88
-8665.61
-8665.25
-8664.84
-8664.38
-8663.91
-8663.44
-8663
-8662.61
-8662.3
-8662.07
-8661.95
-8661.92
-8662
-8662.17
-8662.43
-8662.74
-8663.1
-8663.47
-8663.83
-8664.14
-8664.4
-8664.57
-8664.66
-8664.65
-8664.56
-8664.38
-8664.15
-8663.89
-8663.61
-8663.34
-8663.11
-8662.94
-8662.82
-8662.78
-8662.81
-8662.9
-8663.04
-8663.2
-8663.39
-8663.57
-8663.74
-8663.88
-8663.98
-8664.03
-8664.05
-8664.02
-8663.96
-8663.87
-8663.77
-8663.66
-8663.56
-8663.47
-8663.39
-8663.34
-8663.32
-8663.31
-8663.34
-8663.38
-8663.43
-8663.5
-8663.57
-8663.64
-8663.7
-8663.75
-8663.79
-8663.81
-8663.81
-8663.8
-8663.77
-8663.73
-8663.68
-8663.62
-8663.56
-8663.5
-8663.45
-8663.41
-8663.37
-8663.36
-8878.57
-8878.58
-8878.6
-8878.62
-8878.66
-8878.69
-8878.71
-8878.76
-8903.52
-8903.38
-8903.24
-8903.04
-8902.77
-8902.47
-8902.13
-8901.76
-8901.37
-8900.97
-8900.56
-8900.14
-8899.73
-8899.32
-8898.93
-8898.55
-8898.19
-8897.85
-8897.54
-8897.27
-8897.03
-8896.84
-8896.69
-8896.58
-8896.52
-8896.52
-8896.57
-8896.67
-8896.82
-8897.04
-8897.3
-8897.62
-8898
-8898.42
-8898.89
-8899.4
-8899.94
-8900.52
-8901.13
-8901.75
-8902.39
-8903.04
-8903.68
-8904.31
-8904.92
-8905.5
-8906.04
-8906.54
-8906.99
-8907.38
-8907.69
-8907.94
-8908.1
-8908.19
-8908.18
-8908.09
-8907.92
-8907.66
-8907.32
-8906.91
-8906.43
-8905.89
-8905.3
-8904.68
-8904.03
-8903.37
-8902.72
-8902.08
-8901.49
-8900.94
-8900.45
-8900.04
-8899.72
-8899.49
-8899.37
-8899.35
-8899.44
-8899.64
-8899.94
-8900.33
-8900.8
-8901.34
-8901.92
-8902.54
-8903.16
-8903.78
-8904.35
-8904.88
-8905.32
-8905.68
-8905.93
-8906.07
-8906.1
-8906
-8905.79
-8905.48
-8905.09
-8904.62
-8904.12
-8903.59
-8903.07
-8902.59
-8902.17
-8901.82
-8901.58
-8901.45
-8901.42
-8901.52
-8901.71
-8902
-8902.35
-8902.75
-8903.16
-8903.55
-8903.9
-8904.18
-8904.38
-8904.47
-8904.45
-8904.34
-8904.15
-8903.89
-8903.59
-8903.28
-8902.99
-8902.74
-8902.55
-8902.43
-8902.39
-8902.42
-8902.52
-8902.68
-8902.86
-8903.07
-8903.27
-8903.45
-8903.59
-8903.7
-8903.76
-8903.77
-8903.74
-8903.67
-8903.58
-8903.47
-8903.35
-8903.24
-8903.14
-8903.06
-8903
-8902.98
-8902.98
-8903
-8903.05
-8903.11
-8903.18
-8903.25
-8903.32
-8903.39
-8903.44
-8903.48
-8903.5
-8903.51
-8903.49
-8903.46
-8903.42
-8903.37
-8903.31
-8903.24
-8903.18
-8903.13
-8903.08
-8903.05
-8903.03
-9087.27
-9087.27
-9087.28
-9087.3
-9087.32
-9087.34
-9087.35
-9087.37
-9115.28
-9115.16
-9115.04
-9114.86
-9114.6
-9114.3
-9113.98
-9113.61
-9113.23
-9112.82
-9112.4
-9111.97
-9111.54
-9111.12
-9110.7
-9110.31
-9109.93
-9109.57
-9109.25
-9108.96
-9108.72
-9108.51
-9108.35
-9108.25
-9108.19
-9108.19
-9108.25
-9108.37
-9108.55
-9108.79
-9109.08
-9109.44
-9109.85
-9110.31
-9110.83
-9111.39
-9111.99
-9112.62
-9113.29
-9113.97
-9114.67
-9115.37
-9116.07
-9116.76
-9117.42
-9118.06
-9118.65
-9119.19
-9119.68
-9120.09
-9120.44
-9120.7
-9120.87
-9120.96
-9120.95
-9120.85
-9120.66
-9120.37
-9120
-9119.54
-9119.02
-9118.43
-9117.78
-9117.1
-9116.39
-9115.67
-9114.96
-9114.27
-9113.62
-9113.02
-9112.5
-9112.05
-9111.71
-9111.46
-9111.33
-9111.32
-9111.43
-9111.65
-9111.98
-9112.41
-9112.93
-9113.52
-9114.16
-9114.83
-9115.52
-9116.18
-9116.81
-9117.38
-9117.86
-9118.25
-9118.52
-9118.66
-9118.68
-9118.57
-9118.34
-9117.99
-9117.56
-9117.05
-9116.49
-9115.92
-9115.35
-9114.83
-9114.37
-9114
-9113.74
-9113.59
-9113.58
-9113.68
-9113.9
-9114.22
-9114.61
-9115.05
-9115.5
-9115.93
-9116.31
-9116.61
-9116.82
-9116.91
-9116.9
-9116.77
-9116.55
-9116.27
-9115.94
-9115.6
-9115.29
-9115.02
-9114.81
-9114.68
-9114.64
-9114.68
-9114.79
-9114.96
-9115.17
-9115.39
-9115.6
-9115.8
-9115.95
-9116.07
-9116.13
-9116.14
-9116.1
-9116.03
-9115.92
-9115.8
-9115.68
-9115.56
-9115.45
-9115.37
-9115.31
-9115.28
-9115.29
-9115.31
-9115.36
-9115.42
-9115.5
-9115.58
-9115.66
-9115.72
-9115.78
-9115.82
-9115.84
-9115.85
-9115.83
-9115.8
-9115.75
-9115.7
-9115.63
-9115.57
-9115.5
-9115.45
-9115.4
-9115.36
-9115.35
-9272.13
-9272.14
-9272.14
-9272.15
-9272.16
-9272.18
-9272.18
-9272.2
-9302.95
-9302.84
-9302.73
-9302.55
-9302.31
-9302.01
-9301.68
-9301.31
-9300.92
-9300.5
-9300.06
-9299.62
-9299.17
-9298.73
-9298.29
-9297.87
-9297.47
-9297.1
-9296.76
-9296.46
-9296.2
-9295.99
-9295.82
-9295.71
-9295.66
-9295.67
-9295.74
-9295.87
-9296.07
-9296.33
-9296.65
-9297.04
-9297.49
-9298
-9298.56
-9299.16
-9299.81
-9300.5
-9301.22
-9301.96
-9302.72
-9303.48
-9304.23
-9304.97
-9305.69
-9306.37
-9307.01
-9307.59
-9308.11
-9308.56
-9308.93
-9309.21
-9309.39
-9309.48
-9309.47
-9309.36
-9309.14
-9308.83
-9308.42
-9307.93
-9307.36
-9306.72
-9306.02
-9305.28
-9304.52
-9303.74
-9302.97
-9302.23
-9301.53
-9300.88
-9300.32
-9299.84
-9299.47
-9299.22
-9299.08
-9299.07
-9299.19
-9299.44
-9299.8
-9300.27
-9300.83
-9301.47
-9302.17
-9302.9
-9303.63
-9304.35
-9305.03
-9305.64
-9306.16
-9306.57
-9306.85
-9307.01
-9307.02
-9306.9
-9306.64
-9306.26
-9305.78
-9305.23
-9304.63
-9304.01
-9303.4
-9302.83
-9302.34
-9301.94
-9301.66
-9301.51
-9301.5
-9301.62
-9301.87
-9302.21
-9302.64
-9303.11
-9303.6
-9304.07
-9304.48
-9304.8
-9305.02
-9305.12
-9305.1
-9304.96
-9304.72
-9304.41
-9304.05
-9303.69
-9303.35
-9303.06
-9302.84
-9302.7
-9302.66
-9302.71
-9302.83
-9303.02
-9303.24
-9303.47
-9303.71
-9303.91
-9304.08
-9304.19
-9304.26
-9304.26
-9304.22
-9304.14
-9304.03
-9303.9
-9303.77
-9303.64
-9303.53
-9303.44
-9303.39
-9303.36
-9303.36
-9303.39
-9303.44
-9303.51
-9303.59
-9303.67
-9303.75
-9303.82
-9303.88
-9303.92
-9303.95
-9303.95
-9303.94
-9303.9
-9303.85
-9303.79
-9303.73
-9303.66
-9303.59
-9303.53
-9303.48
-9303.45
-9303.43
-9435.89
-9435.89
-9435.9
-9435.91
-9435.91
-9435.92
-9435.92
-9435.93
-9469.28
-9469.16
-9469.04
-9468.87
-9468.62
-9468.32
-9467.99
-9467.61
-9467.2
-9466.76
-9466.31