#           v             n
     0.523599   8.35844e-05
     0.648652   2.70296e-05
     0.790112   3.77145e-05
     0.953116   5.52923e-05
      1.13449   8.08164e-05
      1.34047   0.000123183
      1.56672   0.000185797
      1.82069   0.000289466
      2.09677   0.000441859
      2.40376   0.000688606
      2.73462    0.00103821
      3.09966    0.00157548
      3.49026    0.00227594
      3.91837    0.00325126
      4.37366    0.00433029
      4.86986    0.00557719
       5.3948    0.00651637
      5.96412    0.00715381
      6.56366    0.00686794
      7.21112    0.00595995
      7.89023    0.00427467
      8.62085    0.00256948
      9.38447    0.00108263
      10.2033   0.000261904
      11.0564             0
      11.9684             0
      12.9159             0
      13.9262             0
      14.9731             0
