# vtk DataFile Version 2.0
sampleSurface
ASCII
DATASET POLYDATA
POINTS 4 float
-0.5 -0.5 0 0.5 -0.5 0 0.5 0.5 0 -0.5 0.5
0 
POLYGONS 1 5
4 0 1 2 3 
POINT_DATA 4
FIELD attributes 2
p 1 4 float
100000 100000 100000 100000 
U 3 4 float
4 0 0 4 0 0 4 0 0 4 0
0 
