/*--------------------------------*- C++ -*----------------------------------*\
  =========                 |
  \\      /  F ield         | OpenFOAM: The Open Source CFD Toolbox
   \\    /   O peration     | Website:  https://openfoam.org
    \\  /    A nd           | Version:  12
     \\/     M anipulation  |
\*---------------------------------------------------------------------------*/
FoamFile
{
    format      ascii;
    class       volScalarField;
    location    "16.12";
    object      p_rgh;
}
// * * * * * * * * * * * * * * * * * * * * * * * * * * * * * * * * * * * * * //

dimensions      [1 -1 -2 0 0 0 0];

internalField   nonuniform List<scalar> 
3829
(
-4.06697
-4.06561
-4.06291
-4.05871
-4.05287
-4.04514
-4.03499
-4.02301
-4.00959
-3.99449
-3.97752
-3.95877
-3.93763
-3.91418
-3.88826
-3.85975
-3.8285
-3.79439
-3.7573
-3.71713
-3.67378
-3.62716
-3.57719
-3.52383
-3.46705
-3.40684
-3.3432
-3.27619
-3.20588
-3.13242
-3.05608
-2.97593
-2.89246
-2.80603
-2.71695
-2.62555
-2.53218
-2.43718
-2.34087
-2.24361
-2.14571
-2.0474
-1.94929
-1.85162
-1.75478
-1.65919
-1.56523
-1.47332
-1.38386
-1.29725
-1.21387
-1.13409
-1.05826
-0.986699
-0.919708
-0.857557
-0.800474
-0.75025
-0.705878
-0.667362
-0.634679
-0.607773
-0.586542
-0.570845
-0.560498
-0.555269
-0.554864
-0.558869
-0.566908
-0.578481
-0.592828
-0.609312
-0.627289
-0.646057
-0.664883
-0.682993
-0.699605
-0.71394
-0.725234
-0.732756
-0.735832
-0.733858
-0.726329
-0.712917
-0.69254
-0.665252
-0.631171
-0.590528
-0.543646
-0.490961
-0.433034
-0.370605
-0.304599
-0.236083
-0.166267
-0.0965081
-0.0282033
0.037162
0.0981054
0.153166
0.200941
0.240173
0.269773
0.288878
0.296972
0.290916
0.27285
0.243383
0.20328
0.153533
0.0954958
0.0309026
-0.0381857
-0.109476
-0.180361
-0.248274
-0.310608
-0.364827
-0.408616
-0.440034
-0.457587
-0.460382
-0.44628
-0.416828
-0.373343
-0.317506
-0.251565
-0.178477
-0.101652
-0.0248348
0.0477447
0.112405
0.165531
0.204049
0.225679
0.229173
0.212889
0.178596
0.128375
0.0651398
-0.00722987
-0.0847955
-0.15987
-0.227993
-0.284341
-0.324796
-0.346341
-0.3447
-0.322086
-0.280719
-0.223911
-0.15552
-0.0828382
-0.012334
0.0495576
0.0966768
0.124186
0.129082
0.109621
0.068358
0.00917782
-0.0619
-0.137792
-0.208965
-0.267941
-0.307752
-0.323567
-0.313384
-0.278253
-0.222486
-0.152788
-0.0758772
-0.006073
0.0501536
0.0859796
0.0977517
0.0839953
0.0497705
0.00151144
-0.0524151
-0.102121
-0.13933
-0.15836
-0.156901
-0.136521
-0.103163
-0.0649934
-0.0195434
0.00378635
0.0115706
0.00176112
-0.0227523
-0.0579156
-0.0959185
-0.127789
-0.148974
-0.157977
-0.156432
-0.150294
-0.145265
-4.1412
-4.14015
-4.13796
-4.13465
-4.13028
-4.12499
-4.11926
-4.11229
-4.10349
-4.093
-4.08083
-4.06698
-4.05154
-4.03424
-4.01347
-3.98918
-3.96128
-3.92964
-3.89414
-3.85465
-3.81102
-3.76316
-3.71095
-3.65431
-3.59317
-3.52747
-3.45719
-3.3823
-3.30279
-3.21866
-3.1297
-3.03908
-2.94602
-2.85027
-2.75177
-2.65062
-2.54704
-2.44135
-2.3339
-2.22515
-2.11557
-2.00566
-1.89594
-1.78692
-1.67909
-1.57298
-1.46909
-1.36791
-1.26994
-1.17564
-1.08551
-0.99997
-0.919449
-0.844356
-0.77506
-0.711721
-0.654578
-0.604596
-0.562116
-0.52687
-0.498676
-0.477381
-0.462818
-0.454795
-0.453053
-0.457281
-0.467056
-0.481856
-0.501095
-0.528201
-0.554598
-0.583509
-0.614056
-0.645337
-0.676409
-0.706294
-0.734018
-0.758615
-0.779133
-0.794673
-0.80441
-0.807603
-0.803618
-0.791831
-0.771434
-0.742461
-0.704975
-0.659187
-0.605426
-0.544206
-0.476264
-0.402555
-0.324249
-0.242682
-0.159362
-0.075987
0.00571376
0.0838952
0.15671
0.222346
0.279052
0.325246
0.359519
0.380775
0.388164
0.380198
0.357642
0.321061
0.271304
0.209628
0.13778
0.0579614
-0.0272707
-0.115114
-0.202279
-0.285635
-0.361969
-0.42815
-0.481362
-0.5192
-0.539782
-0.541817
-0.524129
-0.487764
-0.434039
-0.365033
-0.283663
-0.193575
-0.0989901
-0.0047461
0.0841086
0.162993
0.227442
0.273687
0.298968
0.30147
0.280403
0.237339
0.17477
0.0964117
0.00701999
-0.092029
-0.183943
-0.266929
-0.335155
-0.383506
-0.40811
-0.405101
-0.376348
-0.324185
-0.252862
-0.167743
-0.0771745
0.0102911
0.0867781
0.14469
0.17813
0.183419
0.159288
0.108196
0.0350162
-0.0527554
-0.146742
-0.234038
-0.305989
-0.354195
-0.372848
-0.359388
-0.315798
-0.247316
-0.161988
-0.0674607
0.0164977
0.0827236
0.123387
0.134238
0.115046
0.070729
0.00975668
-0.0574129
-0.118177
-0.162931
-0.184486
-0.180222
-0.152876
-0.10932
-0.0589853
-0.0100241
0.020772
0.0306906
0.0184187
-0.0119213
-0.0546592
-0.100896
-0.137459
-0.159858
-0.166828
-0.161063
-0.150423
-0.142505
-4.40171
-4.40221
-4.40323
-4.40466
-4.40625
-4.40765
-4.40831
-4.40762
-4.40484
-4.39908
-4.38992
-4.37856
-4.36415
-4.34626
-4.326
-4.30286
-4.27593
-4.24491
-4.20934
-4.16879
-4.12294
-4.07147
-4.01415
-3.95081
-3.88136
-3.80579
-3.72418
-3.6367
-3.54362
-3.44528
-3.34232
-3.23369
-3.11772
-2.99614
-2.87027
-2.74122
-2.60992
-2.47701
-2.34299
-2.20834
-2.07361
-1.93936
-1.80619
-1.67469
-1.54549
-1.41922
-1.29648
-1.17791
-1.0641
-0.955612
-0.853028
-0.756924
-0.667824
-0.586153
-0.51238
-0.447139
-0.390977
-0.343845
-0.305347
-0.275726
-0.255134
-0.243584
-0.240988
-0.247127
-0.2616
-0.283891
-0.313402
-0.349449
-0.391252
-0.438061
-0.488497
-0.541585
-0.596187
-0.651126
-0.70517
-0.757013
-0.805353
-0.848899
-0.886394
-0.916617
-0.93847
-0.950948
-0.953136
-0.944266
-0.923492
-0.890881
-0.846469
-0.790471
-0.723309
-0.645692
-0.558668
-0.463566
-0.36199
-0.255785
-0.147013
-0.038004
0.0688928
0.171158
0.266281
0.351786
0.425293
0.484625
0.527895
0.553625
0.560491
0.548079
0.516354
0.465811
0.397516
0.313236
0.215371
0.106945
-0.00856204
-0.127388
-0.24496
-0.357122
-0.459531
-0.547989
-0.618619
-0.668211
-0.694293
-0.695246
-0.670307
-0.620329
-0.546865
-0.452811
-0.342264
-0.220263
-0.0924146
0.0343655
0.153603
0.258911
0.344316
0.404777
0.43646
0.436928
0.406265
0.346043
0.25974
0.153244
0.0343494
-0.109664
-0.230598
-0.340952
-0.431361
-0.494441
-0.524886
-0.518802
-0.477851
-0.404987
-0.306276
-0.189299
-0.0652021
0.0538816
0.157528
0.235493
0.279756
0.285541
0.251968
0.182035
0.0826243
-0.0363035
-0.164915
-0.281951
-0.377614
-0.441166
-0.464921
-0.444551
-0.384593
-0.292745
-0.180218
-0.0475996
0.0603813
0.144343
0.193747
0.202767
0.172457
0.108782
0.0237755
-0.068256
-0.149711
-0.208155
-0.233987
-0.224265
-0.183438
-0.121245
-0.0508162
0.0126668
0.054257
0.0668708
0.0492409
0.00756815
-0.0492641
-0.11174
-0.156557
-0.180688
-0.183393
-0.168955
-0.149367
-0.135766
-4.52578
-4.52738
-4.53057
-4.53533
-4.54162
-4.54945
-4.55884
-4.56979
-4.58226
-4.59631
-4.61131
-4.62486
-4.63838
-4.64681
-4.64987
-4.64701
-4.63762
-4.62105
-4.5967
-4.56397
-4.52238
-4.47149
-4.41097
-4.34058
-4.26021
-4.1697
-4.0694
-3.9596
-3.8405
-3.71235
-3.57536
-3.42905
-3.28087
-3.1292
-2.97366
-2.81428
-2.65145
-2.48596
-2.31875
-2.14987
-1.98214
-1.81554
-1.65097
-1.4893
-1.33137
-1.17804
-1.03012
-0.888391
-0.753605
-0.626512
-0.507797
-0.398062
-0.297916
-0.207766
-0.127902
-0.0582952
0.00120709
0.041936
0.0709228
0.0884839
0.0945618
0.089124
0.0722631
0.0442393
0.00550439
-0.0433158
-0.101424
-0.167874
-0.241559
-0.32124
-0.405697
-0.493112
-0.582016
-0.670779
-0.75768
-0.840906
-0.918667
-0.989204
-1.05079
-1.10178
-1.14063
-1.16592
-1.17649
-1.1713
-1.14962
-1.11135
-1.05641
-0.98507
-0.897937
-0.796056
-0.680927
-0.554416
-0.418774
-0.27656
-0.130632
0.0157415
0.159328
0.296641
0.424217
0.538619
0.636548
0.715046
0.771575
0.803857
0.810642
0.79135
0.745714
0.674344
0.578746
0.461424
0.325715
0.175742
0.0162963
-0.147397
-0.308938
-0.462687
-0.602605
-0.72298
-0.818671
-0.885184
-0.919075
-0.917999
-0.882126
-0.811785
-0.709204
-0.578492
-0.425378
-0.256928
-0.0808269
0.0931777
0.256283
0.399679
0.515147
0.595659
0.63606
0.633447
0.588008
0.501625
0.379241
0.228608
0.0589693
-0.125183
-0.296019
-0.448754
-0.572175
-0.656619
-0.695193
-0.684256
-0.624878
-0.521316
-0.382394
-0.218966
-0.0460262
0.118911
0.261708
0.368337
0.427855
0.433745
0.385714
0.287899
0.150724
-0.0112443
-0.195493
-0.352923
-0.481653
-0.566695
-0.598238
-0.566034
-0.481328
-0.355459
-0.206341
-0.0146896
0.124852
0.234037
0.29575
0.301839
0.254425
0.162162
0.0419485
-0.0863074
-0.197642
-0.275344
-0.306661
-0.288354
-0.227231
-0.137759
-0.0385268
0.0478654
0.104144
0.119566
0.0931671
0.0344586
-0.042332
-0.130128
-0.18572
-0.21142
-0.20712
-0.179079
-0.145773
-0.123478
-4.7078
-4.71529
-4.73043
-4.75316
-4.78304
-4.81917
-4.8604
-4.90542
-4.95275
-5.00061
-5.04666
-5.09124
-5.13004
-5.16598
-5.19671
-5.22016
-5.23452
-5.23814
-5.22948
-5.20718
-5.17031
-5.11811
-5.05005
-4.96594
-4.86588
-4.75026
-4.61986
-4.47569
-4.31914
-4.15185
-3.97617
-3.78707
-3.58564
-3.37682
-3.16374
-2.94797
-2.7305
-2.51238
-2.29462
-2.07819
-1.86413
-1.65344
-1.44708
-1.24598
-1.05117
-0.863569
-0.684063
-0.513634
-0.353239
-0.203768
-0.0660874
0.0589264
0.170482
0.267628
0.349454
0.414847
0.46253
0.504144
0.529403
0.537727
0.529229
0.504291
0.463497
0.407609
0.337499
0.254167
0.158788
0.0527047
-0.0625392
-0.185212
-0.314024
-0.445898
-0.579179
-0.711629
-0.840897
-0.964545
-1.08016
-1.18535
-1.27776
-1.35513
-1.41544
-1.45682
-1.47766
-1.47669
-1.45313
-1.40663
-1.33708
-1.24485
-1.13086
-0.996617
-0.844155
-0.67606
-0.495418
-0.305728
-0.110866
0.084633
0.276402
0.459687
0.629763
0.781975
0.911877
1.01552
1.08928
1.13025
1.13629
1.10784
1.04373
0.944815
0.813243
0.652505
0.467174
0.262858
0.0460107
-0.176682
-0.395553
-0.60333
-0.792047
-0.953863
-1.08171
-1.16974
-1.21338
-1.20975
-1.15887
-1.06118
-0.919859
-0.740777
-0.531706
-0.302118
-0.0628439
0.172936
0.393309
0.586173
0.740349
0.84668
0.898224
0.890699
0.824946
0.703503
0.533555
0.325698
0.0927633
-0.153668
-0.386197
-0.593234
-0.759317
-0.871178
-0.919772
-0.901555
-0.816946
-0.672353
-0.480101
-0.25553
-0.0184274
0.20638
0.400034
0.543451
0.622275
0.627582
0.559497
0.424147
0.236522
0.0175165
-0.235925
-0.445924
-0.617396
-0.729367
-0.773075
-0.721283
-0.6033
-0.430279
-0.223599
0.0173752
0.207465
0.351381
0.428963
0.430716
0.359921
0.229595
0.0629352
-0.113288
-0.263318
-0.365245
-0.402622
-0.372022
-0.283437
-0.157776
-0.0207301
0.0960412
0.170803
0.188694
0.149444
0.0674082
-0.0345236
-0.157866
-0.225548
-0.252208
-0.237549
-0.19053
-0.13835
-0.104083
-4.49599
-4.51183
-4.54373
-4.59152
-4.65493
-4.73334
-4.82598
-4.93118
-5.04692
-5.1703
-5.29878
-5.42619
-5.54717
-5.65908
-5.75918
-5.84466
-5.91289
-5.9613
-5.98775
-5.99038
-5.96773
-5.91872
-5.84252
-5.7394
-5.60976
-5.45433
-5.27478
-5.0728
-4.85096
-4.61091
-4.35298
-4.09738
-3.83764
-3.57265
-3.30259
-3.02902
-2.75392
-2.479
-2.20581
-1.93581
-1.67033
-1.41061
-1.15793
-0.913234
-0.677692
-0.452356
-0.238312
-0.0366138
0.151715
0.325643
0.484071
0.626139
0.750885
0.857615
0.945572
1.01423
1.06344
1.09185
1.09984
1.0876
1.05505
1.00234
0.929878
0.838426
0.72898
0.6028
0.461385
0.306481
0.140117
-0.0354355
-0.217795
-0.404171
-0.591725
-0.77749
-0.958403
-1.13121
-1.29275
-1.43985
-1.56938
-1.67841
-1.76432
-1.82473
-1.85743
-1.86075
-1.83416
-1.77677
-1.68845
-1.56976
-1.422
-1.24723
-1.0482
-0.828354
-0.591831
-0.343323
-0.0880142
0.168223
0.419464
0.659429
0.881856
1.08063
1.24989
1.3843
1.47907
1.53076
1.53616
1.49576
1.40828
1.27494
1.09876
0.884376
0.637899
0.366769
0.0794203
-0.216466
-0.505518
-0.779377
-1.02747
-1.23974
-1.40686
-1.52106
-1.57628
-1.56865
-1.49845
-1.36639
-1.17701
-0.93801
-0.659679
-0.354786
-0.0371274
0.274589
0.565124
0.818372
1.01984
1.15718
1.22117
1.20727
1.11562
0.95035
0.721124
0.442312
0.13145
-0.193605
-0.501805
-0.775229
-0.993088
-1.13809
-1.19809
-1.16983
-1.05298
-0.856909
-0.598307
-0.297618
0.0185375
0.316919
0.572744
0.760946
0.862322
0.866058
0.772016
0.589142
0.337322
0.0424336
-0.280661
-0.560298
-0.78426
-0.925016
-0.961636
-0.905655
-0.749422
-0.518379
-0.24236
0.0610382
0.31113
0.496869
0.592979
0.588342
0.48766
0.309817
0.085624
-0.150528
-0.347611
-0.478104
-0.521524
-0.474541
-0.351115
-0.18021
0.00359001
0.157722
0.254273
0.27389
0.217202
0.104625
-0.0280932
-0.194746
-0.275971
-0.303052
-0.270965
-0.202549
-0.126129
-0.0763595
-4.07726
-4.11033
-4.17706
-4.27712
-4.40959
-4.57236
-4.76353
-4.97886
-5.21406
-5.46138
-5.71597
-5.96774
-6.21233
-6.44235
-6.65146
-6.83388
-6.98469
-7.0997
-7.1755
-7.20939
-7.19949
-7.14429
-7.04357
-6.89777
-6.70895
-6.47993
-6.21575
-5.92197
-5.60737
-5.27857
-4.93521
-4.57539
-4.2109
-3.84522
-3.48109
-3.12058
-2.76523
-2.41622
-2.07453
-1.74101
-1.41658
-1.10221
-0.798766
-0.506931
-0.22773
0.0379423
0.288899
0.523898
0.741777
0.941398
1.12163
1.28123
1.41921
1.53444
1.62603
1.6932
1.73512
1.75316
1.74587
1.71248
1.65313
1.56831
1.45877
1.32552
1.16984
0.99335
0.797953
0.585906
0.359816
0.122572
-0.122819
-0.372725
-0.623485
-0.871309
-1.11227
-1.3422
-1.55698
-1.75261
-1.92518
-2.07085
-2.18614
-2.26805
-2.31392
-2.32163
-2.29039
-2.21918
-2.10779
-1.95708
-1.76881
-1.54567
-1.29122
-1.00992
-0.707172
-0.38902
-0.0620222
0.265905
0.587281
0.894016
1.17807
1.43156
1.64696
1.81732
1.93671
2.00034
2.00506
1.95019
1.83472
1.66049
1.43147
1.15371
0.835172
0.485633
0.116344
-0.268362
-0.638702
-0.989675
-1.30728
-1.57827
-1.79087
-1.93506
-2.00319
-1.99054
-1.89701
-1.72392
-1.47742
-1.16747
-0.807424
-0.413562
-0.00310173
0.39807
0.770829
1.09474
1.35113
1.52418
1.60276
1.58
1.45683
1.239
0.939278
0.576593
0.1734
-0.245437
-0.642586
-0.993827
-1.27212
-1.45541
-1.52815
-1.48654
-1.33041
-1.07255
-0.734824
-0.343974
0.0654429
0.450479
0.779127
1.0191
1.14595
1.14679
1.02097
0.781114
0.453034
0.0700612
-0.338115
-0.697793
-0.983316
-1.15996
-1.20462
-1.12481
-0.919535
-0.619221
-0.262484
0.117673
0.436348
0.669862
0.786442
0.772746
0.635697
0.401385
0.109456
-0.199417
-0.450679
-0.61331
-0.662369
-0.594627
-0.429051
-0.204087
0.0349609
0.232937
0.354305
0.374473
0.295498
0.144154
-0.0349127
-0.230447
-0.336337
-0.364658
-0.313509
-0.215437
-0.108573
-0.0396024
-2.86825
-2.9299
-3.0545
-3.24293
-3.49586
-3.81133
-4.18939
-4.62212
-5.10951
-5.61703
-6.1201
-6.59968
-7.04649
-7.45256
-7.81218
-8.12098
-8.37549
-8.5723
-8.70783
-8.77832
-8.78092
-8.71315
-8.57294
-8.35859
-8.07231
-7.71681
-7.30086
-6.83184
-6.35048
-5.86192
-5.38254
-4.90916
-4.44208
-3.983
-3.53315
-3.09324
-2.664
-2.24611
-1.84017
-1.4468
-1.06672
-0.700938
-0.352123
-0.0155534
0.305926
0.610887
0.897955
1.16578
1.41298
1.63815
1.83997
2.01694
2.16774
2.2912
2.38618
2.45179
2.48723
2.49064
2.46301
2.40398
2.31354
2.1921
2.04046
1.85984
1.65184
1.41842
1.162
0.885359
0.591741
0.284789
-0.0316636
-0.353177
-0.675176
-0.992915
-1.30143
-1.59556
-1.87015
-2.12026
-2.34079
-2.52719
-2.67511
-2.78068
-2.8407
-2.85255
-2.81532
-2.72754
-2.58913
-2.40127
-2.16625
-1.8875
-1.56949
-1.21786
-0.839396
-0.441716
-0.0330455
0.37652
0.777703
1.16035
1.51438
1.82992
2.09744
2.30842
2.45556
2.53263
2.53585
2.46413
2.31646
2.09535
1.80593
1.45582
1.055
0.61594
0.153092
-0.329735
-0.792734
-1.23121
-1.62753
-1.96493
-2.22853
-2.40606
-2.4882
-2.4694
-2.34849
-2.12823
-1.81637
-1.42562
-0.972395
-0.477145
0.0396319
0.542362
1.00818
1.41177
1.72976
1.94278
2.03668
2.0033
1.84338
1.56492
1.18448
0.725649
0.216997
-0.308918
-0.807205
-1.24649
-1.59291
-1.819
-1.90561
-1.84717
-1.64503
-1.31568
-0.887083
-0.393387
0.122322
0.605597
1.01651
1.31456
1.46963
1.4658
1.30265
0.997058
0.581757
0.0990572
-0.407814
-0.857347
-1.21223
-1.42957
-1.4829
-1.37382
-1.11074
-0.730664
-0.282312
0.186341
0.581803
0.86831
1.0066
0.980951
0.801319
0.502443
0.134644
-0.261166
-0.571652
-0.76912
-0.82319
-0.730431
-0.51573
-0.228562
0.0736067
0.321133
0.469848
0.489362
0.383404
0.186403
-0.0463648
-0.274139
-0.40764
-0.436737
-0.363977
-0.228755
-0.0854074
0.00635938
-0.927469
-1.02961
-1.23646
-1.54974
-1.97044
-2.49764
-3.12782
-3.85218
-4.68438
-5.53067
-6.3691
-7.17977
-7.94501
-8.64902
-9.27796
-9.81951
-10.2635
-10.602
-10.8301
-10.9456
-10.947
-10.8336
-10.607
-10.2694
-9.82521
-9.27964
-8.64356
-7.92654
-7.2286
-6.53913
-5.87222
-5.23373
-4.62551
-4.04701
-3.49605
-2.9701
-2.46653
-1.98312
-1.51805
-1.07015
-0.638759
-0.224088
0.151691
0.534459
0.897977
1.24152
1.56406
1.86431
2.14071
2.39162
2.61521
2.80982
2.97374
3.10525
3.20281
3.26501
3.29062
3.28033
3.23201
3.14564
3.02144
2.86002
2.66235
2.42991
2.16463
1.8689
1.54565
1.19828
0.830745
0.447502
0.0532347
-0.346706
-0.74669
-1.1409
-1.5233
-1.8875
-2.22736
-2.53665
-2.80945
-3.03994
-3.22304
-3.35393
-3.42878
-3.44456
-3.39981
-3.29293
-3.12398
-2.89449
-2.60726
-2.26653
-1.87788
-1.44822
-0.985875
-0.500206
-0.00124076
0.49852
0.987797
1.45416
1.88527
2.26903
2.59379
2.84927
3.02655
3.11839
3.11963
3.02869
2.84502
2.57185
2.21544
1.78511
1.29317
0.754668
0.186716
-0.397888
-0.964857
-1.50019
-1.98299
-2.39316
-2.71268
-2.92655
-3.02346
-2.99657
-2.8449
-2.57196
-2.18772
-1.70759
-1.15184
-0.544217
0.0908195
0.705678
1.2735
1.76418
2.14956
2.40586
2.5154
2.46975
2.26854
1.9225
1.45193
0.886159
0.261001
-0.383305
-0.993217
-1.52925
-1.95024
-2.22274
-2.32371
-2.24536
-1.99124
-1.58195
-1.05223
-0.444393
0.188693
0.780177
1.28125
1.6426
1.82785
1.8176
1.61213
1.23294
0.720844
0.128124
-0.488501
-1.03657
-1.46711
-1.72832
-1.78922
-1.6473
-1.31922
-0.850411
-0.300838
0.266107
0.745342
1.089
1.24964
1.20916
0.981184
0.610586
0.162246
-0.337032
-0.708414
-0.942816
-1.00124
-0.879553
-0.609412
-0.252791
0.119135
0.42114
0.599126
0.616702
0.479565
0.231193
-0.0589088
-0.329118
-0.489734
-0.518208
-0.419448
-0.241881
-0.0566927
0.0611445
2.13938
1.97999
1.65491
1.15119
0.443082
-0.481785
-1.71435
-3.15566
-5.4385
-7.04433
-8.48116
-9.70921
-10.758
-11.6444
-12.3855
-12.9921
-13.472
-13.8295
-14.0654
-14.1776
-14.1599
-14.0014
-13.692
-13.213
-12.5449
-11.667
-10.6054
-8.89418
-7.81431
-6.81849
-5.96543
-5.20116
-4.50812
-3.86371
-3.25732
-2.68222
-2.13403
-1.60901
-1.10403
-0.617031
-0.146082
0.285992
0.721077
1.13882
1.53773
1.91613
2.27224
2.60407
2.90952
3.18629
3.43214
3.64478
3.82203
3.9618
4.06227
4.12193
4.13991
4.11193
4.04046
3.92465
3.76443
3.56038
3.3136
3.02584
2.69938
2.33709
1.94244
1.51948
1.07297
0.608177
0.130736
-0.352987
-0.836213
-1.312
-1.77319
-2.21218
-2.62145
-2.99376
-3.32195
-3.59915
-3.8193
-3.97677
-4.06692
-4.0862
-4.03263
-3.90452
-3.70207
-3.4272
-3.08329
-2.67541
-2.21034
-1.6964
-1.14355
-0.563035
0.0331269
0.629967
1.21397
1.77025
2.28405
2.74088
3.12697
3.43002
3.63925
3.74632
3.74516
3.63317
3.41054
3.08107
2.65234
2.13558
1.54556
0.900287
0.220034
-0.47554
-1.15317
-1.79217
-2.36744
-2.85523
-3.23414
-3.48628
-3.59824
-3.56229
-3.3769
-3.04681
-2.58433
-2.00803
-1.34296
-0.617165
0.153204
0.885761
1.56184
2.14551
2.60285
2.905
3.03117
2.97102
2.72458
2.30491
1.73653
1.05545
0.304271
-0.467535
-1.19733
-1.83715
-2.33772
-2.65916
-2.77448
-2.67371
-2.36256
-1.8663
-1.22702
-0.495741
0.263553
0.971276
1.56881
1.99742
2.21388
2.19562
1.94358
1.48437
0.867506
0.156205
-0.578738
-1.23223
-1.74329
-2.05046
-2.11754
-1.93976
-1.54077
-0.975778
-0.317373
0.355481
0.924046
1.32797
1.51121
1.45315
1.17158
0.722717
0.19425
-0.42846
-0.85768
-1.13106
-1.19322
-1.03919
-0.708257
-0.276091
0.170861
0.531236
0.739889
0.754152
0.582212
0.277655
-0.0738912
-0.393117
-0.581279
-0.607625
-0.478945
-0.254434
-0.0228297
0.123895
6.56109
6.36419
5.95223
5.29616
4.35756
3.08992
1.39534
-0.82404
-4.25383
-6.28626
-8.24699
-9.98015
-11.4955
-12.8017
-13.9085
-14.8213
-15.5454
-16.0833
-16.4379
-16.6078
-16.5898
-16.3784
-15.9666
-15.3441
-14.4946
-13.4172
-12.2066
-9.75884
-8.19493
-6.91206
-5.86044
-4.96885
-4.18929
-3.49424
-2.85868
-2.26668
-1.70368
-1.16263
-0.638161
-0.128503
0.3667
0.845522
1.31178
1.76263
2.19565
2.60837
2.99812
3.36209
3.69735
4.00102
4.27012
4.50179
4.69325
4.84188
4.94523
5.00103
5.00699
4.96539
4.87168
4.72599
4.52858
4.28026
3.98238
3.63696
3.24667
2.81487
2.34562
1.84368
1.31459
0.764566
0.200188
-0.371094
-0.941344
-1.50241
-2.04583
-2.56275
-3.04445
-3.48243
-3.8682
-4.19388
-4.45231
-4.63704
-4.74262
-4.76498
-4.70144
-4.55039
-4.31215
-3.98904
-3.58503
-3.10611
-2.56032
-1.95744
-1.30917
-0.628746
0.0696251
0.768626
1.45219
2.10289
2.70341
3.23687
3.68713
4.03984
4.28236
4.40492
4.40079
4.26646
4.00249
3.61352
3.10853
2.50079
1.80754
1.05003
0.252173
-0.560892
-1.35427
-2.10169
-2.77377
-3.34261
-3.78324
-4.07492
-4.20212
-4.15601
-3.93447
-3.54385
-2.99854
-2.32108
-1.54143
-0.694262
0.225054
1.07858
1.86733
2.54831
3.08088
3.43099
3.57423
3.49787
3.20296
2.7049
2.03314
1.23033
0.345988
-0.559992
-1.41574
-2.16438
-2.74805
-3.12012
-3.24947
-3.12412
-2.75196
-2.16328
-1.40795
-0.546488
0.345496
1.17523
1.87376
2.37229
2.62057
2.5928
2.29084
1.74643
1.01873
0.182787
-0.676759
-1.4406
-2.03549
-2.38982
-2.46185
-2.24561
-1.77118
-1.10439
-0.331396
0.452757
1.11452
1.58076
1.78646
1.7084
1.36883
0.834906
0.207386
-0.511155
-1.015
-1.33016
-1.39545
-1.20634
-0.810422
-0.297996
0.227865
0.649403
0.889533
0.899181
0.689469
0.324805
-0.0921324
-0.463825
-0.680444
-0.703321
-0.541519
-0.266198
0.0155196
0.193404
12.1391
12.0708
11.9355
11.7375
11.5024
11.2294
11.0872
10.741
-5.2466
-4.8291
-4.64683
-4.24986
-3.81457
-3.3287
-2.8183
-2.29211
-1.76011
-1.2241
-0.689049
-0.156838
0.369605
0.888766
1.39887
1.89797
2.38324
2.8517
3.30001
3.72468
4.12211
4.48863
4.82055
5.11425
5.36619
5.573
5.73151
5.83885
5.89251
5.89047
5.83144
5.71398
5.53749
5.30204
5.00848
4.6583
4.25386
3.79819
3.29516
2.74943
2.16647
1.55268
0.915211
0.261632
-0.399478
-1.05896
-1.70743
-2.33515
-2.93194
-3.48778
-3.99283
-4.43744
-4.81254
-5.10987
-5.32211
-5.44304
-5.46793
-5.39359
-5.21838
-4.94278
-4.56945
-4.10306
-3.55056
-2.92119
-2.22637
-1.47959
-0.696056
0.107847
0.912169
1.69827
2.44614
3.13591
3.74814
4.26429
4.66784
4.94439
5.08263
5.07491
4.91723
4.61038
4.15983
3.57598
2.87419
2.07445
1.20133
0.282707
-0.652146
-1.56441
-2.42315
-3.19452
-3.84642
-4.35019
-4.68208
-4.82443
-4.76702
-4.50769
-4.05412
-3.42274
-2.6406
-1.74292
-0.774954
0.30584
1.27919
2.18375
2.96502
3.57491
3.97413
4.13432
4.04072
3.69504
3.11544
2.33653
1.40746
0.385609
-0.658802
-1.64436
-2.50486
-3.17364
-3.5972
-3.74007
-3.58842
-3.15247
-2.46748
-1.59177
-0.595862
0.432907
1.38822
2.19042
2.76033
3.04061
3.00205
2.64759
2.01457
1.17196
0.207233
-0.780689
-1.65781
-2.33834
-2.74025
-2.81611
-2.55938
-2.00632
-1.23395
-0.3428
0.555965
1.31316
1.84271
2.0704
1.97043
1.56963
0.945993
0.212646
-0.594357
-1.17816
-1.53656
-1.6043
-1.37802
-0.914135
-0.318208
0.289034
0.773428
1.04528
1.04916
0.799433
0.371818
-0.113414
-0.539602
-0.785249
-0.803499
-0.606148
-0.277051
0.0575273
0.26824
17.4327
17.3956
17.3225
17.2165
17.0883
16.9313
16.8239
16.5542
-4.60561
-4.21879
-3.99223
-3.624
-3.21713
-2.77692
-2.30978
-1.81704
-1.30673
-0.780718
-0.245073
0.298173
0.843511
1.38877
1.92975
2.46289
2.98434
3.49003
3.97572
4.43708
4.86967
5.26903
5.63072
5.9504
6.22387
6.44714
6.61651
6.72863
6.78058
6.76993
6.69489
6.55409
6.34688
6.07331
5.73431
5.33156
4.8677
4.34619
3.77138
3.14853
2.48387
1.78462
1.05892
0.315333
-0.436409
-1.18591
-1.92253
-2.63524
-3.3125
-3.94294
-4.51547
-5.01919
-5.44384
-5.78013
-6.01976
-6.15571
-6.18264
-6.09691
-5.89681
-5.58294
-5.15833
-4.62837
-4.00101
-3.28672
-2.49852
-1.65185
-0.763917
0.147493
1.05825
1.94809
2.79426
3.57428
4.26611
4.84878
5.30356
5.61426
5.76808
5.75633
5.57473
5.22416
4.71095
4.04699
3.24976
2.34208
1.35191
0.311032
-0.747348
-1.77977
-2.7509
-3.62243
-4.35804
-4.92531
-5.29747
-5.45465
-5.38516
-5.08708
-4.56913
-3.85001
-2.96084
-1.94215
-0.847437
0.383292
1.48192
2.50511
3.38833
4.07652
4.52522
4.70228
4.59044
4.19257
3.5298
2.64163
1.58386
0.42286
-0.761989
-1.87906
-2.85263
-3.60715
-4.08223
-4.23797
-4.05885
-3.55735
-2.7739
-1.77547
-0.643261
0.524086
1.60648
2.51329
3.15491
3.46684
3.41645
3.00794
2.28431
1.32466
0.229343
-0.888485
-1.87997
-2.64661
-3.09582
-3.17451
-2.87595
-2.24244
-1.36238
-0.351581
0.663069
1.51642
2.10929
2.35824
2.23494
1.77093
1.05517
0.215225
-0.681427
-1.34496
-1.7468
-1.81625
-1.55138
-1.0178
-0.336492
0.353117
0.901056
1.2044
1.20152
0.910282
0.418034
-0.137269
-0.618871
-0.893694
-0.90635
-0.671781
-0.286932
0.102271
0.346872
22.2578
22.239
22.2019
22.1473
22.086
22.0099
21.9839
21.8677
-3.76755
-3.52617
-3.36575
-3.08237
-2.74088
-2.34535
-1.90929
-1.43445
-0.931869
-0.402986
0.143589
0.706585
1.27673
1.85154
2.4262
2.99596
3.55585
4.10086
4.62583
5.12557
5.59485
6.02841
6.4211
6.76786
7.06383
7.30444
7.48546
7.60304
7.65386
7.63512
7.54469
7.38111
7.14367
6.83245
6.44849
5.99365
5.47086
4.88399
4.23788
3.53842
2.79254
2.00834
1.19492
0.361827
-0.480033
-1.31903
-2.14325
-2.94038
-3.69751
-4.402
-5.04145
-5.60371
-6.07735
-6.45207
-6.7186
-6.86912
-6.89769
-6.80022
-6.57491
-6.22249
-5.74639
-5.15271
-4.45037
-3.65116
-2.76965
-1.82315
-0.830908
0.187614
1.20457
2.1978
3.14193
4.01182
4.78286
5.43166
5.93731
6.28181
6.45089
6.43481
6.22907
5.83464
5.2587
4.51463
3.62206
2.60665
1.49987
0.336648
-0.844601
-1.9967
-3.07969
-4.05078
-4.86949
-5.4997
-5.91161
-6.08308
-6.00111
-5.66396
-5.08124
-4.27414
-3.27718
-2.13584
-0.906439
0.451207
1.68309
2.82634
3.81157
4.57787
5.07571
5.26955
5.13861
4.68809
3.94181
2.9439
1.75719
0.457519
-0.867654
-2.1159
-3.20206
-4.0417
-4.56761
-4.73544
-4.52819
-3.96051
-3.07805
-1.95642
-0.688229
0.617328
1.82638
2.8372
3.5498
3.8926
3.82964
3.36647
2.55169
1.47459
0.249101
-0.998173
-2.10344
-2.95544
-3.45106
-3.53169
-3.1906
-2.47617
-1.48804
-0.357778
0.772084
1.72093
2.37629
2.64555
2.49804
1.97003
1.16143
0.215794
-0.771109
-1.51298
-1.95761
-2.02802
-1.72384
-1.12
-0.352813
0.418917
1.03013
1.3643
1.35385
1.02037
0.462901
-0.163108
-0.700117
-1.00386
-1.01015
-0.737406
-0.295829
0.148816
0.427774
26.6139
26.604
26.5851
26.5563
26.526
26.4888
26.4769
26.4228
-3.29806
-3.11728
-2.96702
-2.71969
-2.40607
-2.0321
-1.60948
-1.13904
-0.632568
-0.0911743
0.473679
1.06383
1.66278
2.27112
2.88263
3.49156
4.09201
4.67809
5.2438
5.78318
6.29022
6.75894
7.18344
7.558
7.87713
8.13568
8.32892
8.45254
8.5028
8.47657
8.37144
8.18582
7.91899
7.57104
7.14313
6.63732
6.05684
5.40593
4.68993
3.91532
3.08977
2.22222
1.32269
0.401752
-0.528555
-1.45537
-2.36553
-3.24544
-4.08087
-4.85788
-5.56285
-6.18236
-6.70385
-7.116
-7.40864
-7.57318
-7.60304
-7.49369
-7.24324
-6.85258
-6.32552
-5.66886
-4.89248
-4.00949
-3.03601
-1.99117
-0.896284
0.227708
1.34909
2.44399
3.48444
4.44262
5.29145
6.00514
6.56062
6.93815
7.12201
7.10143
6.87162
6.43383
5.79597
4.9729
3.98639
2.86492
1.64323
0.35976
-0.942285
-2.21197
-3.40481
-4.47358
-5.37373
-6.06552
-6.51619
-6.70132
-6.60667
-6.23071
-5.58386
-4.68981
-3.5861
-2.32308
-0.959535
0.516351
1.88103
3.14319
4.22897
5.07202
5.61803
5.82854
5.67784
5.17504
4.34608
3.23959
1.92556
0.489317
-0.97401
-2.35132
-3.54813
-4.47116
-5.04657
-5.22569
-4.99016
-4.35664
-3.37603
-2.13245
-0.730417
0.711015
2.04464
3.15755
3.93949
4.31208
4.23609
3.71841
2.81341
1.62
0.266383
-1.10793
-2.32496
-3.26048
-3.80111
-3.88291
-3.49926
-2.7046
-1.60954
-0.361589
0.881145
1.92369
2.63995
2.92846
2.75631
2.16455
1.26386
0.214365
-0.861607
-1.67985
-2.16607
-2.23674
-1.89313
-1.21954
-0.367251
0.485347
1.15868
1.52265
1.50406
1.12827
0.505982
-0.190309
-0.781949
-1.11399
-1.11334
-0.802129
-0.303763
0.196269
0.509511
30.4924
30.4869
30.4766
30.4604
30.4449
30.4245
30.42
30.3897
-3.03808
-2.88402
-2.73735
-2.50166
-2.19697
-1.82657
-1.40295
-0.924919
-0.404782
0.160526
0.751099
1.36827
2.00133
2.64671
3.29775
3.94788
4.59039
5.21862
5.82589
6.40554
6.95084
7.45512
7.91176
8.31439
8.65693
8.9337
9.13948
9.26955
9.31979
9.28669
9.16758
8.96082
8.66567
8.28226
7.81186
7.25674
6.62041
5.90746
5.12372
4.27626
3.37345
2.42504
1.44198
0.435804
-0.580318
-1.59234
-2.58585
-3.546
-4.45728
-5.30453
-6.0729
-6.74779
-7.31549
-7.7637
-8.08142
-8.25936
-8.29024
-8.16903
-7.89386
-7.46577
-6.88893
-6.17078
-5.32219
-4.35757
-3.29451
-2.154
-0.959365
0.267271
1.49009
2.68378
3.81777
4.86171
5.78606
6.56264
7.16639
7.57583
7.77389
7.74873
7.49523
7.01509
6.31688
5.41686
4.33888
3.11428
1.78063
0.380427
-1.03896
-2.42284
-3.72229
-4.88576
-5.86484
-6.61621
-7.10419
-7.30232
-7.19501
-6.78097
-6.0715
-5.09263
-3.88481
-2.50294
-1.01077
0.582038
2.07417
3.45207
4.63569
5.55314
6.14578
6.37296
6.20188
5.64794
4.73813
3.52561
2.0875
0.518038
-1.07943
-2.58223
-3.88651
-4.89033
-5.5134
-5.703
-5.43942
-4.74129
-3.66463
-2.30187
-0.769551
0.803686
2.25846
3.4704
4.31931
4.72037
4.63114
4.05989
3.06664
1.75961
0.281111
-1.21613
-2.54174
-3.55807
-4.14189
-4.22421
-3.79856
-2.92539
-1.72574
-0.363268
0.988601
2.1221
2.89712
3.20367
3.00689
2.35254
1.36167
0.211002
-0.951246
-1.84348
-2.36964
-2.43996
-2.05735
-1.31545
-0.379854
0.551347
1.28499
1.67749
1.65036
1.23281
0.546966
-0.218261
-0.863139
-1.22254
-1.21456
-0.865194
-0.310787
0.243811
0.5908
33.9398
33.9367
33.9315
33.9223
33.9153
33.9031
33.9044
33.8854
-2.90929
-2.76878
-2.62035
-2.38697
-2.08106
-1.70468
-1.27111
-0.778784
-0.240465
0.361007
0.978974
1.6269
2.29602
2.98057
3.67282
4.3653
5.05054
5.72126
6.37019
6.99007
7.57355
8.11324
8.60187
9.0324
9.3982
9.69313
9.91153
10.0483
10.0989
10.0596
9.92721
9.70033
9.37813
8.96079
8.44973
7.84739
7.15753
6.38509
5.53637
4.61901
3.64202
2.61596
1.5527
0.464655
-0.633887
-1.72773
-2.80126
-3.8384
-4.82243
-5.73701
-6.56614
-7.29405
-7.90592
-8.38853
-8.73014
-8.92082
-8.9525
-8.81954
-8.52037
-8.05606
-7.43115
-6.65358
-5.73536
-4.69209
-3.5427
-2.31008
-1.0196
0.305896
1.62614
2.91483
4.13872
5.26505
6.26194
7.09888
7.74887
8.18887
8.40042
8.37065
8.09418
7.57308
6.8167
5.84255
4.67651
3.35248
1.91112
0.398765
-1.13342
-2.62703
-4.02888
-5.28322
-6.33799
-7.14645
-7.66999
-7.88046
-7.76065
-7.30962
-6.53981
-5.47906
-4.17093
-2.67438
-1.05922
0.64677
2.26074
3.75003
5.02775
6.01653
6.65368
6.89768
6.70565
6.10236
5.11438
3.79958
2.24169
0.543761
-1.1825
-2.80611
-4.21367
-5.29495
-5.96346
-6.16275
-5.87166
-5.11092
-3.94133
-2.4634
-0.805403
0.894076
2.46551
3.77254
4.68547
5.11348
5.01103
4.38776
3.30921
1.89237
0.293394
-1.32135
-2.75149
-3.84522
-4.4701
-4.55238
-4.08581
-3.1367
-1.83599
-0.362906
1.09306
2.31407
3.14519
3.46856
3.24753
2.53244
1.45431
0.205818
-1.03862
-2.00211
-2.56627
-2.63571
-2.21502
-1.40699
-0.390811
0.616085
1.40762
1.82717
1.79132
1.33304
0.58563
-0.246403
-0.942645