/*--------------------------------*- C++ -*----------------------------------*\
  =========                 |
  \\      /  F ield         | OpenFOAM: The Open Source CFD Toolbox
   \\    /   O peration     | Website:  https://openfoam.org
    \\  /    A nd           | Version:  12
     \\/     M anipulation  |
\*---------------------------------------------------------------------------*/
FoamFile
{
    format      ascii;
    class       volVectorField;
    location    "16.12";
    object      zeta;
}
// * * * * * * * * * * * * * * * * * * * * * * * * * * * * * * * * * * * * * //

dimensions      [0 1 0 0 0 0 0];

internalField   uniform (0 0 0);

boundaryField
{
    freeSurface
    {
        type            calculated;
        value           nonuniform List<vector> 
181
(
(0 0.00441079 0)
(0 0.0044102 0)
(0 0.0044103 0)
(0 0.00441044 0)
(0 0.0044111 0)
(0 0.00441135 0)
(0 0.00441268 0)
(0 0.00441256 0)
(0 -0.000314305 0)
(0 -0.00029779 0)
(0 -0.000281032 0)
(0 -0.000256381 0)
(0 -0.000220132 0)
(0 -0.000173716 0)
(0 -0.000122807 0)
(0 -6.22894e-05 0)
(0 2.81407e-06 0)
(0 7.33906e-05 0)
(0 0.000148748 0)
(0 0.000227965 0)
(0 0.000310492 0)
(0 0.000395137 0)
(0 0.00048089 0)
(0 0.000566598 0)
(0 0.00065136 0)
(0 0.000734279 0)
(0 0.000814622 0)
(0 0.000891521 0)
(0 0.000964058 0)
(0 0.00103117 0)
(0 0.00109183 0)
(0 0.00114513 0)
(0 0.00119021 0)
(0 0.00122641 0)
(0 0.00125298 0)
(0 0.00126935 0)
(0 0.00127481 0)
(0 0.00126892 0)
(0 0.00125136 0)
(0 0.0012219 0)
(0 0.00118049 0)
(0 0.00112721 0)
(0 0.00106223 0)
(0 0.000985873 0)
(0 0.000898581 0)
(0 0.000800886 0)
(0 0.000693725 0)
(0 0.000577975 0)
(0 0.000454728 0)
(0 0.000325402 0)
(0 0.00019143 0)
(0 5.44485e-05 0)
(0 -8.38127e-05 0)
(0 -0.000221428 0)
(0 -0.000356361 0)
(0 -0.000486552 0)
(0 -0.00060997 0)
(0 -0.000724567 0)
(0 -0.00082836 0)
(0 -0.000919378 0)
(0 -0.000995714 0)
(0 -0.0010557 0)
(0 -0.00109803 0)
(0 -0.00112139 0)
(0 -0.0011247 0)
(0 -0.00110742 0)
(0 -0.00106917 0)
(0 -0.00101018 0)
(0 -0.000931041 0)
(0 -0.000832641 0)
(0 -0.000716629 0)
(0 -0.000585111 0)
(0 -0.000440197 0)
(0 -0.000284955 0)
(0 -0.000122531 0)
(0 4.3511e-05 0)
(0 0.000209453 0)
(0 0.000371254 0)
(0 0.000524689 0)
(0 0.000665793 0)
(0 0.000790559 0)
(0 0.00089505 0)
(0 0.000975958 0)
(0 0.00103051 0)
(0 0.00105621 0)
(0 0.00105155 0)
(0 0.00101599 0)
(0 0.000949688 0)
(0 0.000853926 0)
(0 0.000730871 0)
(0 0.000583736 0)
(0 0.000416948 0)
(0 0.00023551 0)
(0 4.55677e-05 0)
(0 -0.000146514 0)
(0 -0.00033381 0)
(0 -0.000509367 0)
(0 -0.000666113 0)
(0 -0.000797694 0)
(0 -0.000898225 0)
(0 -0.000962771 0)
(0 -0.000987921 0)
(0 -0.000971689 0)
(0 -0.000913762 0)
(0 -0.000816028 0)
(0 -0.00068157 0)
(0 -0.000516111 0)
(0 -0.00032676 0)
(0 -0.000122231 0)
(0 8.68125e-05 0)
(0 0.000290622 0)
(0 0.000478101 0)
(0 0.0006384 0)
(0 0.000761804 0)
(0 0.000840674 0)
(0 0.000869029 0)
(0 0.000844289 0)
(0 0.00076706 0)
(0 0.00064114 0)
(0 0.000474312 0)
(0 0.000276833 0)
(0 6.2376e-05 0)
(0 -0.000154243 0)
(0 -0.000358613 0)
(0 -0.00053504 0)
(0 -0.000669886 0)
(0 -0.000752343 0)
(0 -0.000775456 0)
(0 -0.000736779 0)
(0 -0.000638982 0)
(0 -0.000489789 0)
(0 -0.000302004 0)
(0 -9.22311e-05 0)
(0 0.000120534 0)
(0 0.000318331 0)
(0 0.000481851 0)
(0 0.00059512 0)
(0 0.00064708 0)
(0 0.000632145 0)
(0 0.000551719 0)
(0 0.00041429 0)
(0 0.000234453 0)
(0 3.25393e-05 0)
(0 -0.000168746 0)
(0 -0.000348238 0)
(0 -0.000484261 0)
(0 -0.000560794 0)
(0 -0.000568829 0)
(0 -0.00050794 0)
(0 -0.000386711 0)
(0 -0.000221562 0)
(0 -3.55499e-05 0)
(0 0.000145239 0)
(0 0.000297911 0)
(0 0.000400313 0)
(0 0.000438328 0)
(0 0.000407718 0)
(0 0.000315144 0)
(0 0.000177111 0)
(0 1.78868e-05 0)
(0 -0.000134151 0)
(0 -0.000255532 0)
(0 -0.000324917 0)
(0 -0.000331316 0)
(0 -0.000276012 0)
(0 -0.000172277 0)
(0 -4.27029e-05 0)
(0 8.42396e-05 0)
(0 0.000183331 0)
(0 0.00023453 0)
(0 0.000227773 0)
(0 0.000167729 0)
(0 7.16216e-05 0)
(0 -3.48544e-05 0)
(0 -0.000122289 0)
(0 -0.000169884 0)
(0 -0.00016563 0)
(0 -0.000113879 0)
(0 -3.39551e-05 0)
(0 4.53242e-05 0)
(0 9.47381e-05 0)
)
;
    }
    walls
    {
        type            calculated;
        value           uniform (0 0 0);
    }
    floatingObject
    {
        type            calculated;
        value           uniform (0 0 0);
    }
    frontAndBack
    {
        type            empty;
    }
}


// ************************************************************************* //
