/*--------------------------------*- C++ -*----------------------------------*\
  =========                 |
  \\      /  F ield         | OpenFOAM: The Open Source CFD Toolbox
   \\    /   O peration     | Website:  https://openfoam.org
    \\  /    A nd           | Version:  12
     \\/     M anipulation  |
\*---------------------------------------------------------------------------*/
FoamFile
{
    format      ascii;
    class       volVectorField;
    location    "3.54";
    object      zeta;
}
// * * * * * * * * * * * * * * * * * * * * * * * * * * * * * * * * * * * * * //

dimensions      [0 1 0 0 0 0 0];

internalField   uniform (0 0 0);

boundaryField
{
    freeSurface
    {
        type            calculated;
        value           nonuniform List<vector> 
181
(
(0 -0.00216354 0)
(0 -0.00216331 0)
(0 -0.00216296 0)
(0 -0.00216269 0)
(0 -0.00216206 0)
(0 -0.00216191 0)
(0 -0.00216143 0)
(0 -0.00216127 0)
(0 -0.000230399 0)
(0 -0.000232771 0)
(0 -0.000238408 0)
(0 -0.000245021 0)
(0 -0.000254415 0)
(0 -0.000265444 0)
(0 -0.00027788 0)
(0 -0.000291442 0)
(0 -0.000305768 0)
(0 -0.00032054 0)
(0 -0.000335387 0)
(0 -0.000349908 0)
(0 -0.000363722 0)
(0 -0.000376514 0)
(0 -0.000387969 0)
(0 -0.000397839 0)
(0 -0.000405904 0)
(0 -0.000411914 0)
(0 -0.000415706 0)
(0 -0.000417058 0)
(0 -0.000415821 0)
(0 -0.000411884 0)
(0 -0.000405174 0)
(0 -0.000395634 0)
(0 -0.000383251 0)
(0 -0.00036804 0)
(0 -0.000350064 0)
(0 -0.000329406 0)
(0 -0.000306189 0)
(0 -0.000280597 0)
(0 -0.000252813 0)
(0 -0.000223091 0)
(0 -0.0001917 0)
(0 -0.000158938 0)
(0 -0.000125149 0)
(0 -9.06891e-05 0)
(0 -5.59385e-05 0)
(0 -2.13027e-05 0)
(0 1.28019e-05 0)
(0 4.59461e-05 0)
(0 7.77513e-05 0)
(0 0.000107751 0)
(0 0.000135548 0)
(0 0.000160766 0)
(0 0.000183015 0)
(0 0.000201995 0)
(0 0.00021741 0)
(0 0.000229003 0)
(0 0.00023663 0)
(0 0.00024015 0)
(0 0.000239501 0)
(0 0.000234708 0)
(0 0.000225863 0)
(0 0.000213121 0)
(0 0.000196696 0)
(0 0.000176917 0)
(0 0.000154162 0)
(0 0.000128853 0)
(0 0.000101548 0)
(0 7.27865e-05 0)
(0 4.32437e-05 0)
(0 1.35533e-05 0)
(0 -1.56061e-05 0)
(0 -4.35855e-05 0)
(0 -6.97139e-05 0)
(0 -9.34409e-05 0)
(0 -0.000114284 0)
(0 -0.000131826 0)
(0 -0.000145783 0)
(0 -0.000156 0)
(0 -0.000162397 0)
(0 -0.000165061 0)
(0 -0.000164156 0)
(0 -0.00015994 0)
(0 -0.000152739 0)
(0 -0.000142976 0)
(0 -0.000131098 0)
(0 -0.000117539 0)
(0 -0.000102777 0)
(0 -8.72743e-05 0)
(0 -7.14465e-05 0)
(0 -5.56955e-05 0)
(0 -4.03787e-05 0)
(0 -2.57844e-05 0)
(0 -1.21849e-05 0)
(0 2.2685e-07 0)
(0 1.12854e-05 0)
(0 2.09032e-05 0)
(0 2.90252e-05 0)
(0 3.56399e-05 0)
(0 4.0769e-05 0)
(0 4.44592e-05 0)
(0 4.67914e-05 0)
(0 4.7855e-05 0)
(0 4.77653e-05 0)
(0 4.66377e-05 0)
(0 4.461e-05 0)
(0 4.18112e-05 0)
(0 3.83719e-05 0)
(0 3.44217e-05 0)
(0 3.0079e-05 0)
(0 2.54545e-05 0)
(0 2.06547e-05 0)
(0 1.57747e-05 0)
(0 1.09052e-05 0)
(0 6.11376e-06 0)
(0 1.47421e-06 0)
(0 -2.95668e-06 0)
(0 -7.13381e-06 0)
(0 -1.10098e-05 0)
(0 -1.45537e-05 0)
(0 -1.77393e-05 0)
(0 -2.05507e-05 0)
(0 -2.29789e-05 0)
(0 -2.50183e-05 0)
(0 -2.66742e-05 0)
(0 -2.79565e-05 0)
(0 -2.8878e-05 0)
(0 -2.94544e-05 0)
(0 -2.97057e-05 0)
(0 -2.96535e-05 0)
(0 -2.93235e-05 0)
(0 -2.8745e-05 0)
(0 -2.79477e-05 0)
(0 -2.69594e-05 0)
(0 -2.58066e-05 0)
(0 -2.45165e-05 0)
(0 -2.31173e-05 0)
(0 -2.16369e-05 0)
(0 -2.01029e-05 0)
(0 -1.85401e-05 0)
(0 -1.6974e-05 0)
(0 -1.54266e-05 0)
(0 -1.39174e-05 0)
(0 -1.24638e-05 0)
(0 -1.10828e-05 0)
(0 -9.79112e-06 0)
(0 -8.60343e-06 0)
(0 -7.53124e-06 0)
(0 -6.58074e-06 0)
(0 -5.75221e-06 0)
(0 -5.04258e-06 0)
(0 -4.45037e-06 0)
(0 -3.97568e-06 0)
(0 -3.61939e-06 0)
(0 -3.38075e-06 0)
(0 -3.25626e-06 0)
(0 -3.24045e-06 0)
(0 -3.32626e-06 0)
(0 -3.50624e-06 0)
(0 -3.77405e-06 0)
(0 -4.12032e-06 0)
(0 -4.53679e-06 0)
(0 -5.01567e-06 0)
(0 -5.55141e-06 0)
(0 -6.13716e-06 0)
(0 -6.76208e-06 0)
(0 -7.41138e-06 0)
(0 -8.06733e-06 0)
(0 -8.71276e-06 0)
(0 -9.34057e-06 0)
(0 -9.95005e-06 0)
(0 -1.05431e-05 0)
(0 -1.11145e-05 0)
(0 -1.16524e-05 0)
(0 -1.21452e-05 0)
(0 -1.25874e-05 0)
(0 -1.29797e-05 0)
(0 -1.33225e-05 0)
(0 -1.36106e-05 0)
(0 -1.38363e-05 0)
(0 -1.39924e-05 0)
(0 -1.40727e-05 0)
)
;
    }
    walls
    {
        type            calculated;
        value           uniform (0 0 0);
    }
    floatingObject
    {
        type            calculated;
        value           uniform (0 0 0);
    }
    frontAndBack
    {
        type            empty;
    }
}


// ************************************************************************* //
