#           v             n
     0.523599             0
     0.648652             0
     0.790112             0
     0.953116             0
      1.13449             0
      1.34047             0
      1.56672             0
      1.82069             0
      2.09677   1.26432e-06
      2.40376   1.66896e-05
      2.73462   0.000112092
      3.09966   0.000433221
      3.49026     0.0012335
      3.91837    0.00255403
      4.37366    0.00436159
      4.86986     0.0058959
       5.3948    0.00677011
      5.96412    0.00628606
      6.56366    0.00497857
      7.21112    0.00323213
      7.89023    0.00180729
      8.62085   0.000843056
      9.38447     0.0003435
      10.2033   0.000118839
      11.0564   3.64183e-05
      11.9684   9.62449e-06
      12.9159   2.28111e-06
      13.9262   4.72353e-07
      14.9731   2.24072e-07
