#           y            Uf            nu         nuEff             k       epsilon           Rff           Rww           Rfw             u             v             w            uv      gammaDot
  2.80937e-05      0.643397         1e-05   1.00037e-05     0.0082391       56.1674    0.00549273    0.00549273  -8.34822e-05      0.074113      0.074113      0.074113  -8.34822e-05       22623.8
  8.78022e-05       1.97763         1e-05   1.04998e-05      0.157659       337.879      0.105106      0.105106   -0.00994989      0.324201      0.324201      0.324201   -0.00994989       19907.2
  0.000154994       3.15139         1e-05    1.5979e-05      0.483366       851.894      0.322244      0.322244    -0.0849754      0.567665      0.567665      0.567665    -0.0849754       14212.3
  0.000230608        3.9798         1e-05   2.62682e-05      0.669081       979.286      0.446054      0.446054     -0.145468      0.667873      0.667873      0.667873     -0.145468       8941.88
  0.000315699        4.5693         1e-05   4.02945e-05      0.739445       848.696      0.492964      0.492964     -0.175735      0.702114      0.702114      0.702114     -0.175735       5800.91
  0.000411455       5.01686         1e-05   5.79841e-05      0.763017       684.948      0.508678      0.508678     -0.192326      0.713217      0.713217      0.713217     -0.192326       4008.13
  0.000519212       5.37701         1e-05   7.89084e-05      0.768198       547.723      0.512132      0.512132     -0.201573      0.715634      0.715634      0.715634     -0.201573       2925.23
  0.000640475       5.68116         1e-05   0.000102786      0.766137       441.611      0.510758      0.510758     -0.207009      0.714673      0.714673      0.714673     -0.207009       2231.04
  0.000776937        5.9478         1e-05   0.000129516      0.761239       360.396      0.507493      0.507493     -0.210331      0.712385      0.712385      0.712385     -0.210331       1759.87
  0.000930502       6.18825         1e-05   0.000159151      0.755286       297.604      0.503524      0.503524     -0.212383      0.709594      0.709594      0.709594     -0.212383       1423.95
   0.00110331       6.40981         1e-05   0.000191856      0.748994       248.305      0.499329      0.499329     -0.213604      0.706632      0.706632      0.706632     -0.213604       1174.58
   0.00129779       6.61733         1e-05   0.000227865      0.742622       208.988      0.495081      0.495081     -0.214235       0.70362       0.70362       0.70362     -0.214235       983.339
   0.00151663        6.8142         1e-05    0.00026746      0.736228       177.181      0.490819      0.490819     -0.214414      0.700585      0.700585      0.700585     -0.214414       832.806
   0.00176291       7.00285         1e-05   0.000310956      0.729781       151.122       0.48652       0.48652     -0.214225       0.69751       0.69751       0.69751     -0.214225       711.814
   0.00204005        7.1851         1e-05   0.000358683      0.723204        129.54      0.482136      0.482136     -0.213713       0.69436       0.69436       0.69436     -0.213713       612.917
   0.00235193       7.36232         1e-05   0.000410979      0.716403       111.496      0.477602      0.477602     -0.212908      0.691088      0.691088      0.691088     -0.212908       530.971
    0.0027029        7.5356         1e-05    0.00046818      0.709276        96.288       0.47285       0.47285      -0.21182      0.687641      0.687641      0.687641      -0.21182       462.308
   0.00309785       7.70579         1e-05   0.000530605      0.701713       83.3788      0.467809      0.467809     -0.210452      0.683965      0.683965      0.683965     -0.210452       404.244
   0.00354231        7.8736         1e-05   0.000598546      0.693603       72.3538      0.462402      0.462402     -0.208794      0.680002      0.680002      0.680002     -0.208794       354.763
   0.00404248       8.03963         1e-05   0.000672248      0.684832        62.887      0.456555      0.456555     -0.206833      0.675688      0.675688      0.675688     -0.206833        312.32
   0.00460533       8.20438         1e-05   0.000751892       0.67528       54.7191      0.450187      0.450187     -0.204547       0.67096       0.67096       0.67096     -0.204547        275.71
   0.00523873       8.36825         1e-05   0.000837573      0.664822       47.6415      0.443215      0.443215     -0.201907      0.665744      0.665744      0.665744     -0.201907       243.975
   0.00595151       8.53164         1e-05   0.000929269      0.653326       41.4847      0.435551      0.435551     -0.198881      0.659963      0.659963      0.659963     -0.198881       216.347
   0.00675364       8.69485         1e-05    0.00102681       0.64065       36.1098        0.4271        0.4271     -0.195426      0.653529      0.653529      0.653529     -0.195426       192.196
    0.0076563       8.85816         1e-05    0.00112982      0.626644       31.4017      0.417763      0.417763     -0.191495      0.646346      0.646346      0.646346     -0.191495       171.005
   0.00867209       9.02179         1e-05    0.00123772      0.611144       27.2645       0.40743       0.40743     -0.187033      0.638302      0.638302      0.638302     -0.187033       152.341
    0.0098152       9.18593         1e-05    0.00134963      0.593975       23.6181      0.395984      0.395984     -0.181977      0.629272      0.629272      0.629272     -0.181977       135.841
    0.0111016       9.35071         1e-05    0.00146434      0.574949       20.3945      0.383299      0.383299     -0.176256      0.619112      0.619112      0.619112     -0.176256       121.193
    0.0125492       9.51616         1e-05    0.00158023      0.553864       17.5366      0.369243      0.369243     -0.169786      0.607654      0.607654      0.607654     -0.169786       108.128
    0.0141782       9.68226         1e-05    0.00169529      0.530513       14.9956      0.353675      0.353675     -0.162477      0.594706      0.594706      0.594706     -0.162477        96.409
    0.0160115       9.84882         1e-05    0.00180707      0.504685       12.7304      0.336457      0.336457     -0.154223      0.580049      0.580049      0.580049     -0.154223       85.8192
    0.0180745       10.0155         1e-05    0.00191273       0.47619       10.7063       0.31746       0.31746     -0.144905      0.563436      0.563436      0.563436     -0.144905       76.1562
     0.020396       10.1815         1e-05    0.00200928      0.444883       8.89502      0.296589      0.296589     -0.134388      0.544599      0.544599      0.544599     -0.134388        67.218
    0.0230086       10.3459         1e-05    0.00209397      0.410735       7.27474      0.273824      0.273824     -0.122519      0.523282      0.523282      0.523282     -0.122519        58.791
    0.0259485       10.5066         1e-05    0.00216522       0.37395       5.83126        0.2493        0.2493     -0.109127        0.4993        0.4993        0.4993     -0.109127       50.6339
     0.029257       10.6608         1e-05    0.00222425      0.335181       4.56027      0.223454      0.223454    -0.0940308      0.472709      0.472709      0.472709    -0.0940308       42.4663
    0.0329801       10.8035         1e-05    0.00227743      0.295885       3.47055      0.197257      0.197257    -0.0770584      0.444136      0.444136      0.444136    -0.0770584       33.9849
    0.0371699       10.9277         1e-05     0.0023376      0.258803       2.58668      0.172535      0.172535    -0.0580749      0.415374      0.415374      0.415374    -0.0580749       24.9506
    0.0418848       11.0232         1e-05    0.00241589      0.228251       1.94669      0.152167      0.152167    -0.0368707      0.390087      0.390087      0.390087    -0.0368707       15.3252
    0.0471906       11.0783         1e-05    0.00249087      0.209819       1.59537      0.139879      0.139879    -0.0128166      0.374005      0.374005      0.374005    -0.0128166       5.16618
    0.0528094       11.0781         1e-05    0.00249114      0.209922       1.59676      0.139948      0.139948     0.0130361      0.374097      0.374097      0.374097     0.0130361       5.25408
    0.0581152       11.0225         1e-05    0.00241692      0.228536       1.95072      0.152357      0.152357     0.0370849       0.39033       0.39033       0.39033     0.0370849       15.4076
    0.0628301       10.9266         1e-05    0.00233943      0.259216       2.59292      0.172811      0.172811      0.058285      0.415705      0.415705      0.415705      0.058285       25.0212
    0.0670199       10.8022         1e-05    0.00227976      0.296373       3.47843      0.197582      0.197582     0.0772628      0.444502      0.444502      0.444502     0.0772628       34.0401
     0.070743       10.6593         1e-05    0.00222676        0.3357       4.56925        0.2238        0.2238     0.0942271      0.473075      0.473075      0.473075     0.0942271       42.5067
    0.0740515        10.505         1e-05     0.0021677      0.374475       5.84093       0.24965       0.24965      0.109314       0.49965       0.49965       0.49965      0.109314       50.6621
    0.0769914       10.3442         1e-05    0.00209631       0.41125       7.28482      0.274166      0.274166      0.122695      0.523609      0.523609      0.523609      0.122695       58.8097
     0.079604       10.1798         1e-05    0.00201142      0.445377       8.90531      0.296918      0.296918      0.134554      0.544902      0.544902      0.544902      0.134554       67.2291
    0.0819255       10.0137         1e-05    0.00191465      0.476659       10.7166      0.317773      0.317773       0.14506      0.563714      0.563714      0.563714       0.14506        76.161
    0.0839885       9.84707         1e-05    0.00180877      0.505128       12.7407      0.336752      0.336752      0.154368      0.580303      0.580303      0.580303      0.154368       85.8185
    0.0858218       9.68051         1e-05    0.00169679      0.530926       15.0057      0.353951      0.353951      0.162612      0.594938      0.594938      0.594938      0.162612       96.4029
    0.0874508       9.51443         1e-05    0.00158154      0.554248       17.5463      0.369498      0.369498       0.16991      0.607864      0.607864      0.607864       0.16991       108.117
    0.0888984       9.34899         1e-05    0.00146547      0.575302       20.4037      0.383535      0.383535      0.176369      0.619302      0.619302      0.619302      0.176369       121.177
    0.0901848       9.18424         1e-05    0.00135062      0.594298       23.6265      0.396199      0.396199      0.182081      0.629443      0.629443      0.629443      0.182081       135.819
    0.0913279       9.02013         1e-05    0.00123857      0.611437       27.2721      0.407624      0.407624      0.187126      0.638455      0.638455      0.638455      0.187126       152.313
    0.0923437       8.85653         1e-05    0.00113054      0.626906        31.408      0.417937      0.417937      0.191578      0.646481      0.646481      0.646481      0.191578       170.969
    0.0932464       8.69326         1e-05    0.00102741      0.640882       36.1146      0.427255      0.427255      0.195499      0.653647      0.653647      0.653647      0.195499       192.152
    0.0940485       8.53008         1e-05   0.000929781      0.653529       41.4877      0.435686      0.435686      0.198944      0.660065      0.660065      0.660065      0.198944       216.295
    0.0947613       8.36674         1e-05   0.000838002      0.664996       47.6422      0.443331      0.443331      0.201961      0.665831      0.665831      0.665831      0.201961       243.913
    0.0953947        8.2029         1e-05   0.000752247      0.675426        54.717      0.450284      0.450284      0.204591      0.671032      0.671032      0.671032      0.204591       275.637
    0.0959575        8.0382         1e-05   0.000672539       0.68495       62.8817      0.456634      0.456634      0.206868      0.675747      0.675747      0.675747      0.206868       312.235
    0.0964577       7.87222         1e-05   0.000598783      0.693695       72.3447      0.462463      0.462463       0.20882      0.680046      0.680046      0.680046       0.20882       354.664
    0.0969021       7.70445         1e-05   0.000530796      0.701778       83.3651      0.467852      0.467852      0.210469      0.683997      0.683997      0.683997      0.210469        404.13
    0.0972971       7.53431         1e-05   0.000468331      0.709316       96.2688      0.472878      0.472878       0.21183      0.687661      0.687661      0.687661       0.21183       462.178
    0.0976481       7.36108         1e-05   0.000411096       0.71642       111.471      0.477613      0.477613       0.21291      0.691096      0.691096      0.691096       0.21291       530.821
      0.09796       7.18391         1e-05   0.000358772      0.723198       129.507      0.482132      0.482132      0.213709      0.694357      0.694357      0.694357      0.213709       612.747
    0.0982371       7.00171         1e-05   0.000311022      0.729753        151.08      0.486502      0.486502      0.214214      0.697497      0.697497      0.697497      0.214214        711.62
    0.0984834       6.81311         1e-05   0.000267508       0.73618       177.128      0.490787      0.490787      0.214398      0.700562      0.700562      0.700562      0.214398       832.586
    0.0987022       6.61629         1e-05   0.000227898      0.742555       208.923      0.495036      0.495036      0.214213      0.703588      0.703588      0.703588      0.214213        983.09
    0.0988967       6.40882         1e-05   0.000191877      0.748909       248.225      0.499273      0.499273      0.213577      0.706592      0.706592      0.706592      0.213577        1174.3
    0.0990695       6.18732         1e-05   0.000159163      0.755185       297.506      0.503457      0.503457      0.212352      0.709547      0.709547      0.709547      0.212352       1423.63
    0.0992231       5.94691         1e-05    0.00012952      0.761123       360.275      0.507415      0.507415      0.210297      0.712331      0.712331      0.712331      0.210297       1759.51
    0.0993595       5.68033         1e-05   0.000102786      0.766007       441.461      0.510671      0.510671      0.206972      0.714613      0.714613      0.714613      0.206972       2230.64
    0.0994808       5.37623         1e-05   7.89053e-05      0.768055       547.535      0.512037      0.512037      0.201533      0.715568      0.715568      0.715568      0.201533       2924.79
    0.0995885       5.01613         1e-05   5.79796e-05      0.762863       684.711      0.508575      0.508575      0.192285      0.713145      0.713145      0.713145      0.192285       4007.63
    0.0996843       4.56862         1e-05     4.029e-05       0.73928       848.388      0.492853      0.492853      0.175692      0.702035      0.702035      0.702035      0.175692       5800.34
    0.0997694       3.97918         1e-05   2.62647e-05      0.668907       978.884      0.445938      0.445938      0.145425      0.667786      0.667786      0.667786      0.145425       8941.12
     0.099845       3.15083         1e-05   1.59769e-05      0.483196       851.443      0.322131      0.322131     0.0849366      0.567566      0.567566      0.567566     0.0849366       14210.7
    0.0999122       1.97722         1e-05   1.04995e-05      0.157585       337.673      0.105056      0.105056    0.00994259      0.324124      0.324124      0.324124    0.00994259       19903.8
    0.0999719      0.643258         1e-05   1.00037e-05    0.00823513       56.1351    0.00549009    0.00549009   8.34318e-05     0.0740951     0.0740951     0.0740951   8.34318e-05         22619
