#           y            Uf            nu         nuEff             k       epsilon           Rff           Rww           Rfw             u             v             w            uv      gammaDot
     0.000625       6.65407         1e-08    6.1383e-05      0.190746       53.3552      0.127164      0.127164     -0.337992      0.356601      0.356601      0.356601     -0.337992       5507.17
     0.001875       7.11386         1e-08   0.000220824      0.215571       18.9408      0.143714      0.143714    -0.0576271      0.379097      0.379097      0.379097    -0.0576271       260.976
     0.003125       7.30651         1e-08   0.000439722      0.245273       12.3133      0.163516      0.163516    -0.0562031      0.404371      0.404371      0.404371    -0.0562031       127.818
     0.004375        7.4334         1e-08   0.000643484      0.277743       10.7894      0.185162      0.185162    -0.0616565      0.430305      0.430305      0.430305    -0.0616565       95.8181
     0.005625       7.54605         1e-08   0.000798453       0.31159       10.9437      0.207727      0.207727    -0.0732202       0.45577       0.45577       0.45577    -0.0732202       91.7038
     0.006875       7.66266         1e-08   0.000903505      0.346201       11.9392      0.230801      0.230801     -0.088493      0.480418      0.480418      0.480418     -0.088493       97.9452
     0.008125       7.79092         1e-08   0.000966826      0.380679       13.4902      0.253786      0.253786     -0.105428      0.503772      0.503772      0.503772     -0.105428       109.047
     0.009375       7.93528         1e-08   0.000983337      0.413923       15.6813      0.275948      0.275948     -0.120529      0.525308      0.525308      0.525308     -0.120529       122.572
     0.010625       8.09735         1e-08    0.00098342      0.444903        18.115      0.296602      0.296602      -0.13355      0.544612      0.544612      0.544612      -0.13355       135.804
     0.011875       8.27479         1e-08    0.00098405      0.472097       20.3841      0.314731      0.314731      -0.14436      0.561009      0.561009      0.561009      -0.14436       146.701
     0.013125        8.4641         1e-08   0.000984991      0.494171       22.3136      0.329447      0.329447     -0.152526      0.573975      0.573975      0.573975     -0.152526       154.852
     0.014375       8.66192         1e-08   0.000986098      0.510358       23.7726      0.340239      0.340239      -0.15816        0.5833        0.5833        0.5833      -0.15816       160.391
     0.015625       8.86508         1e-08   0.000987293       0.52036       24.6836      0.346907      0.346907     -0.161419      0.588988      0.588988      0.588988     -0.161419       163.498
     0.016875       9.07066         1e-08   0.000988532      0.524253       25.0229      0.349502      0.349502     -0.162498      0.591187      0.591187      0.591187     -0.162498       164.384
     0.018125       9.27604         1e-08   0.000989796      0.522386       24.8133      0.348257      0.348257     -0.161622      0.590133      0.590133      0.590133     -0.161622        163.29
     0.019375       9.47889         1e-08   0.000991072      0.515297       24.1133      0.343531      0.343531     -0.159035      0.586115      0.586115      0.586115     -0.159035       160.469
     0.020625       9.67721         1e-08   0.000992355      0.503646       23.0055      0.335764      0.335764     -0.154992      0.579452      0.579452      0.579452     -0.154992       156.188
     0.021875       9.86936         1e-08   0.000993642      0.488154        21.584      0.325436      0.325436      -0.14975       0.57047       0.57047       0.57047      -0.14975        150.71
     0.023125        10.054         1e-08   0.000994933      0.469557       19.9448      0.313038      0.313038     -0.143561      0.559498      0.559498      0.559498     -0.143561       144.293
     0.024375       10.2301         1e-08   0.000996234      0.448571        18.178      0.299047      0.299047     -0.136661      0.546852      0.546852      0.546852     -0.136661       137.179
     0.025625       10.3969         1e-08   0.000997554      0.425868       16.3629      0.283912      0.283912     -0.129272      0.532834      0.532834      0.532834     -0.129272       129.591
     0.026875       10.5541         1e-08   0.000998913      0.402062       14.5648      0.268041      0.268041     -0.121605      0.517727      0.517727      0.517727     -0.121605       121.738
     0.028125       10.7013         1e-08    0.00100001       0.37769       12.8385      0.251793      0.251793     -0.113832       0.50179       0.50179       0.50179     -0.113832       113.832
     0.029375       10.8386         1e-08    0.00100001      0.353201       11.2276      0.235467      0.235467     -0.106021       0.48525       0.48525       0.48525     -0.106021       106.021
     0.030625       10.9663         1e-08    0.00100001      0.328992        9.7412      0.219328      0.219328     -0.098388      0.468324      0.468324      0.468324     -0.098388        98.388
     0.031875       11.0846         1e-08    0.00100001      0.305418       8.39521      0.203612      0.203612    -0.0910233      0.451234      0.451234      0.451234    -0.0910233       91.0233
     0.033125       11.1939         1e-08    0.00100001      0.282805       7.19808      0.188537      0.188537    -0.0840506      0.434208      0.434208      0.434208    -0.0840506       84.0506
     0.034375       11.2947         1e-08    0.00100001      0.261458       6.15241      0.174305      0.174305    -0.0778846      0.417499      0.417499      0.417499    -0.0778846       77.8846
     0.035625       11.3886         1e-08    0.00098447      0.241523       5.33287      0.161015      0.161015    -0.0718405      0.401267      0.401267      0.401267    -0.0718405       72.9745
     0.036875       11.4772         1e-08   0.000954779      0.223257       4.69845      0.148838      0.148838    -0.0662035      0.385795      0.385795      0.385795    -0.0662035       69.3398
     0.038125        11.562         1e-08    0.00091365      0.207116       4.22568      0.138078      0.138078    -0.0614124      0.371588      0.371588      0.371588    -0.0614124       67.2173
     0.039375       11.6452         1e-08   0.000860456      0.193677       3.92351      0.129118      0.129118    -0.0580756       0.35933       0.35933       0.35933    -0.0580756       67.4948
     0.040625       11.7307         1e-08   0.000795734      0.183565       3.81118      0.122377      0.122377    -0.0569282      0.349824      0.349824      0.349824    -0.0569282       71.5426
     0.041875       11.8241         1e-08   0.000723116      0.177296       3.91234      0.118197      0.118197    -0.0585283      0.343798      0.343798      0.343798    -0.0585283       80.9401
     0.043125        11.933         1e-08   0.000649815      0.174833       4.23355      0.116555      0.116555    -0.0626968      0.341402      0.341402      0.341402    -0.0626968       96.4856
     0.044375       12.0653         1e-08   0.000583263      0.174638       4.70612      0.116425      0.116425    -0.0678087      0.341212      0.341212      0.341212    -0.0678087        116.26
     0.045625       12.2237         1e-08   0.000526044      0.172608       5.09745      0.115072      0.115072    -0.0703133      0.339223      0.339223      0.339223    -0.0703133       133.667
     0.046875       12.3995         1e-08   0.000476016      0.162927       5.01901      0.108618      0.108618    -0.0651858      0.329573      0.329573      0.329573    -0.0651858       136.943
     0.048125        12.566         1e-08   0.000433955      0.143458       4.26835     0.0956389     0.0956389    -0.0478412      0.309255      0.309255      0.309255    -0.0478412       110.247
     0.049375       12.6751         1e-08   0.000408944      0.124401       3.40591     0.0829337     0.0829337    -0.0172877      0.287982      0.287982      0.287982    -0.0172877        42.275
     0.050625       12.6717         1e-08    0.00041084      0.124899        3.4174     0.0832657     0.0832657     0.0189513      0.288558      0.288558      0.288558     0.0189513       46.1293
     0.051875       12.5598         1e-08    0.00043832      0.144011       4.25844     0.0960071     0.0960071     0.0486698       0.30985       0.30985       0.30985     0.0486698        111.04
     0.053125       12.3941         1e-08   0.000481437      0.162833       4.95677      0.108556      0.108556     0.0652497      0.329478      0.329478      0.329478     0.0652497       135.534
     0.054375       12.2209         1e-08   0.000531891       0.17211       5.01235       0.11474       0.11474     0.0700156      0.338733      0.338733      0.338733     0.0700156       131.638
     0.055625        12.065         1e-08     0.0005893      0.174149       4.63188        0.1161        0.1161     0.0674913      0.340734      0.340734      0.340734     0.0674913        114.53
     0.056875       11.9346         1e-08   0.000655651      0.174549       4.18227      0.116366      0.116366     0.0625199      0.341125      0.341125      0.341125     0.0625199       95.3569
     0.058125       11.8266         1e-08   0.000728224      0.177223       3.88173      0.118149      0.118149     0.0585094      0.343728      0.343728      0.343728     0.0585094       80.3464
     0.059375       11.7337         1e-08   0.000799757      0.183646       3.79536      0.122431      0.122431     0.0570203      0.349901      0.349901      0.349901     0.0570203       71.2979
     0.060625       11.6484         1e-08   0.000863355      0.193857        3.9176      0.129238      0.129238     0.0582224      0.359497      0.359497      0.359497     0.0582224       67.4382
     0.061875       11.5651         1e-08   0.000915605      0.207359       4.22652      0.138239      0.138239     0.0615726      0.371805      0.371805      0.371805     0.0615726       67.2488
     0.063125       11.4803         1e-08   0.000956025      0.223539        4.7042      0.149026      0.149026     0.0663544      0.386039      0.386039      0.386039     0.0663544       69.4073
     0.064375       11.3916         1e-08    0.00098519      0.241833       5.34265      0.161222      0.161222     0.0719769      0.401524      0.401524      0.401524     0.0719769       73.0597
     0.065625       11.2976         1e-08    0.00100001      0.261789       6.16803      0.174526      0.174526     0.0779861      0.417763      0.417763      0.417763     0.0779861       77.9861
     0.066875       11.1966         1e-08    0.00100001      0.283159       7.21611      0.188773      0.188773     0.0841638       0.43448       0.43448       0.43448     0.0841638       84.1638
     0.068125       11.0872         1e-08    0.00100001      0.305792        8.4158      0.203862      0.203862     0.0911417       0.45151       0.45151       0.45151     0.0911417       91.1417
     0.069375       10.9688         1e-08    0.00100001      0.329383       9.76439      0.219589      0.219589     0.0985104      0.468603      0.468603      0.468603     0.0985104       98.5104
     0.070625       10.8409         1e-08    0.00100001      0.353606       11.2533      0.235737      0.235737      0.106147      0.485528      0.485528      0.485528      0.106147       106.147
     0.071875       10.7034         1e-08    0.00100001      0.378104       12.8667       0.25207       0.25207      0.113962      0.502065      0.502065      0.502065      0.113962       113.962
     0.073125        10.556         1e-08   0.000998899      0.402482       14.5955      0.268321      0.268321      0.121735      0.517997      0.517997      0.517997      0.121735       121.871
     0.074375       10.3987         1e-08   0.000997543      0.426288       16.3954      0.284192      0.284192      0.129403      0.533096      0.533096      0.533096      0.129403       129.723
     0.075625       10.2317         1e-08   0.000996226      0.448985       18.2118      0.299323      0.299323      0.136789      0.547105      0.547105      0.547105      0.136789       137.309
     0.076875       10.0555         1e-08   0.000994928      0.469961       19.9792      0.313307      0.313307      0.143684      0.559739      0.559739      0.559739      0.143684       144.418
     0.078125       9.87069         1e-08   0.000993639      0.488543       21.6184      0.325696      0.325696      0.149868      0.570697      0.570697      0.570697      0.149868       150.829
     0.079375        9.6784         1e-08   0.000992354      0.504016       23.0393      0.336011      0.336011      0.155103      0.579664      0.579664      0.579664      0.155103         156.3
     0.080625       9.47994         1e-08   0.000991074      0.515645       24.1458      0.343763      0.343763      0.159138      0.586313      0.586313      0.586313      0.159138       160.573
     0.081875       9.27697         1e-08   0.000989799      0.522709       24.8439      0.348472      0.348472      0.161717      0.590316      0.590316      0.590316      0.161717       163.385
     0.083125       9.07148         1e-08   0.000988537       0.52455       25.0512        0.3497        0.3497      0.162584      0.591354      0.591354      0.591354      0.162584       164.471
     0.084375       8.86579         1e-08   0.000987299       0.52063       24.7091      0.347087      0.347087      0.161497      0.589141      0.589141      0.589141      0.161497       163.576
     0.085625       8.66254         1e-08   0.000986106        0.5106        23.795        0.3404        0.3404       0.15823      0.583438      0.583438      0.583438       0.15823       160.461
     0.086875       8.46464         1e-08   0.000984999      0.494387       22.3329      0.329591      0.329591      0.152588        0.5741        0.5741        0.5741      0.152588       154.914
     0.088125       8.27526         1e-08   0.000984058      0.472286       20.4003      0.314858      0.314858      0.144414      0.561122      0.561122      0.561122      0.144414       146.755
     0.089375       8.09775         1e-08   0.000983428      0.445068       18.1283      0.296712      0.296712      0.133597      0.544713      0.544713      0.544713      0.133597        135.85
     0.090625       7.93563         1e-08   0.000983346      0.414064       15.6919      0.276043      0.276043      0.120568      0.525398      0.525398      0.525398      0.120568       122.612
     0.091875       7.79122         1e-08   0.000966863        0.3808       13.4982      0.253867      0.253867      0.105463      0.503852      0.503852      0.503852      0.105463       109.078
     0.093125       7.66293         1e-08   0.000903558      0.346303       11.9455      0.230869      0.230869     0.0885202      0.480488      0.480488      0.480488     0.0885202       97.9695
     0.094375        7.5463         1e-08   0.000798521      0.311674       10.9487      0.207783      0.207783     0.0732411      0.455832      0.455832      0.455832     0.0732411       91.7221
     0.095625       7.43363         1e-08   0.000643561      0.277813       10.7936      0.185209      0.185209     0.0616716      0.430359      0.430359      0.430359     0.0616716       95.8303
     0.096875       7.30672         1e-08   0.000439791      0.245329       12.3169      0.163552      0.163552     0.0562137      0.404416      0.404416      0.404416     0.0562137       127.822
     0.098125       7.11407         1e-08    0.00022086      0.215611       18.9447      0.143741      0.143741     0.0576352      0.379132      0.379132      0.379132     0.0576352        260.97
     0.099375        6.6543         1e-08   6.13867e-05      0.190768       53.3644      0.127179      0.127179      0.338023      0.356621      0.356621      0.356621      0.338023       5507.35
