/*--------------------------------*- C++ -*----------------------------------*\
  =========                 |
  \\      /  F ield         | OpenFOAM: The Open Source CFD Toolbox
   \\    /   O peration     | Website:  https://openfoam.org
    \\  /    A nd           | Version:  12
     \\/     M anipulation  |
\*---------------------------------------------------------------------------*/
FoamFile
{
    format      ascii;
    class       volVectorField;
    location    "6.84";
    object      U;
}
// * * * * * * * * * * * * * * * * * * * * * * * * * * * * * * * * * * * * * //

dimensions      [0 1 -1 0 0 0 0];

internalField   nonuniform List<vector> 
3829
(
(7.80497e-06 -0.000123738 0)
(2.34462e-05 -0.000124598 0)
(3.93737e-05 -0.000124747 0)
(5.5589e-05 -0.000124958 0)
(7.21146e-05 -0.000125231 0)
(8.89973e-05 -0.000125549 0)
(0.000106297 -0.000125906 0)
(0.000124029 -0.000126286 0)
(0.000142238 -0.000126654 0)
(0.000160936 -0.000126995 0)
(0.000180138 -0.000127274 0)
(0.000199838 -0.000127457 0)
(0.000220054 -0.000127507 0)
(0.00024072 -0.000127399 0)
(0.00026182 -0.000127067 0)
(0.000283333 -0.000126501 0)
(0.000305158 -0.000125627 0)
(0.000327239 -0.000124427 0)
(0.000349495 -0.000122853 0)
(0.000371833 -0.000120876 0)
(0.000394149 -0.000118465 0)
(0.000416326 -0.000115598 0)
(0.000438232 -0.000112258 0)
(0.000459721 -0.000108435 0)
(0.000480607 -0.000104127 0)
(0.000500795 -9.93359e-05 0)
(0.000520187 -9.40783e-05 0)
(0.000538575 -8.83837e-05 0)
(0.000555779 -8.22713e-05 0)
(0.000571649 -7.57833e-05 0)
(0.000585998 -6.89646e-05 0)
(0.000598758 -6.18489e-05 0)
(0.000609839 -5.44764e-05 0)
(0.000619006 -4.69282e-05 0)
(0.000626212 -3.92277e-05 0)
(0.000631398 -3.1449e-05 0)
(0.00063442 -2.36007e-05 0)
(0.000635299 -1.57429e-05 0)
(0.000634041 -7.94478e-06 0)
(0.000630626 -3.05782e-07 0)
(0.000624958 7.12499e-06 0)
(0.000617028 1.43001e-05 0)
(0.00060695 2.11811e-05 0)
(0.000594768 2.77328e-05 0)
(0.000580536 3.39065e-05 0)
(0.00056433 3.96776e-05 0)
(0.000546254 4.50131e-05 0)
(0.000526412 4.98842e-05 0)
(0.000504932 5.42653e-05 0)
(0.000481956 5.81335e-05 0)
(0.000457612 6.14639e-05 0)
(0.000432099 6.42589e-05 0)
(0.000405485 6.64762e-05 0)
(0.000378163 6.81607e-05 0)
(0.000350233 6.92324e-05 0)
(0.000321844 6.97523e-05 0)
(0.000293194 6.96681e-05 0)
(0.000264594 6.90456e-05 0)
(0.000236088 6.78436e-05 0)
(0.000208016 6.61468e-05 0)
(0.000180806 6.39036e-05 0)
(0.000154283 6.11396e-05 0)
(0.000128893 5.79491e-05 0)
(0.000104662 5.43349e-05 0)
(8.20849e-05 5.0353e-05 0)
(6.11207e-05 4.59908e-05 0)
(4.20026e-05 4.13728e-05 0)
(2.49235e-05 3.6508e-05 0)
(9.84977e-06 3.15037e-05 0)
(-2.75528e-06 2.63605e-05 0)
(-1.30225e-05 2.11328e-05 0)
(-2.11715e-05 1.58769e-05 0)
(-2.6886e-05 1.07357e-05 0)
(-3.01345e-05 5.68912e-06 0)
(-3.09772e-05 8.77273e-07 0)
(-2.94523e-05 -3.71252e-06 0)
(-2.57169e-05 -7.93426e-06 0)
(-2.00424e-05 -1.17919e-05 0)
(-1.23542e-05 -1.51948e-05 0)
(-2.81335e-06 -1.81402e-05 0)
(7.9893e-06 -2.05481e-05 0)
(2.00129e-05 -2.23834e-05 0)
(3.28047e-05 -2.3618e-05 0)
(4.62446e-05 -2.42402e-05 0)
(5.99065e-05 -2.42607e-05 0)
(7.34277e-05 -2.36562e-05 0)
(8.66233e-05 -2.24649e-05 0)
(9.9025e-05 -2.07159e-05 0)
(0.000110356 -1.84338e-05 0)
(0.00012031 -1.56999e-05 0)
(0.000128574 -1.25481e-05 0)
(0.000134951 -9.07599e-06 0)
(0.0001392 -5.36168e-06 0)
(0.000141184 -1.48655e-06 0)
(0.000140629 2.42596e-06 0)
(0.000137424 6.30237e-06 0)
(0.000131725 1.00336e-05 0)
(0.000123643 1.35497e-05 0)
(0.000113386 1.67387e-05 0)
(0.000101121 1.95076e-05 0)
(8.70989e-05 2.17857e-05 0)
(7.16068e-05 2.34917e-05 0)
(5.50945e-05 2.46077e-05 0)
(3.79779e-05 2.50541e-05 0)
(2.06021e-05 2.48407e-05 0)
(3.50988e-06 2.39741e-05 0)
(-1.28609e-05 2.24708e-05 0)
(-2.80826e-05 2.03897e-05 0)
(-4.17086e-05 1.77916e-05 0)
(-5.33666e-05 1.47734e-05 0)
(-6.27418e-05 1.1418e-05 0)
(-6.96062e-05 7.85669e-06 0)
(-7.37798e-05 4.20778e-06 0)
(-7.52192e-05 5.94039e-07 0)
(-7.38383e-05 -2.80057e-06 0)
(-6.98238e-05 -5.92473e-06 0)
(-6.3517e-05 -8.63013e-06 0)
(-5.51914e-05 -1.08361e-05 0)
(-4.53287e-05 -1.24494e-05 0)
(-3.43427e-05 -1.34132e-05 0)
(-2.27791e-05 -1.37131e-05 0)
(-1.1225e-05 -1.33408e-05 0)
(-2.08419e-07 -1.23318e-05 0)
(9.7306e-06 -1.07515e-05 0)
(1.81362e-05 -8.69196e-06 0)
(2.45633e-05 -6.26663e-06 0)
(2.87801e-05 -3.60805e-06 0)
(3.05909e-05 -8.82094e-07 0)
(2.9844e-05 1.79392e-06 0)
(2.66186e-05 4.22091e-06 0)
(2.12638e-05 6.35626e-06 0)
(1.41152e-05 7.9826e-06 0)
(5.63494e-06 9.11375e-06 0)
(-3.76325e-06 9.58233e-06 0)
(-1.33826e-05 9.46036e-06 0)
(-2.246e-05 8.71854e-06 0)
(-3.05729e-05 7.4353e-06 0)
(-3.71591e-05 5.67144e-06 0)
(-4.18125e-05 3.58442e-06 0)
(-4.42145e-05 1.27531e-06 0)
(-4.41238e-05 -1.06143e-06 0)
(-4.14675e-05 -3.33397e-06 0)
(-3.64917e-05 -5.35957e-06 0)
(-2.95042e-05 -7.05213e-06 0)
(-2.09019e-05 -8.28309e-06 0)
(-1.11638e-05 -8.99984e-06 0)
(-7.95462e-07 -9.18236e-06 0)
(9.50281e-06 -8.80659e-06 0)
(1.90423e-05 -7.94063e-06 0)
(2.73864e-05 -6.64657e-06 0)
(3.40849e-05 -5.02329e-06 0)
(3.87664e-05 -3.18857e-06 0)
(4.12402e-05 -1.26968e-06 0)
(4.14129e-05 6.16099e-07 0)
(3.93203e-05 2.34548e-06 0)
(3.52417e-05 3.85828e-06 0)
(2.9487e-05 5.01746e-06 0)
(2.2469e-05 5.81908e-06 0)
(1.46724e-05 6.19759e-06 0)
(6.57214e-06 6.18699e-06 0)
(-1.28655e-06 5.79094e-06 0)
(-8.45263e-06 5.06764e-06 0)
(-1.45113e-05 4.08224e-06 0)
(-1.91393e-05 2.89691e-06 0)
(-2.21338e-05 1.61436e-06 0)
(-2.33586e-05 3.12313e-07 0)
(-2.28027e-05 -9.22534e-07 0)
(-2.05827e-05 -2.03972e-06 0)
(-1.68821e-05 -2.96168e-06 0)
(-1.19826e-05 -3.65531e-06 0)
(-6.23248e-06 -4.102e-06 0)
(6.41735e-08 -4.26541e-06 0)
(6.46602e-06 -4.16869e-06 0)
(1.25108e-05 -3.8277e-06 0)
(1.79204e-05 -3.27053e-06 0)
(2.23807e-05 -2.54386e-06 0)
(2.56463e-05 -1.68835e-06 0)
(2.7533e-05 -7.67427e-07 0)
(2.79332e-05 1.78545e-07 0)
(2.68242e-05 1.09346e-06 0)
(2.42685e-05 1.93754e-06 0)
(2.03945e-05 2.66529e-06 0)
(1.53932e-05 3.2463e-06 0)
(9.5325e-06 3.66042e-06 0)
(3.03257e-06 3.88652e-06 0)
(-3.80297e-06 3.93156e-06 0)
(-1.05751e-05 3.78538e-06 0)
(-1.69976e-05 3.47053e-06 0)
(-2.27804e-05 3.00147e-06 0)
(-2.76505e-05 2.40455e-06 0)
(-3.13909e-05 1.70177e-06 0)
(-3.38087e-05 9.38236e-07 0)
(-3.47871e-05 1.35644e-07 0)
(-3.42598e-05 -6.63122e-07 0)
(-3.22248e-05 -1.4289e-06 0)
(-2.87462e-05 -2.12791e-06 0)
(-2.39531e-05 -2.73235e-06 0)
(-1.80307e-05 -3.2133e-06 0)
(-1.12202e-05 -3.55025e-06 0)
(-3.81377e-06 -3.72426e-06 0)
(7.08698e-06 -0.000176527 0)
(2.1473e-05 -0.000176557 0)
(3.61629e-05 -0.000177798 0)
(5.12586e-05 -0.000179659 0)
(6.68743e-05 -0.000182107 0)
(8.30784e-05 -0.000185092 0)
(9.99123e-05 -0.00018856 0)
(0.000117625 -0.000192423 0)
(0.000136229 -0.00019659 0)
(0.000155724 -0.000200957 0)
(0.000176295 -0.000205382 0)
(0.000197897 -0.000209755 0)
(0.00022047 -0.000213911 0)
(0.000244171 -0.000217725 0)
(0.000268836 -0.000221031 0)
(0.000294479 -0.000223699 0)
(0.000321045 -0.000225562 0)
(0.000348255 -0.000226485 0)
(0.000376108 -0.000226316 0)
(0.000404361 -0.000224961 0)
(0.000432831 -0.000222291 0)
(0.0004613 -0.000218227 0)
(0.000489544 -0.000212712 0)
(0.000517312 -0.000205686 0)
(0.000544323 -0.00019718 0)
(0.000570358 -0.000187143 0)
(0.000595138 -0.000175648 0)
(0.000618453 -0.000162782 0)
(0.00064005 -0.000148594 0)
(0.000659625 -0.000133201 0)
(0.000677069 -0.000116699 0)
(0.000692364 -9.92657e-05 0)
(0.000705137 -8.1011e-05 0)
(0.000715281 -6.21423e-05 0)
(0.00072282 -4.28127e-05 0)
(0.000727805 -2.32134e-05 0)
(0.0007302 -3.51775e-06 0)
(0.000729674 1.61111e-05 0)
(0.000726027 3.55383e-05 0)
(0.000719389 5.46721e-05 0)
(0.000709999 7.33354e-05 0)
(0.000697928 9.14183e-05 0)
(0.000683373 0.00010878 0)
(0.000666333 0.000125285 0)
(0.00064694 0.000140815 0)
(0.000625366 0.000155264 0)
(0.0006017 0.000168524 0)
(0.000576096 0.000180517 0)
(0.000548723 0.000191142 0)
(0.000519731 0.000200345 0)
(0.000489386 0.000208062 0)
(0.000457803 0.000214262 0)
(0.000425265 0.000218877 0)
(0.000391979 0.000221862 0)
(0.000358122 0.000223234 0)
(0.000323985 0.000223036 0)
(0.000289781 0.000221109 0)
(0.000255876 0.000217696 0)
(0.000222388 0.000212594 0)
(0.00018961 0.000206045 0)
(0.000157683 0.000197957 0)
(0.000127097 0.000188544 0)
(9.81811e-05 0.000177747 0)
(7.0769e-05 0.000165821 0)
(4.52816e-05 0.000152825 0)
(2.19662e-05 0.000138889 0)
(1.13602e-06 0.000124134 0)
(-1.71193e-05 0.000108692 0)
(-3.28851e-05 9.27927e-05 0)
(-4.59311e-05 7.65664e-05 0)
(-5.61638e-05 6.02061e-05 0)
(-6.34702e-05 4.38866e-05 0)
(-6.78585e-05 2.78767e-05 0)
(-6.9325e-05 1.23219e-05 0)
(-6.79188e-05 -2.54047e-06 0)
(-6.36822e-05 -1.65282e-05 0)
(-5.67402e-05 -2.94838e-05 0)
(-4.76013e-05 -4.12129e-05 0)
(-3.61757e-05 -5.14883e-05 0)
(-2.26734e-05 -6.03146e-05 0)
(-7.57315e-06 -6.74078e-05 0)
(8.88004e-06 -7.27814e-05 0)
(2.61441e-05 -7.62642e-05 0)
(4.39595e-05 -7.78278e-05 0)
(6.194e-05 -7.75147e-05 0)
(7.963e-05 -7.52868e-05 0)
(9.6669e-05 -7.12357e-05 0)
(0.000112643 -6.54647e-05 0)
(0.000127109 -5.8083e-05 0)
(0.000139743 -4.92872e-05 0)
(0.000150194 -3.92513e-05 0)
(0.00015814 -2.82444e-05 0)
(0.000163409 -1.65156e-05 0)
(0.000165741 -4.34504e-06 0)
(0.000164909 7.95064e-06 0)
(0.000160867 2.00863e-05 0)
(0.000153803 3.17574e-05 0)
(0.000143837 4.26713e-05 0)
(0.000131123 5.25327e-05 0)
(0.000115975 6.10528e-05 0)
(9.86931e-05 6.80024e-05 0)
(7.97268e-05 7.31692e-05 0)
(5.9543e-05 7.64142e-05 0)
(3.86408e-05 7.76256e-05 0)
(1.76114e-05 7.67618e-05 0)
(-2.98705e-06 7.38641e-05 0)
(-2.25791e-05 6.90077e-05 0)
(-4.0626e-05 6.23505e-05 0)
(-5.65936e-05 5.41106e-05 0)
(-7.00653e-05 4.45771e-05 0)
(-8.06566e-05 3.40477e-05 0)
(-8.80682e-05 2.29011e-05 0)
(-9.21633e-05 1.15385e-05 0)
(-9.27584e-05 3.45718e-07 0)
(-8.99659e-05 -1.02241e-05 0)
(-8.40813e-05 -1.98588e-05 0)
(-7.53917e-05 -2.81616e-05 0)
(-6.43225e-05 -3.48647e-05 0)
(-5.14229e-05 -3.96915e-05 0)
(-3.73008e-05 -4.2491e-05 0)
(-2.26201e-05 -4.31879e-05 0)
(-8.08206e-06 -4.18022e-05 0)
(5.62248e-06 -3.84396e-05 0)
(1.78365e-05 -3.33162e-05 0)
(2.80121e-05 -2.67103e-05 0)
(3.56317e-05 -1.90136e-05 0)
(4.03699e-05 -1.06192e-05 0)
(4.20858e-05 -2.01588e-06 0)
(4.05798e-05 6.29519e-06 0)
(3.61066e-05 1.38917e-05 0)
(2.90001e-05 2.04305e-05 0)
(1.97222e-05 2.54588e-05 0)
(8.85408e-06 2.88034e-05 0)
(-3.06963e-06 3.01869e-05 0)
(-1.50717e-05 2.96464e-05 0)
(-2.6383e-05 2.72059e-05 0)
(-3.64113e-05 2.30782e-05 0)
(-4.44553e-05 1.75419e-05 0)
(-5.00468e-05 1.0962e-05 0)
(-5.28186e-05 3.77656e-06 0)
(-5.2563e-05 -3.52563e-06 0)
(-4.9248e-05 -1.04986e-05 0)
(-4.31456e-05 -1.6751e-05 0)
(-3.46779e-05 -2.18721e-05 0)
(-2.43111e-05 -2.55854e-05 0)
(-1.27223e-05 -2.76664e-05 0)
(-4.70416e-07 -2.80802e-05 0)
(1.15948e-05 -2.6827e-05 0)
(2.26432e-05 -2.40635e-05 0)
(3.2196e-05 -2.00057e-05 0)
(3.97218e-05 -1.49965e-05 0)
(4.48158e-05 -9.35139e-06 0)
(4.73022e-05 -3.48838e-06 0)
(4.71076e-05 2.23444e-06 0)
(4.43691e-05 7.47352e-06 0)
(3.93561e-05 1.19599e-05 0)
(3.24719e-05 1.54238e-05 0)
(2.4246e-05 1.77446e-05 0)
(1.52213e-05 1.88209e-05 0)
(5.97668e-06 1.86939e-05 0)
(-2.91073e-06 1.74177e-05 0)
(-1.09047e-05 1.5168e-05 0)
(-1.75912e-05 1.21261e-05 0)
(-2.26013e-05 8.55322e-06 0)
(-2.57184e-05 4.67693e-06 0)
(-2.68368e-05 7.64923e-07 0)
(-2.59904e-05 -2.94408e-06 0)
(-2.33151e-05 -6.25358e-06 0)
(-1.90223e-05 -8.99432e-06 0)
(-1.34761e-05 -1.10351e-05 0)
(-7.02285e-06 -1.23058e-05 0)
(-2.18414e-08 -1.2748e-05 0)
(7.01883e-06 -1.24262e-05 0)
(1.36329e-05 -1.13738e-05 0)
(1.95064e-05 -9.69423e-06 0)
(2.43129e-05 -7.50895e-06 0)
(2.77911e-05 -4.96483e-06 0)
(2.97611e-05 -2.21611e-06 0)
(3.01289e-05 5.82655e-07 0)
(2.8876e-05 3.28521e-06 0)
(2.60812e-05 5.76595e-06 0)
(2.18866e-05 7.90102e-06 0)
(1.6515e-05 9.59866e-06 0)
(1.02464e-05 1.07967e-05 0)
(3.33195e-06 1.14501e-05 0)
(-3.91199e-06 1.1558e-05 0)
(-1.107e-05 1.11199e-05 0)
(-1.78301e-05 1.01794e-05 0)
(-2.38998e-05 8.79545e-06 0)
(-2.89999e-05 7.0256e-06 0)
(-3.28961e-05 4.97525e-06 0)
(-3.5398e-05 2.72633e-06 0)
(-3.63937e-05 3.80071e-07 0)
(-3.58116e-05 -1.95911e-06 0)
(-3.3661e-05 -4.19762e-06 0)
(-3.00098e-05 -6.2405e-06 0)
(-2.49934e-05 -8.00208e-06 0)
(-1.88059e-05 -9.40523e-06 0)
(-1.16994e-05 -1.03869e-05 0)
(-3.97578e-06 -1.08948e-05 0)
(2.70107e-06 -0.000367055 0)
(8.20844e-06 -0.000370192 0)
(1.41997e-05 -0.000373768 0)
(2.10522e-05 -0.000379092 0)
(2.90793e-05 -0.000386105 0)
(3.84927e-05 -0.000394673 0)
(4.96114e-05 -0.000404609 0)
(6.27028e-05 -0.00041568 0)
(7.7892e-05 -0.000427606 0)
(9.5512e-05 -0.000440083 0)
(0.000115572 -0.000452744 0)
(0.000138159 -0.000465259 0)
(0.000163334 -0.000477207 0)
(0.000190981 -0.000488194 0)
(0.000221041 -0.000497874 0)
(0.000253435 -0.000505857 0)
(0.00028803 -0.00051177 0)
(0.00032458 -0.000515264 0)
(0.000362674 -0.000516056 0)
(0.000402012 -0.000513834 0)
(0.000442323 -0.000508431 0)
(0.000482984 -0.000499645 0)
(0.000523711 -0.000487393 0)
(0.000563778 -0.000471588 0)
(0.000602919 -0.000452287 0)
(0.000640778 -0.000429565 0)
(0.000676425 -0.000403545 0)
(0.000709819 -0.000374461 0)
(0.000740632 -0.000342723 0)
(0.000768461 -0.000308598 0)
(0.00079283 -0.000272402 0)
(0.000813654 -0.000234647 0)
(0.000830709 -0.000195615 0)
(0.000843595 -0.000155747 0)
(0.000852432 -0.000115394 0)
(0.000857138 -7.48235e-05 0)
(0.000857803 -3.44731e-05 0)
(0.000854664 5.33454e-06 0)
(0.000848132 4.42163e-05 0)
(0.00083803 8.1933e-05 0)
(0.000824254 0.000118227 0)
(0.000807041 0.000152895 0)
(0.00078642 0.000185732 0)
(0.000762594 0.000216557 0)
(0.000735815 0.000245213 0)
(0.000706243 0.000271551 0)
(0.000674157 0.000295416 0)
(0.000639727 0.000316723 0)
(0.000603216 0.000335384 0)
(0.000564963 0.000351345 0)
(0.000525225 0.000364433 0)
(0.000484193 0.000374713 0)
(0.000441904 0.000382096 0)
(0.000399115 0.000386557 0)
(0.000356317 0.00038812 0)
(0.000312908 0.000386717 0)
(0.000269938 0.000382495 0)
(0.000227546 0.000375454 0)
(0.000185748 0.000365646 0)
(0.00014534 0.000353179 0)
(0.000106562 0.000338177 0)
(6.94446e-05 0.000320789 0)
(3.45353e-05 0.0003012 0)
(2.28414e-06 0.000279516 0)
(-2.73498e-05 0.000256026 0)
(-5.41629e-05 0.000230907 0)
(-7.79448e-05 0.000204458 0)
(-9.81509e-05 0.00017686 0)
(-0.000114884 0.000148508 0)
(-0.000127869 0.000119692 0)
(-0.000137082 9.07423e-05 0)
(-0.000142511 6.2027e-05 0)
(-0.000144023 3.38961e-05 0)
(-0.000141727 6.6988e-06 0)
(-0.000135622 -1.92223e-05 0)
(-0.000126082 -4.35154e-05 0)
(-0.000113233 -6.58805e-05 0)
(-9.7186e-05 -8.59946e-05 0)
(-7.8578e-05 -0.000103528 0)
(-5.74091e-05 -0.000118277 0)
(-3.42996e-05 -0.000130005 0)
(-9.71922e-06 -0.00013855 0)
(1.59969e-05 -0.000143791 0)
(4.20267e-05 -0.000145607 0)
(6.79804e-05 -0.000144062 0)
(9.33431e-05 -0.000139141 0)
(0.000117493 -0.000131005 0)
(0.000139937 -0.000119817 0)
(0.000160128 -0.000105843 0)
(0.000177604 -8.93737e-05 0)
(0.000191881 -7.08015e-05 0)
(0.000202583 -5.05195e-05 0)
(0.000209495 -2.90631e-05 0)
(0.000212327 -6.95671e-06 0)
(0.000210864 1.53141e-05 0)
(0.000205088 3.71876e-05 0)
(0.000195195 5.81298e-05 0)
(0.000181376 7.75874e-05 0)
(0.000163889 9.50368e-05 0)
(0.000143151 0.000110011 0)
(0.000119659 0.000122069 0)
(9.39788e-05 0.000130892 0)
(6.68457e-05 0.000136193 0)
(3.89441e-05 0.000137835 0)
(1.10333e-05 0.000135767 0)
(-1.60621e-05 0.00013003 0)
(-4.16221e-05 0.000120825 0)
(-6.4889e-05 0.000108446 0)
(-8.5134e-05 9.32988e-05 0)
(-0.000101836 7.58736e-05 0)
(-0.00011452 5.67981e-05 0)
(-0.00012277 3.67131e-05 0)
(-0.000126455 1.63286e-05 0)
(-0.000125467 -3.61973e-06 0)
(-0.000119962 -2.24199e-05 0)
(-0.000110316 -3.93963e-05 0)
(-9.70152e-05 -5.3904e-05 0)
(-8.06562e-05 -6.54279e-05 0)
(-6.20031e-05 -7.35297e-05 0)
(-4.19356e-05 -7.7965e-05 0)
(-2.13781e-05 -7.86018e-05 0)
(-1.29556e-06 -7.55017e-05 0)
(1.73851e-05 -6.88763e-05 0)
(3.37942e-05 -5.91582e-05 0)
(4.71629e-05 -4.68577e-05 0)
(5.68601e-05 -3.26783e-05 0)
(6.25126e-05 -1.7358e-05 0)
(6.37886e-05 -1.78838e-06 0)
(6.07159e-05 1.31644e-05 0)
(5.37453e-05 2.68214e-05 0)
(4.32213e-05 3.83199e-05 0)
(2.98407e-05 4.71391e-05 0)
(1.44326e-05 5.27371e-05 0)
(-2.18348e-06 5.49192e-05 0)
(-1.87393e-05 5.35577e-05 0)
(-3.41783e-05 4.88408e-05 0)
(-4.76419e-05 4.11321e-05 0)
(-5.8326e-05 3.09762e-05 0)
(-6.55929e-05 1.90652e-05 0)
(-6.89642e-05 6.19333e-06 0)
(-6.82414e-05 -6.81788e-06 0)
(-6.35636e-05 -1.91286e-05 0)
(-5.52834e-05 -3.00629e-05 0)
(-4.39454e-05 -3.88708e-05 0)
(-3.02776e-05 -4.51146e-05 0)
(-1.51748e-05 -4.85012e-05 0)
(4.97188e-07 -4.88643e-05 0)
(1.57359e-05 -4.63656e-05 0)
(2.95264e-05 -4.12624e-05 0)
(4.11772e-05 -3.39665e-05 0)
(5.01134e-05 -2.50837e-05 0)
(5.58871e-05 -1.52021e-05 0)
(5.82857e-05 -5.03531e-06 0)
(5.73605e-05 4.81657e-06 0)
(5.33149e-05 1.37405e-05 0)
(4.65575e-05 2.1251e-05 0)
(3.76312e-05 2.69988e-05 0)
(2.72056e-05 3.0702e-05 0)
(1.59932e-05 3.22922e-05 0)
(4.68528e-06 3.18042e-05 0)
(-6.00239e-06 2.94201e-05 0)
(-1.54577e-05 2.54027e-05 0)
(-2.3176e-05 2.01166e-05 0)
(-2.87907e-05 1.39697e-05 0)
(-3.21112e-05 7.38139e-06 0)
(-3.30117e-05 7.8922e-07 0)
(-3.15938e-05 -5.43972e-06 0)
(-2.80773e-05 -1.09237e-05 0)
(-2.27391e-05 -1.54347e-05 0)
(-1.5997e-05 -1.8735e-05 0)
(-8.29047e-06 -2.07208e-05 0)
(-8.60532e-08 -2.13532e-05 0)
(8.06431e-06 -2.07058e-05 0)
(1.56601e-05 -1.88621e-05 0)
(2.23284e-05 -1.59961e-05 0)
(2.77157e-05 -1.23208e-05 0)
(3.15501e-05 -8.07568e-06 0)
(3.3651e-05 -3.51571e-06 0)
(3.39325e-05 1.0966e-06 0)
(3.24133e-05 5.53555e-06 0)
(2.919e-05 9.5792e-06 0)
(2.44352e-05 1.30427e-05 0)
(1.84128e-05 1.57814e-05 0)
(1.14428e-05 1.76927e-05 0)
(3.81179e-06 1.87153e-05 0)
(-4.1307e-06 1.88443e-05 0)
(-1.19421e-05 1.80967e-05 0)
(-1.92789e-05 1.65285e-05 0)
(-2.58413e-05 1.42472e-05 0)
(-3.13176e-05 1.13605e-05 0)
(-3.54715e-05 8.01969e-06 0)
(-3.81203e-05 4.36625e-06 0)
(-3.9134e-05 5.6835e-07 0)
(-3.84584e-05 -3.21504e-06 0)
(-3.61071e-05 -6.82808e-06 0)
(-3.21571e-05 -1.01205e-05 0)
(-2.67586e-05 -1.29568e-05 0)
(-2.01212e-05 -1.52146e-05 0)
(-1.25123e-05 -1.67922e-05 0)
(-4.25113e-06 -1.76087e-05 0)
(-6.21822e-06 -0.000283589 0)
(-1.82848e-05 -0.000287305 0)
(-2.9354e-05 -0.000296277 0)
(-3.86694e-05 -0.000309734 0)
(-4.54388e-05 -0.000327481 0)
(-4.88226e-05 -0.000349369 0)
(-4.81719e-05 -0.000375017 0)
(-4.2729e-05 -0.000404006 0)
(-3.20882e-05 -0.000435587 0)
(-1.58055e-05 -0.000469131 0)
(6.3003e-06 -0.000503813 0)
(3.43991e-05 -0.000538855 0)
(6.86913e-05 -0.000573313 0)
(0.000108667 -0.000606273 0)
(0.000153968 -0.000636731 0)
(0.000204615 -0.000663794 0)
(0.00026015 -0.0006867 0)
(0.000319621 -0.000704631 0)
(0.000382639 -0.000716796 0)
(0.000448176 -0.000722658 0)
(0.000515312 -0.000721823 0)
(0.000583246 -0.000714016 0)
(0.000651062 -0.000699124 0)
(0.000717657 -0.000677061 0)
(0.000781867 -0.000648178 0)
(0.000843134 -0.000612655 0)
(0.000900311 -0.000571132 0)
(0.000951772 -0.000524296 0)
(0.000997191 -0.00047282 0)
(0.00103688 -0.000417658 0)
(0.00106958 -0.00035956 0)
(0.00109554 -0.00029937 0)
(0.00111492 -0.000237893 0)
(0.00112739 -0.000175715 0)
(0.00113394 -0.000113814 0)
(0.00113432 -5.25588e-05 0)
(0.00112836 7.44915e-06 0)
(0.00111616 6.59492e-05 0)
(0.00109813 0.000122529 0)
(0.00107502 0.000176806 0)
(0.00104726 0.00022854 0)
(0.00101527 0.000277427 0)
(0.000979359 0.00032325 0)
(0.000939827 0.000365819 0)
(0.000897004 0.000404965 0)
(0.0008511 0.000440525 0)
(0.000802536 0.000472329 0)
(0.000751785 0.000500379 0)
(0.000699165 0.000524471 0)
(0.000644515 0.000544511 0)
(0.000588599 0.000560477 0)
(0.000531894 0.000572386 0)
(0.000474285 0.000580011 0)
(0.000416494 0.000583636 0)
(0.000358558 0.000582893 0)
(0.00030113 0.000578047 0)
(0.000244767 0.000569061 0)
(0.000189415 0.000556091 0)
(0.000135573 0.000539029 0)
(8.38298e-05 0.000518274 0)
(3.44379e-05 0.000493913 0)
(-1.19765e-05 0.000466032 0)
(-5.52738e-05 0.000435083 0)
(-9.52388e-05 0.000401057 0)
(-0.000131272 0.000364479 0)
(-0.000163174 0.000325558 0)
(-0.000190685 0.000284814 0)
(-0.000213421 0.000242572 0)
(-0.00023119 0.000199342 0)
(-0.000244022 0.000155561 0)
(-0.000251634 0.000111776 0)
(-0.000253983 6.84601e-05 0)
(-0.000251188 2.61935e-05 0)
(-0.00024331 -1.45282e-05 0)
(-0.000230502 -5.31502e-05 0)
(-0.000213057 -8.92551e-05 0)
(-0.000191215 -0.000122185 0)
(-0.000165424 -0.000151603 0)
(-0.000136105 -0.000177015 0)
(-0.000103748 -0.000198028 0)
(-6.9e-05 -0.000214419 0)
(-3.25039e-05 -0.000225842 0)
(5.08446e-06 -0.00023221 0)
(4.29223e-05 -0.000233396 0)
(8.03239e-05 -0.000229358 0)
(0.000116578 -0.000220254 0)
(0.000150847 -0.000206241 0)
(0.000182455 -0.000187631 0)
(0.000210658 -0.000164845 0)
(0.00023485 -0.000138381 0)
(0.000254463 -0.000108852 0)
(0.000268894 -7.68893e-05 0)
(0.000277712 -4.31936e-05 0)
(0.000280864 -8.60486e-06 0)
(0.000278137 2.59257e-05 0)
(0.000269453 5.96846e-05 0)
(0.00025511 9.18621e-05 0)
(0.00023535 0.000121558 0)
(0.000210615 0.000148034 0)
(0.000181516 0.000170525 0)
(0.000148779 0.000188425 0)
(0.000113257 0.000201227 0)
(7.59004e-05 0.00020856 0)
(3.77779e-05 0.000210216 0)
(-1.0525e-07 0.000206117 0)
(-3.6626e-05 0.00019644 0)
(-7.06738e-05 0.000181438 0)
(-0.000101298 0.000161627 0)
(-0.000127593 0.000137632 0)
(-0.000148737 0.000110275 0)
(-0.000164117 8.04643e-05 0)
(-0.000173348 4.93134e-05 0)
(-0.000176196 1.78455e-05 0)
(-0.000172591 -1.26707e-05 0)
(-0.000162855 -4.12851e-05 0)
(-0.000147508 -6.68855e-05 0)
(-0.000127259 -8.85605e-05 0)
(-0.000103017 -0.000105484 0)
(-7.59061e-05 -0.000117053 0)
(-4.71638e-05 -0.000122892 0)
(-1.80597e-05 -0.000122813 0)
(1.00614e-05 -0.00011702 0)
(3.58475e-05 -0.000105851 0)
(5.81369e-05 -8.99911e-05 0)
(7.59557e-05 -7.02789e-05 0)
(8.84549e-05 -4.78098e-05 0)
(9.50736e-05 -2.37905e-05 0)
(9.55348e-05 3.9932e-07 0)
(9.01118e-05 2.3582e-05 0)
(7.91811e-05 4.449e-05 0)
(6.34166e-05 6.19274e-05 0)
(4.38918e-05 7.50408e-05 0)
(2.17821e-05 8.31145e-05 0)
(-1.6592e-06 8.58183e-05 0)
(-2.4821e-05 8.30777e-05 0)
(-4.61609e-05 7.51956e-05 0)
(-6.45538e-05 6.28102e-05 0)
(-7.88461e-05 4.67612e-05 0)
(-8.82499e-05 2.81937e-05 0)
(-9.22775e-05 8.3655e-06 0)
(-9.07379e-05 -1.14792e-05 0)
(-8.39039e-05 -3.00959e-05 0)
(-7.22606e-05 -4.63785e-05 0)
(-5.66424e-05 -5.93133e-05 0)
(-3.82255e-05 -6.82412e-05 0)
(-1.81106e-05 -7.2763e-05 0)
(2.47968e-06 -7.27604e-05 0)
(2.21185e-05 -6.84554e-05 0)
(3.96496e-05 -6.03187e-05 0)
(5.4153e-05 -4.9067e-05 0)
(6.49123e-05 -3.55511e-05 0)
(7.14366e-05 -2.0766e-05 0)
(7.35885e-05 -5.67564e-06 0)
(7.14908e-05 8.73422e-06 0)
(6.54789e-05 2.16494e-05 0)
(5.62027e-05 3.23683e-05 0)
(4.43576e-05 4.03645e-05 0)
(3.08445e-05 4.53574e-05 0)
(1.66091e-05 4.72266e-05 0)
(2.53005e-06 4.60966e-05 0)
(-1.05495e-05 4.22573e-05 0)
(-2.18983e-05 3.61367e-05 0)
(-3.09565e-05 2.82697e-05 0)
(-3.73261e-05 1.92484e-05 0)
(-4.07926e-05 9.70985e-06 0)
(-4.13363e-05 2.51013e-07 0)
(-3.90895e-05 -8.58062e-06 0)
(-3.4371e-05 -1.63083e-05 0)
(-2.75705e-05 -2.25483e-05 0)
(-1.92012e-05 -2.70489e-05 0)
(-9.8338e-06 -2.96628e-05 0)
(-2.15777e-08 -3.03788e-05 0)
(9.60253e-06 -2.92716e-05 0)
(1.84768e-05 -2.651e-05 0)
(2.61646e-05 -2.23486e-05 0)
(3.22876e-05 -1.70914e-05 0)
(3.65586e-05 -1.10815e-05 0)
(3.87925e-05 -4.67995e-06 0)
(3.89408e-05 1.76729e-06 0)
(3.70423e-05 7.92213e-06 0)
(3.3228e-05 1.34998e-05 0)
(2.77256e-05 1.82428e-05 0)
(2.0845e-05 2.19677e-05 0)
(1.29502e-05 2.45349e-05 0)
(4.38545e-06 2.58671e-05 0)
(-4.46057e-06 2.59705e-05 0)
(-1.31194e-05 2.48732e-05 0)
(-2.12025e-05 2.26666e-05 0)
(-2.83789e-05 1.9486e-05 0)
(-3.43372e-05 1.54991e-05 0)
(-3.88228e-05 1.08945e-05 0)
(-4.16412e-05 5.88938e-06 0)
(-4.26738e-05 6.95078e-07 0)
(-4.18694e-05 -4.46598e-06 0)
(-3.92528e-05 -9.38388e-06 0)
(-3.49164e-05 -1.38592e-05 0)
(-2.90257e-05 -1.77073e-05 0)
(-2.18082e-05 -2.07694e-05 0)
(-1.35538e-05 -2.2908e-05 0)
(-4.60358e-06 -2.40134e-05 0)
(-2.68124e-05 -0.000204752 0)
(-8.00574e-05 -0.000217512 0)
(-0.000131564 -0.000239788 0)
(-0.000179397 -0.000273189 0)
(-0.000222507 -0.000317313 0)
(-0.000259614 -0.000371587 0)
(-0.000288881 -0.000434322 0)
(-0.000308015 -0.000504551 0)
(-0.000315832 -0.000579198 0)
(-0.000311863 -0.000657536 0)
(-0.000295549 -0.00073673 0)
(-0.000266434 -0.000815366 0)
(-0.000224059 -0.000891281 0)
(-0.0001686 -0.000962955 0)
(-0.000100581 -0.00102858 0)
(-2.17342e-05 -0.0010867 0)
(6.70731e-05 -0.00113585 0)
(0.00016542 -0.00117466 0)
(0.000271144 -0.00120221 0)
(0.000381572 -0.00121725 0)
(0.000494912 -0.00121897 0)
(0.000609013 -0.00120701 0)
(0.000722518 -0.00118109 0)
(0.000832398 -0.00114153 0)
(0.000937042 -0.00108848 0)
(0.00103479 -0.00102318 0)
(0.00112247 -0.000946252 0)
(0.00119989 -0.000860681 0)
(0.00126574 -0.000766502 0)
(0.00131965 -0.000667323 0)
(0.00136182 -0.000564161 0)
(0.00139225 -0.000459894 0)
(0.00141213 -0.000355411 0)
(0.00142059 -0.000252459 0)
(0.00141897 -0.000151877 0)
(0.001409 -5.45859e-05 0)
(0.0013913 3.86846e-05 0)
(0.001367 0.000127398 0)
(0.00133613 0.000211285 0)
(0.0012994 0.000290078 0)
(0.00125721 0.0003636 0)
(0.00120996 0.000431613 0)
(0.00115823 0.000494267 0)
(0.00110247 0.000551315 0)
(0.00104308 0.000602851 0)
(0.000980267 0.000648771 0)
(0.000914958 0.000689143 0)
(0.00084727 0.000723914 0)
(0.000777114 0.000753049 0)
(0.000705464 0.00077644 0)
(0.000633042 0.000794346 0)
(0.000559334 0.000806504 0)
(0.000485294 0.000813074 0)
(0.000411199 0.000813916 0)
(0.000337383 0.000809156 0)
(0.000264543 0.00079885 0)
(0.000193248 0.000783001 0)
(0.000123368 0.000761682 0)
(5.5749e-05 0.000735218 0)
(-8.23361e-06 0.000703676 0)
(-6.94129e-05 0.000667233 0)
(-0.000126588 0.000626365 0)
(-0.000179599 0.000580978 0)
(-0.00022787 0.0005319 0)
(-0.000270734 0.000479223 0)
(-0.000308091 0.000423718 0)
(-0.000339454 0.00036569 0)
(-0.000364452 0.000305918 0)
(-0.000382925 0.00024487 0)
(-0.000394588 0.000183343 0)
(-0.000399358 0.000121987 0)
(-0.000397294 6.15143e-05 0)
(-0.000388308 2.6585e-06 0)
(-0.000372619 -5.3807e-05 0)
(-0.000350609 -0.000107169 0)
(-0.000322473 -0.000156682 0)
(-0.000288607 -0.000201643 0)
(-0.000249695 -0.000241453 0)
(-0.000206296 -0.000275471 0)
(-0.000159212 -0.000303235 0)
(-0.000109226 -0.000324252 0)
(-5.7225e-05 -0.000338242 0)
(-4.15053e-06 -0.000344936 0)
(4.90548e-05 -0.000344286 0)
(0.00010127 -0.000336274 0)
(0.0001515 -0.000321135 0)
(0.000198772 -0.000299137 0)
(0.000241996 -0.0002708 0)
(0.000280232 -0.000236644 0)
(0.000312645 -0.000197408 0)
(0.000338538 -0.000153895 0)
(0.000357424 -0.000107217 0)
(0.000368695 -5.84056e-05 0)
(0.000371658 -8.53833e-06 0)
(0.000366522 4.10777e-05 0)
(0.000353685 8.93663e-05 0)
(0.000333069 0.000135102 0)
(0.000305145 0.000177083 0)
(0.00027057 0.0002142 0)
(0.000230178 0.000245452 0)
(0.000185103 0.000269986 0)
(0.00013647 0.000287084 0)
(8.56913e-05 0.000296301 0)
(3.40976e-05 0.000297329 0)
(-1.6775e-05 0.000290154 0)
(-6.54503e-05 0.000274983 0)
(-0.000110556 0.000252347 0)
(-0.000150679 0.000222939 0)
(-0.000184594 0.000187751 0)
(-0.000211314 0.000147988 0)
(-0.000229949 0.000104997 0)
(-0.000240011 6.02086e-05 0)
(-0.000241212 1.53323e-05 0)
(-0.000233723 -2.80009e-05 0)
(-0.000218114 -6.83271e-05 0)
(-0.000194951 -0.000104126 0)
(-0.000165359 -0.000134073 0)
(-0.000130582 -0.000157043 0)
(-9.22279e-05 -0.000172232 0)
(-5.19392e-05 -0.000179086 0)
(-1.16391e-05 -0.000177535 0)
(2.6842e-05 -0.000167779 0)
(6.18105e-05 -0.000150421 0)
(9.16452e-05 -0.000126492 0)
(0.000115021 -9.72707e-05 0)
(0.000130828 -6.43615e-05 0)
(0.000138367 -2.94978e-05 0)
(0.000137494 5.38881e-06 0)
(0.000128557 3.86023e-05 0)
(0.000112097 6.81421e-05 0)
(8.92104e-05 9.25597e-05 0)
(6.1408e-05 0.000110565 0)
(3.03596e-05 0.000121175 0)
(-2.1325e-06 0.000124097 0)
(-3.38845e-05 0.00011917 0)
(-6.28414e-05 0.000107027 0)
(-8.74477e-05 8.85439e-05 0)
(-0.000106262 6.51244e-05 0)
(-0.000118178 3.8315e-05 0)
(-0.000122703 9.9344e-06 0)
(-0.000119768 -1.80837e-05 0)
(-0.000109807 -4.40945e-05 0)
(-9.35774e-05 -6.64818e-05 0)
(-7.2298e-05 -8.40019e-05 0)
(-4.756e-05 -9.57208e-05 0)
(-2.09704e-05 -0.000101153 0)
(5.80763e-06 -0.000100303 0)
(3.10399e-05 -9.35e-05 0)
(5.31533e-05 -8.15213e-05 0)
(7.10461e-05 -6.53989e-05 0)
(8.38762e-05 -4.63938e-05 0)
(9.11362e-05 -2.58766e-05 0)
(9.27123e-05 -5.19109e-06 0)
(8.89009e-05 1.43084e-05 0)
(8.02962e-05 3.15521e-05 0)
(6.76982e-05 4.56307e-05 0)
(5.2154e-05 5.58712e-05 0)
(3.4813e-05 6.19788e-05 0)
(1.6845e-05 6.38627e-05 0)
(-6.20994e-07 6.17419e-05 0)
(-1.65651e-05 5.60591e-05 0)
(-3.01439e-05 4.7416e-05 0)
(-4.07199e-05 3.65787e-05 0)
(-4.78636e-05 2.43562e-05 0)
(-5.14181e-05 1.15788e-05 0)
(-5.13957e-05 -9.40667e-07 0)
(-4.8054e-05 -1.25009e-05 0)
(-4.18103e-05 -2.25035e-05 0)
(-3.31865e-05 -3.04586e-05 0)
(-2.28461e-05 -3.60999e-05 0)
(-1.14715e-05 -3.92376e-05 0)
(2.59617e-07 -3.98915e-05 0)
(1.16313e-05 -3.81831e-05 0)
(2.19885e-05 -3.43691e-05 0)
(3.08486e-05 -2.8786e-05 0)
(3.7798e-05 -2.1839e-05 0)
(4.25342e-05 -1.39869e-05 0)
(4.48944e-05 -5.68762e-06 0)
(4.48375e-05 2.61631e-06 0)
(4.24529e-05 1.04883e-05 0)
(3.79228e-05 1.75733e-05 0)
(3.15212e-05 2.35585e-05 0)
(2.36213e-05 2.82173e-05 0)
(1.46377e-05 3.1382e-05 0)
(4.98072e-06 3.2976e-05 0)
(-4.9146e-06 3.29988e-05 0)
(-1.4541e-05 3.15166e-05 0)
(-2.34744e-05 2.86434e-05 0)
(-3.13618e-05 2.45566e-05 0)
(-3.78619e-05 1.94707e-05 0)
(-4.27099e-05 1.36316e-05 0)
(-4.57158e-05 7.30569e-06 0)
(-4.67586e-05 7.61766e-07 0)
(-4.57958e-05 -5.72514e-06 0)
(-4.28677e-05 -1.18918e-05 0)
(-3.80803e-05 -1.74937e-05 0)
(-3.16208e-05 -2.23049e-05 0)
(-2.37398e-05 -2.61261e-05 0)
(-1.47457e-05 -2.87919e-05 0)
(-5.00663e-06 -3.01698e-05 0)
(-7.0913e-05 0.000331153 0)
(-0.00021183 0.000310163 0)
(-0.00034938 0.000265563 0)
(-0.000479594 0.000198771 0)
(-0.000598984 0.000110889 0)
(-0.000700227 2.78911e-06 0)
(-0.000780769 -0.000121906 0)
(-0.0008331 -0.000263641 0)
(-0.000858858 -0.000415535 0)
(-0.000859046 -0.000580676 0)
(-0.000830496 -0.000751489 0)
(-0.000777081 -0.000924507 0)
(-0.0006987 -0.00109351 0)
(-0.000598234 -0.00125407 0)
(-0.000476907 -0.00140155 0)
(-0.000337031 -0.00153192 0)
(-0.00018023 -0.00164174 0)
(-1.01984e-05 -0.00172836 0)
(0.000171879 -0.00178991 0)
(0.0003631 -0.0018247 0)
(0.00055848 -0.00183212 0)
(0.000754703 -0.00181167 0)
(0.000947796 -0.00176386 0)
(0.00113454 -0.00168919 0)