/*--------------------------------*- C++ -*----------------------------------*\
  =========                 |
  \\      /  F ield         | OpenFOAM: The Open Source CFD Toolbox
   \\    /   O peration     | Website:  https://openfoam.org
    \\  /    A nd           | Version:  12
     \\/     M anipulation  |
\*---------------------------------------------------------------------------*/
FoamFile
{
    format      ascii;
    class       surfaceScalarField;
    location    "14.7";
    object      phi;
}
// * * * * * * * * * * * * * * * * * * * * * * * * * * * * * * * * * * * * * //

dimensions      [1 0 -1 0 0 0 0];

internalField   nonuniform List<scalar> 
7429
(
0.000194125
-0.000194125
0.000392942
-0.000198816
0.0005951
-0.000202157
0.000800999
-0.000205899
0.00101114
-0.000210143
0.00122597
-0.000214831
0.00144588
-0.000219905
0.00167116
-0.000225285
0.00190206
-0.000230893
0.00213867
-0.000236614
0.00238096
-0.000242291
0.00262871
-0.000247748
0.00288163
-0.000252917
0.00313917
-0.000257538
0.00340068
-0.000261511
0.00366515
-0.000264463
0.00393162
-0.000266478
0.00419875
-0.000267123
0.00446508
-0.000266327
0.00472887
-0.000263792
0.00498845
-0.000259584
0.00524164
-0.000253183
0.00548629
-0.000244655
0.00572008
-0.000233791
0.00594066
-0.00022058
0.00614548
-0.000204813
0.00633184
-0.000186367
0.00649728
-0.000165437
0.0066393
-0.00014202
0.00675542
-0.000116121
0.00684345
-8.80262e-05
0.0069013
-5.78458e-05
0.00692684
-2.55392e-05
0.00692087
5.96141e-06
0.0068838
3.70752e-05
0.00681418
6.96245e-05
0.00671139
0.000102785
0.00657544
0.000135951
0.00640682
0.000168625
0.00620648
0.000200335
0.00597589
0.000230591
0.0057168
0.000259088
0.00543138
0.000285423
0.00512205
0.000309333
0.00479155
0.000330492
0.00444294
0.000348612
0.00407944
0.0003635
0.00370453
0.000374907
0.0033219
0.000382639
0.00293531
0.00038659
0.00254869
0.000386613
0.002166
0.000382692
0.00179132
0.000374685
0.00142849
0.000362829
0.00108179
0.000346697
0.000754666
0.000327123
0.000451234
0.000303432
0.000174526
0.000276708
-7.16924e-05
0.000246218
-0.000284823
0.00021313
-0.000461952
0.000177129
-0.000601048
0.000139096
-0.000700122
9.9074e-05
-0.000757736
5.76141e-05
-0.000774227
1.6491e-05
-0.000741481
-3.27469e-05
-0.000665316
-7.61649e-05
-0.000548072
-0.000117244
-0.00039155
-0.000156521
-0.000197928
-0.000193622
3.045e-05
-0.000228378
0.000290367
-0.000259917
0.000578118
-0.000287751
0.000888801
-0.000310682
0.00121686
-0.000328063
0.00155672
-0.000339857
0.00190201
-0.00034529
0.00224637
-0.000344354
0.0025825
-0.000336135
0.00290383
-0.000321328
0.00320293
-0.000299103
0.00347327
-0.000270342
0.00370779
-0.000234513
0.00390051
-0.000192728
0.00404562
-0.000145104
0.00413873
-9.31138e-05
0.00417576
-3.70299e-05
0.00414647
2.92948e-05
0.00405077
9.56923e-05
0.00389042
0.000160354
0.00366751
0.000222915
0.00338522
0.000282284
0.00304765
0.000337568
0.00265978
0.000387878
0.00222831
0.000431463
0.00176146
0.000466851
0.00126877
0.000492696
0.000761323
0.000507443
0.000250588
0.000510735
-0.000250571
0.00050116
-0.000729284
0.000478713
-0.00117266
0.000443373
-0.00156808
0.000395421
-0.00190386
0.000335778
-0.00216961
0.000265754
-0.0023562
0.000186592
-0.00245738
0.000101181
-0.00247022
1.28387e-05
-0.0023804
-8.98233e-05
-0.00219913
-0.000181268
-0.00193239
-0.00026674
-0.00158946
-0.000342928
-0.0011801
-0.00040936
-0.000718997
-0.000461105
-0.000221927
-0.00049707
0.000291628
-0.000513555
0.000801286
-0.000509658
0.00128494
-0.000483658
0.00172202
-0.00043708
0.00209206
-0.000370032
0.00237718
-0.000285125
0.00256245
-0.00018527
0.00263723
-7.47774e-05
0.00258635
5.08823e-05
0.0024116
0.000174747
0.00212219
0.000289414
0.00173021
0.00039198
0.00125166
0.000478542
0.000708198
0.000543467
0.000125708
0.00058249
-0.000465901
0.000591609
-0.00103442
0.000568521
-0.00154857
0.000514147
-0.00197815
0.000429579
-0.0022976
0.000319456
-0.00248625
0.000188649
-0.00253269
4.64346e-05
-0.00241714
-0.000115552
-0.00215483
-0.000262307
-0.00176247
-0.000392354
-0.00126331
-0.000499163
-0.00068767
-0.000575641
-7.41525e-05
-0.000613518
0.000535974
-0.000610126
0.00109895
-0.000562981
0.00157418
-0.000475222
0.00192635
-0.000352179
0.00212942
-0.000203066
0.00216863
-3.92101e-05
0.00202712
0.000141511
0.00172791
0.000299208
0.0012972
0.000430713
0.000769236
0.000527962
0.000190884
0.000578352
-0.000389457
0.000580341
-0.000917181
0.000527723
-0.001346
0.000428819
-0.00163801
0.000292008
-0.00176893
0.000130926
-0.00172311
-4.58199e-05
-0.00151426
-0.00020885
-0.00117336
-0.000340902
-0.000740743
-0.000432619
-0.000268378
-0.000472365
0.000185905
-0.000454283
0.000566505
-0.0003806
0.000828614
-0.000262109
0.000942471
-0.000113857
0.000890334
5.2137e-05
0.000688018
0.000202315
0.000370363
0.000317656
-1.47006e-05
0.000385063
-0.000408362
0.000393661
-0.00074605
0.000337689
-0.000974202
0.000228151
-0.00105517
8.09664e-05
-0.000963765
-9.14031e-05
-0.000715841
-0.000247924
-0.000346947
-0.000368894
9.00639e-05
-0.000437011
0.000527553
-0.000437489
0.000898043
-0.00037049
0.00114579
-0.000247748
0.00123582
-9.00269e-05
0.00115454
8.12822e-05
0.000927463
0.000227073
0.000599621
0.000327842
0.000233407
0.000366213
-0.000104141
0.000337548
-0.000353743
0.000249602
-0.000477895
0.000124152
-0.000465326
-1.25682e-05
-0.000336578
-0.000128748
-0.00013508
-0.000201498
8.13384e-05
-0.000216419
0.000253739
-0.000172401
0.000337079
-8.33401e-05
0.00031092
2.6159e-05
0.000185675
0.000125245
0.000185675
0.00021231
-0.000406434
0.000435642
-0.000422148
0.000664363
-0.000430877
0.000899789
-0.000441324
0.00114324
-0.000453598
0.00139604
-0.000467627
0.00165923
-0.00048309
0.00193372
-0.000499779
0.0022201
-0.000517273
0.00251872
-0.000535227
0.0028295
-0.000553076
0.00315223
-0.000570473
0.00348634
-0.000587026
0.00383082
-0.000602024
0.00418444
-0.000615129
0.00454564
-0.000625664
0.00491224
-0.000633073
0.00528195
-0.000636831
0.00565192
-0.000636301
0.00601914
-0.000631013
0.00638002
-0.000620461
0.00673109
-0.00060425
0.00706848
-0.000582047
0.00738825
-0.00055356
0.00768632
-0.000518643
0.00795895
-0.000477449
0.00820245
-0.00042987
0.00841359
-0.000376571
0.00858911
-0.000317541
0.00872664
-0.000253646
0.0088241
-0.00018549
0.00888051
-0.000114257
0.00889669
-4.1716e-05
0.00885906
4.3594e-05
0.00876669
0.000129442
0.00862376
0.000212552
0.00843343
0.000293116
0.00819924
0.000370145
0.00792505
0.000442812
0.00761462
0.000510773
0.00727132
0.000573885
0.00689747
0.000632939
0.00649574
0.000687158
0.00606874
0.00073633
0.00562038
0.000778853
0.00515431
0.000814683
0.00467479
0.000843021
0.00418675
0.000862943
0.00369396
0.000875435
0.00320169
0.000878861
0.00271438
0.000873915
0.00223615
0.000860928
0.00177266
0.000838168
0.00132724
0.000808255
0.000905357
0.000768579
0.000509703
0.000722776
0.000145807
0.000667328
-0.000183105
0.00060562
-0.000474185
0.000537298
-0.00072449
0.000463435
-0.000930534
0.000383174
-0.00108958
0.000298147
-0.00120134
0.000210828
-0.00126355
0.000119824
-0.00127595
2.8896e-05
-0.00123885
-6.98491e-05
-0.00115361
-0.000161406
-0.00102071
-0.000250147
-0.00084179
-0.000335439
-0.000619621
-0.000415791
-0.000357859
-0.000490141
-6.0762e-05
-0.000557014
0.00026619
-0.000614703
0.000618678
-0.00066317
0.000990616
-0.000700002
0.00137502
-0.000724258
0.00176524
-0.000735509
0.00215372
-0.000732838
0.00253288
-0.000715295
0.00289492
-0.000683365
0.00323217
-0.000636356
0.0035368
-0.000574971
0.00380164
-0.000499354
0.00401953
-0.000410621
0.00418472
-0.000310291
0.00429195
-0.000200341
0.00433504
-8.01238e-05
0.00430778
5.65531e-05
0.00420932
0.000194157
0.00404101
0.000328659
0.00380442
0.000459506
0.00350245
0.000584257
0.00313923
0.000700783
0.00272044
0.000806674
0.00225378
0.000898125
0.00174843
0.000972201
0.00121504
0.00102608
0.000665871
0.00105661
0.000113599
0.00106301
-0.000427821
0.00104258
-0.00094409
0.000994981
-0.00142112
0.000920407
-0.00184529
0.000819585
-0.00220334
0.000693836
-0.00248445
0.000546858
-0.00267944
0.000381587
-0.00278109
0.000202825
-0.00277806
9.81177e-06
-0.00267192
-0.000195961
-0.00246681
-0.000386379
-0.0021688
-0.000564752
-0.00178604
-0.000725692
-0.00133069
-0.000864708
-0.000818426
-0.000973366
-0.000268512
-0.00104698
0.000299366
-0.00108143
0.000861142
-0.00107143
0.00139426
-0.00101678
0.00187467
-0.000917486
0.00228095
-0.000776306
0.00259314
-0.000597319
0.00279532
-0.000387446
0.00287448
-0.000153946
0.00281741
0.000107955
0.00262719
0.000364968
0.0023123
0.000604307
0.00188418
0.000820096
0.00136162
0.0010011
0.000767421
0.00113767
0.000132442
0.00121747
-0.00051184
0.00123589
-0.00112999
0.00118667
-0.00168765
0.00107181
-0.00215168
0.000893603
-0.00249446
0.000662243
-0.00269384
0.000388024
-0.00273593
8.8522e-05
-0.0026056
-0.000245876
-0.00231734
-0.000550572
-0.00188823
-0.000821461
-0.0013422
-0.00104519
-0.000714721
-0.00120312
-4.57744e-05
-0.00128246
0.000613751
-0.00126965
0.00122008
-0.00116931
0.00172918
-0.000984322
0.00210208
-0.000725078
0.00231111
-0.000412094
0.00234039
-6.84883e-05
0.00217788
0.000304021
0.00184647
0.000630619
0.00137149
0.000905695
0.000795452
0.001104
0.000165162
0.00120864
-0.000459888
0.00120539
-0.00102466
0.00109249
-0.00147815
0.000882318
-0.00177897
0.000592819
-0.00190337
0.000255326
-0.00183527
-0.000113916
-0.00159361
-0.000450511
-0.00120874
-0.000725774
-0.000727176
-0.00091418
-0.000206947
-0.000992594
0.000288641
-0.000949871
0.000699273
-0.000791232
0.000976446
-0.000539282
0.00108869
-0.000226104
0.0010188
0.000122034
0.000786876
0.000434235
0.000428845
0.000675686
-1.0838e-06
0.000814993
-0.000437788
0.000830365
-0.000810828
0.000710729
-0.00106172
0.000479047
-0.00115041
0.000169651
-0.0010533
-0.000188509
-0.000787571
-0.000513655
-0.000390873
-0.000765593
7.76497e-05
-0.000905533
0.000544015
-0.000903854
0.000935325
-0.0007618
0.00119195
-0.000504378
0.00127744
-0.000175509
0.00118055
0.000178172
0.00092866
0.000478959
0.000572431
0.000684072
0.000180124
0.000758519
-0.000175628
0.000693301
-0.000431497
0.000505471
-0.000548867
0.000241521
-0.000518259
-4.31764e-05
-0.000363717
-0.00028329
-0.000134032
-0.000431182
0.000107179
-0.00045763
0.000295962
-0.000361184
0.000384255
-0.000171633
0.00035114
5.92744e-05
0.00020874
0.000267645
0.000394415
1.0766e-05
-0.0004172
2.71894e-05
-0.000438571
5.02582e-05
-0.000453945
8.34639e-05
-0.000474529
0.000129992
-0.000500125
0.000193232
-0.000530867
0.00027568
-0.000565537
0.00038073
-0.000604829
0.00051018
-0.000646722
0.000666331
-0.000691377
0.000850166
-0.00073691
0.00106243
-0.000782735
0.00130179
-0.000826391
0.0015688
-0.000869027
0.00186371
-0.000910043
0.00218662
-0.000948571
0.00253557
-0.000982025
0.00290754
-0.00100879
0.00329868
-0.00102744
0.003704
-0.00103633
0.0041185
-0.00103496
0.00453578
-0.00102154
0.00494944
-0.000995706
0.00535323
-0.000957348
0.00574021
-0.000905618
0.00610454
-0.000841779
0.0064385
-0.000763835
0.00673652
-0.000674586
0.00699119
-0.000572209
0.00719691
-0.000459366
0.00734813
-0.000336707
0.00743982
-0.000205951
0.00746677
-6.86692e-05
0.00744992
6.04489e-05
0.00738718
0.000192181
0.00727423
0.000325499
0.00711003
0.000457316
0.00689477
0.000585404
0.00662959
0.000707996
0.00631652
0.00082384
0.00595895
0.000931458
0.00556187
0.00103002
0.0051306
0.00111843
0.004671
0.00119593
0.00418799
0.00126187
0.00368732
0.00131535
0.00317408
0.00135627
0.00265313
0.00138389
0.00213059
0.00139797
0.00161083
0.00139862
0.00109962
0.00138513
0.000602915
0.00135763
0.000124226
0.00131686
-0.000329942
0.00126242
-0.000756586
0.00119522
-0.00114928
0.00111547
-0.00150452
0.00102257
-0.00181877
0.000919873
-0.002088
0.00080653
-0.0023083
0.000683733
-0.00247718
0.000552059
-0.00259529
0.000416254
-0.00265797
0.000273507
-0.00266658
0.000128435
-0.00260718
-3.05076e-05
-0.00249504
-0.000181986
-0.00232824
-0.00032821
-0.00210812
-0.000470266
-0.00183682
-0.000606736
-0.00151752
-0.000735091
-0.00115372
-0.000853942
-0.000750514
-0.000960219
-0.000313906
-0.00105131
0.000149674
-0.00112675
0.000633619
-0.00118395
0.00112943
-0.00122007
0.0016293
-0.00123538
0.00212424
-0.00122777
0.00260527
-0.00119633
0.00306264
-0.00114074
0.00348827
-0.00106198
0.00387207
-0.000958774
0.00420602
-0.000833305
0.00448085
-0.000685452
0.00469097
-0.00052041
0.00482896
-0.000338328
0.0048892
-0.000140361
0.00486413
8.16189e-05
0.00475451
0.000303773
0.00456113
0.000522045
0.00428545
0.000735185
0.00393048
0.000939229
0.00350107
0.00113019
0.00300461
0.00130314
0.00245067
0.00145206
0.00185052
0.00157235
0.00121718
0.00165942
0.000565461
0.00170833
-8.93005e-05
0.00171777
-0.000730248
0.00168353
-0.00133984
0.00160457
-0.00190201
0.00148258
-0.0023989
0.00131647
-0.00281722
0.00111215
-0.00314067
0.000870316
-0.0033585
0.000599417
-0.00346364
0.000307958
-0.00344352
-1.03063e-05
-0.00330328
-0.0003362
-0.00304465
-0.000645013
-0.00267386
-0.000935538
-0.00220179
-0.00119777
-0.00164288
-0.00142361
-0.00101741
-0.00159884
-0.000346811
-0.00171759
0.000342754
-0.001771
0.00102407
-0.00175275
0.00166862
-0.00166133
0.00224888
-0.00149774
0.00273768
-0.00126511
0.00311189
-0.000971534
0.0033517
-0.000627253
0.00344478
-0.000247028
0.0033725
0.000180239
0.00314341
0.000594052
0.00276391
0.000983809
0.00224867
0.00133533
0.00161931
0.00163047
0.000906432
0.00185054
0.000143432
0.00198047
-0.00062626
0.00200558
-0.00136356
0.00192397
-0.00202545
0.0017337
-0.0025748
0.00144295
-0.00297542
0.00106287
-0.00320259
0.0006152
-0.00323846
0.000124384
-0.00307479
-0.000409543
-0.00272434
-0.00090102
-0.00220408
-0.00134172
-0.00154801
-0.00170126
-0.000797748
-0.00195338
-2.93873e-06
-0.00207727
0.000781037
-0.00205363
0.00149648
-0.00188476
0.00209136
-0.0015792
0.00252244
-0.00115616
0.00275353
-0.000643182
0.00276623
-8.11905e-05
0.00255856
0.00051169
0.0021501
0.00103908
0.00157488
0.00148091
0.000880327
0.00179855
0.000130219
0.00195875
-0.00060853
0.00194414
-0.00126804
0.001752
-0.00178869
0.00140297
-0.00212473
0.000928857
-0.00224379
0.000374382
-0.00213663
-0.000221072
-0.00182467
-0.000762472
-0.00134428
-0.00120617
-0.000752683
-0.00150578
-0.000120248
-0.00162503
0.000470986
-0.0015411
0.00095478
-0.00127503
0.00127239
-0.000856893
0.00138766
-0.000341375
0.00128547
0.000224225
0.000989315
0.000730391
0.000542763
0.00112224
1.28214e-05
0.00134493
-0.000519268
0.00136245
-0.000970884
0.00116234
-0.00127339
0.000781555
-0.0013784
0.000274656
-0.00126372
-0.000303181
-0.000948957
-0.000828423
-0.000480323
-0.00123423
6.99005e-05
-0.00145576
0.000612687
-0.00144664
0.00106241
-0.00121152
0.00134941
-0.000791384
0.00143194
-0.000258031
0.00130251
0.000307596
0.000993992
0.00078748
0.000568566
0.0011095
0.000108241
0.00121885
-0.000298294
0.00109984
-0.000580175
0.000787353
-0.000693862
0.000355207
-0.000632438
-0.0001046
-0.000427058
-0.000488671
-0.0001383
-0.00071994
0.000157192
-0.000753121
0.000383375
-0.000587367
0.000484516
-0.000272775
0.00043765
0.000106141
0.000258704
0.000446591
0.000653119
-0.000127602
-0.000289597
-0.000233705
-0.000332466
-0.0003177
-0.00036995
-0.000367782
-0.000424446
-0.000374135
-0.000493771
-0.000324994
-0.000580007
-0.000214071
-0.00067646
-3.25296e-05
-0.000786369
0.000217343
-0.000896594
0.000535768
-0.0010098
0.000918112
-0.00111925
0.00136461
-0.00122923
0.00187187
-0.00133365
0.00243782
-0.00143498
0.00305641
-0.00152863
0.0037226
-0.00161476
0.00443084
-0.00169027
0.00517316
-0.00175111
0.00593954
-0.00179382
0.00672143
-0.00181822
0.00750664
-0.00182016
0.00828332
-0.00179822
0.00903681
-0.0017492
0.00975444
-0.00167498
0.0104206
-0.00157174
0.0110237
-0.00144489
0.011549
-0.00128914
0.0119897
-0.00111533
0.0123333
-0.00091579
0.0125795
-0.00070558
0.0127242
-0.000481395
0.0127707
-0.000252499
0.012727
-2.49138e-05
0.0125509
0.000236506
0.0122691
0.000474059
0.0118987
0.000695894
0.0114521
0.00090392
0.0109368
0.00110069
0.010359
0.00128575
0.00972513
0.00145772
0.00904361
0.00161298
0.00832194
0.00175169
0.00756854
0.00187183
0.00679109
0.00197339
0.00599709
0.00205586
0.00519326
0.00211918
0.00438861
0.00216092
0.00358905
0.00218344
0.00280213
0.0021849
0.002033
0.00216776
0.0012903
0.00212782
0.000577091
0.00207084
-9.90439e-05
0.00199299
-0.000732585
0.00189596
-0.00131936
0.001782
-0.00185531
0.00165141
-0.00233542
0.00150268
-0.00275518
0.00133963
-0.00310987
0.00116122
-0.00339595
0.000969817
-0.00361364
0.000769748
-0.003757
0.000559618
-0.00382927
0.000345772
-0.00382482
0.000123984
-0.00375148
-0.000103847
-0.00360772
-0.000325737
-0.00339218
-0.000543753
-0.00310739
-0.000755061
-0.00275738
-0.000956749
-0.00234689
-0.00114558
-0.00188147
-0.00131936
-0.00136839
-0.0014733
-0.000814022
-0.00160568
-0.000227021
-0.00171375
0.000383539
-0.00179451
0.00100787
-0.00184441
0.00163589
-0.00186339
0.00225661
-0.0018485
0.00285927
-0.00179899
0.00343168
-0.00171315
0.00396242
-0.00159272
0.00444093
-0.00143728
0.00485693
-0.0012493
0.00519941
-0.00102793
0.00546099
-0.000781987
0.00563077
-0.000508109
0.00570916
-0.000218752
0.00568128
0.000109501
0.00555068
0.000434369
0.00531773
0.000754994
0.00498353
0.00106938
0.0045518
0.00137097
0.00402969
0.0016523
0.00342584
0.00190699
0.00275203
0.00212587
0.00202253
0.00230185
0.00125333
0.00242862
0.000462395
0.00249927
-0.000331153
0.00251132
-0.00110619
0.00245856
-0.00184188
0.00234026
-0.00251797
0.00215868
-0.00311364
0.00191214
-0.00360907
0.00160758
-0.00399125
0.00125249
-0.0042447
0.000852871
-0.00435639
0.000419642
-0.00431601
-5.0685e-05
-0.00412959
-0.00052262
-0.00379911
-0.000975489
-0.00333144
-0.00140321
-0.00274017
-0.00178903
-0.00204423
-0.00211955
-0.00126738
-0.00237569
-0.000437435
-0.00254753
0.000414192
-0.00262263
0.00125437
-0.00259292
0.00204793
-0.0024549
0.00275918
-0.00220899
0.0033585
-0.00186443
0.00381299
-0.00142602
0.00410233
-0.000916597
0.0042083
-0.000352998
0.00411659
0.000271951
0.00383179
0.000878853
0.00336414
0.00145146
0.00272949
0.00196998
0.00195797
0.00240198
0.00108566
0.00272285
0.000155049
0.00291108
-0.000784324
0.00294496
-0.00168024
0.00281989
-0.00248282
0.00253627
-0.00314275
0.00210288
-0.00362107
0.00154118
-0.00388682
0.000880954
-0.00391929
0.00015685
-0.00370889
-0.000619936
-0.00326992
-0.00134
-0.00262883
-0.00198281
-0.00182266
-0.00250744
-0.000904398
-0.00287164
6.19098e-05
-0.00304358
0.0010093
-0.00300102
0.00186961
-0.00274507
0.00257998
-0.00228956
0.00308301
-0.00165919
0.00334315
-0.000903331
0.00333996
-7.7994e-05
0.00306795
0.000783699
0.00255496
0.00155208
0.00184181
0.00219406
0.000991587
0.00264878
7.68832e-05
0.00287346
-0.000809206
0.00283023
-0.00159613
0.00253893
-0.00220834
0.00201518
-0.00258842
0.00130894
-0.00270326
0.000489217
-0.00254464
-0.000379688
-0.00213739
-0.00116973
-0.00152972
-0.00181383
-0.000794186
-0.00224131
-1.70558e-05
-0.00240216
0.000704175
-0.00226234
0.00128588
-0.00185673
0.0016585
-0.00122952
0.00177657
-0.000459444
0.00163047
0.000370327
0.00124754
0.00111332
0.000683381
0.0016864
2.09737e-05
0.00200734
-0.000635639
0.00201907
-0.00119006
0.00171677
-0.00155802
0.00114951
-0.00168192
0.00039855
-0.00154111
-0.000443987
-0.00115839
-0.00121114
-0.000592111
-0.00180051
6.85733e-05
-0.00211644
0.000714561
-0.00209263
0.00124273
-0.00173969
0.0015706
-0.00111925
0.0016496
-0.000337032
0.00147644
0.000480756
0.00109167
0.00117225
0.000573453
0.00162772
2.08096e-05
0.00177149
-0.00045268
0.00157332
-0.000770053
0.00110473
-0.000880179
0.000465333
-0.000779037
-0.000205742
-0.000507295
-0.000760414
-0.000141339
-0.0010859
0.000224674
-0.00111913
0.000499365
-0.000862058
0.000616901
-0.000390312
0.000551627
0.000171415
0.000324512
0.000673706
0.000977631
-0.000545623
0.000256026
-0.00107265
0.000194561
-0.0015753
0.000132706
-0.00203957
3.98185e-05
-0.00244198
-9.13552e-05
-0.00276069
-0.000261295
-0.00300454
-0.000432616
-0.00316674
-0.000624163
-0.00327426
-0.000789078
-0.00329442
-0.000989636
-0.00320742
-0.00120626
-0.00299159
-0.00144506
-0.00263956
-0.00168568
-0.00215037
-0.00192417
-0.00152833
-0.00215067
-0.000783331
-0.00235976
7.12959e-05
-0.0025449
0.00101975
-0.00269956
0.00204436
-0.00281844
0.00312266
-0.00289652
0.00423019
-0.0029277
0.00534658
-0.0029146
0.00644555
-0.00284817
0.00750505
-0.00273448
0.00849697
-0.00256365
0.00940449
-0.00235241
0.0101978
-0.0020824
0.0108719
-0.0017895
0.0113965
-0.00144039
0.0117705
-0.00107952
0.0119842
-0.000695078
0.0120362
-0.000304504
0.0119403
7.09367e-05
0.0117474
0.000429382
0.0114456
0.000775859
0.0110377
0.00110382
0.0105318
0.00140985
0.00994016
0.00169231
0.00927659
0.00194932
0.0085538
0.00218051
0.00778257
0.00238422
0.00697315
0.0025611
0.00613511
0.00270987
0.00527766
0.00283083
0.00440881
0.00292471
0.00353809
0.0029899
0.00267028
0.00302873
0.00181459
0.00303914
0.000976329
0.00302315
0.000164768
0.00297932
-0.000617896
0.00291049
-0.00136169
0.00281464
-0.00206341
0.00269471
-0.00271669
0.00254925
-0.00331386
0.00237917
-0.00385024
0.00218779
-0.00432186
0.0019743
-0.00472511
0.00174288
-0.00505764
0.00149375
-0.00531306
0.00122524
-0.00549173
0.000948412
-0.00558642
0.000654309
-0.0055955
0.000354849
-0.00552046
4.89498e-05
-0.00536118
-0.000263127
-0.00512001
-0.00056691
-0.00479856
-0.000865207
-0.00439879
-0.00115482
-0.00392542
-0.00143012
-0.00338362
-0.00168738
-0.00277959
-0.00192339
-0.00212059
-0.0021323
-0.00141634
-0.00230993
-0.000675848
-0.00245424
9.00558e-05
-0.00256041
0.000869167
-0.00262352
0.00164947
-0.00264369
0.00241863
-0.00261765
0.00316135
-0.00254172
0.00386588
-0.00241768
0.00451934
-0.00224618
0.00510576
-0.0020237
0.00561517
-0.00175871
0.0060339
-0.00144666
0.00635339
-0.00110147
0.00656142
-0.000716137
0.0066549
-0.000312232
0.00662334
0.000141058
0.00646868
0.000589025
0.00618939
0.00103429
0.00578736
0.00147141
0.00526788
0.00189045
0.00463882
0.00228135
0.00391167
0.00263414
0.00310156
0.00293598
0.00222475
0.00317865
0.0013006
0.00335278
0.000351795
0.00344807
-0.000598339
0.00346145
-0.00152504
0.00338526
-0.00240408
0.00321931
-0.00320751
0.00296211
-0.00391545
0.00262007
-0.00450288
0.00219502
-0.00494665
0.00169626
-0.00523285
0.00113907
-0.0053527
0.000539493
-0.00529119
-0.000112197
-0.00505358
-0.000760229
-0.00464109
-0.00138798
-0.0040632
-0.00198111
-0.00333648
-0.00251574
-0.00248455
-0.00297149
-0.00153615
-0.00332409
-0.000526747
-0.00355693
0.000508711
-0.00365809
0.00152761
-0.00361182
0.0024863
-0.00341359
0.00334563
-0.00306833
0.00406617
-0.00258497
0.00461341
-0.00197326
0.00495458
-0.00125777
0.00507514
-0.000473558
0.00495869
0.000388402
0.00461131
0.00122623
0.00404027
0.00202251
0.00326956
0.00274069
0.00233394
0.0033376
0.00127634
0.00378045
0.000156677
0.00403075
-0.000975478
0.00407711
-0.00205108
0.00389549
-0.00300983
0.00349502
-0.00379465
0.0028877
-0.00435814
0.00210468
-0.00466217
0.00118498
-0.00468218
0.000176868
-0.00441754
-0.000884585
-0.00387998
-0.00187755
-0.00309805
-0.00276474
-0.00212342
-0.00348207
-0.00101802
-0.00397704
0.000142325
-0.00420392
0.00127465
-0.00413335
0.00229778
-0.0037682
0.00313323
-0.003125
0.00372265
-0.00224861
0.00401467
-0.00119536
0.00397767
-4.09917e-05
0.00363593
0.00112544
0.00300428
0.00218372
0.00213736
0.00306098
0.00111054
0.00367559
1.69087e-05
0.00396709
-0.00104598
0.00389311
-0.00197577
0.00346872
-0.00268724
0.00272664
-0.00311506
0.00173677
-0.00322422
0.000598377
-0.00300408
-0.000599826
-0.00248762
-0.00168619
-0.00173494
-0.00256651
-0.000834906
-0.00314134
0.00010459
-0.00334165
0.000971566
-0.00312931
0.00166094
-0.0025461
0.00209045
-0.00165903
0.0022126
-0.000581595
0.00201493
0.000567999
0.00153202
0.00159624
0.000834612
0.0023838
2.3561e-05
0.00281839
-0.000773775
0.0028164
-0.00144232
0.00238531
-0.00188248
0.00158968
-0.00202577
0.000541839
-0.00185227
-0.000617492
-0.00138915
-0.00167426
-0.000710142
-0.00247951
7.61081e-05
-0.00290269
0.000837691
-0.00285421
0.00145302
-0.00235502
0.00182505
-0.00149128
0.00189824
-0.000410216
0.00167315
0.000705841
0.00120122
0.00164418
0.000579295
0.00224964
-7.00549e-05
0.00242084
-0.00062458
0.00212785
-0.000981366
0.00146151
-0.00108605
0.000570017
-0.000938566
-0.000353225
-0.000591784
-0.0011072
-0.000139761
-0.00153792
0.000304354
-0.00156325
0.000632135
-0.00118984
0.000766688
-0.000524864
0.000679706
0.000258397
0.00039813
0.000955282
0.00137576
-0.00151251
0.00176854
-0.0029841
0.00166614
-0.00435977
0.00150838
-0.00557382
0.00125387
-0.00657921
0.000914035
-0.00730563
0.000465124
-0.00775394
1.56922e-05
-0.00778331
-0.000594795
-0.00759775
-0.000974636
-0.00716181
-0.00142557
-0.00654363
-0.00182444
-0.00574355
-0.00224513
-0.00477021
-0.00265903
-0.00362658
-0.0030678
-0.00231773
-0.00345951
-0.000852207
-0.00382528
0.000754234
-0.00415134
0.0024848
-0.00443013
0.00431167
-0.0046453
0.00620762
-0.00479247
0.00813581
-0.00485588
0.0100606
-0.0048394
0.0119305
-0.00471802
0.0137103
-0.00451428
0.0153327
-0.00418608
0.0167822
-0.0038019
0.0179614
-0.00326159
0.018933
-0.00276112
0.019523
-0.00203042
0.0198267
-0.00138316
0.0198128
-0.000681189
0.0195477
-3.94698e-05
0.0190746
0.000544071
0.018406
0.00109798
0.0175738
0.00160803
0.016609
0.0020687
0.0155396
0.0024792
0.0143908
0.00284116
0.0131841
0.00315601
0.0119381
0.00342648
0.0106693
0.00365306
0.00939048
0.00383988
0.00811353
0.00398682
0.00684734
0.00409702
0.00560105
0.004171
0.0043824
0.00420855
0.00319794
0.00421319
0.00205273
0.00418435
0.000953123
0.00412276
-9.68287e-05
0.00402927
-0.00109126
0.00390491
-0.00202506
0.00374844
-0.00289258
0.00356223
-0.00369005
0.00334671
-0.00441336
0.00310248
-0.00505791
0.00283234
-0.00561858
0.00253497
-0.00609197
0.00221627
-0.0064713
0.00187308
-0.00676037
0.00151431
-0.00694768
0.00113572
-0.00703868
0.000745308
-0.00702909
0.000345255
-0.00691862
-6.15198e-05
-0.00671281
-0.000468933
-0.00640792
-0.000871803
-0.00600647
-0.00126666
-0.00551374
-0.00164755
-0.00493436
-0.0020095
-0.00427498
-0.00234676
-0.00354348
-0.0026549
-0.00274982
-0.00292595
-0.00190454
-0.00315522
-0.00101791
-0.00334087
-0.000103097
-0.00347522
0.000825167
-0.00355178
0.00175433
-0.00357286
0.00266611
-0.00352943
0.00354864
-0.00342425
0.00438186
-0.00325089
0.00515329
-0.00301762
0.00584551
-0.00271592
0.00644533
-0.00235852
0.0069372
-0.00193854
0.00731111
-0.00147538
0.00755364
-0.00095867
0.00765951
-0.000418102
0.00762027
0.000180299
0.00743614
0.000773164
0.00710518
0.00136524
0.00662976
0.00194683
0.00601574
0.00250448
0.00527388
0.00302321
0.00441782
0.00349021
0.0034645
0.0038893
0.0024338
0.00420935
0.00134947
0.00443711
0.00023776
0.00455978
-0.000873943
0.00457315
-0.00195892
0.00447024
-0.00298224
0.00424262
-0.00392109
0.00390096
-0.00473829
0.00343728
-0.00541613
0.00287285
-0.00593014
0.00221027
-0.00625551
0.00146444
-0.00637597
0.000659956
-0.00628986
-0.00019831
-0.00599739
-0.0010527
-0.00549746
-0.00188791
-0.00480626
-0.00267231
-0.00393985
-0.00338215
-0.00292695
-0.00398439
-0.00180048
-0.00445056
-0.000602649
-0.00475476
0.000618588
-0.00487932
0.00181988
-0.00481311
0.00295063
-0.00454434
0.00396314
-0.00408083
0.00480547
-0.0034273
0.00544519
-0.00261298
0.00584212
-0.0016547
0.00597003
-0.000601469
0.00582718
0.000531247
0.00540944
0.00164398
0.00473048
0.00270146
0.00381629
0.00365488
0.00270847
0.00444542
0.00146495
0.00502397
0.000139848
0.00535585
-0.00118364
0.0054006
-0.00243901
0.00515086
-0.00355726
0.00461327
-0.00447039
0.00380083
-0.00512017
0.00275446
-0.00545938
0.00152419
-0.00546961
0.000187101
-0.00514444
-0.00120976
-0.00449945
-0.00252253
-0.0035717
-0.00369249
-0.00241843
-0.00463534
-0.00112042
-0.00527505
0.000239203
-0.00556355
0.00156069
-0.00545483
0.00274571
-0.00495323
0.00371211
-0.0040914
0.00437675
-0.00291325
0.00469848
-0.00151708
0.00463665
2.08361e-05
0.00421278
0.00154931
0.00345219
0.00294431
0.00242319
0.00408999
0.00121531
0.00488347
-6.65605e-05
0.00524896
-0.00130062
0.00512717
-0.00237449
0.00454259
-0.00318779
0.00353995
-0.00366452
0.0022135
-0.00375794
0.000691801
-0.0034717
-0.000886067
-0.00283947
-0.00231843
-0.00193456
-0.00347142
-0.000866141
-0.00420976
0.000242969
-0.00445076
0.00125632
-0.00414267
0.00205399
-0.00334377
0.00254047
-0.00214551
0.00265803
-0.00069915
0.00240448
0.000821544
0.0018163
0.00218442
0.000980032
0.00322007
1.78833e-05
0.00378054
-0.000923652
0.00375794
-0.00170845
0.00317011
-0.00221789
0.00209912
-0.00237868
0.000702628
-0.00216727
-0.000828898
-0.00161944
-0.00222209
-0.000824057
-0.0032749
9.0516e-05
-0.00381726
0.000970237
-0.00373393
0.00167325
-0.00305803
0.00208771
-0.00190574
0.00215241
-0.000474911
0.00187141
0.000986836
0.00130815
0.00220745
0.000578991
0.00297879
-0.000173603
0.00317343
-0.00080414
0.00275839
-0.00119795
0.00185533
-0.00129425
0.000666313
-0.0010972
-0.000550277
-0.00067236
-0.00153203
-0.000131864
-0.00207842
0.000391124
-0.00208624
0.000771332
-0.00157005
0.000921613
-0.000675145
0.000811344
0.000368665
0.000473663
0.00129296
0.00184942
-0.00269652
0.00446506
-0.00531484
0.00428447
-0.00772629
0.00391983
-0.00977147
0.00329905
-0.0112726
0.00241522
-0.0120857
0.00127822
-0.0123372
0.000267103
-0.0121744
-0.000757583
-0.0127992
-0.000349783
-0.0134764
-0.00074837
-0.0138056
-0.00149524
-0.0136098
-0.00244099
-0.012882
-0.00338681
-0.0116624
-0.00428733
-0.0100138
-0.00510813
-0.00802272
-0.00581639
-0.00575362
-0.00642044
-0.0032519
-0.00693184
-0.000566644
-0.00733056
0.00223625
-0.00759537
0.00508387
-0.0077035
0.00793115
-0.00768668
0.0106925
-0.00747936
0.0133117
-0.00713345
0.0156851
-0.00655955
0.0177881
-0.00590486
0.0194774
-0.00495095
0.0208584
-0.00414204
0.0215587
-0.00273071
0.0217102
-0.00153475
0.0213829
-0.000353837
0.0207306
0.000612815
0.0198084
0.0014663
0.0187059
0.00220044
0.0174824
0.00283156
0.0161763
0.00337482
0.0148193
0.00383618
0.0134325
0.00422794
0.012034
0.00455453
0.0106356
0.00482488
0.00924594
0.00504271
0.00787458
0.00521124
0.00652677
0.00533463
0.00520703
0.00541676
0.00392101
0.00545703
0.00267287
0.00545668
0.00146449
0.00542157
0.000301193
0.00534764
-0.000813157
0.00523711
-0.00187257
0.00508868
-0.00287593
0.00490827
-0.00381689
0.0046894
-0.00468754
0.00443288
-0.00548505
0.00414422
-0.00620602
0.00382345
-0.00684543