# Wall heat-flux  
# Time            	patch             	min [W/m^2]       	max [W/m^2]       	Q [W]             	q [W/m^2]         
0.0000000000e+00	walls	0.0000000000e+00	0.0000000000e+00	0.0000000000e+00	0.0000000000e+00
1.0000000000e+00	walls	0.0000000000e+00	0.0000000000e+00	0.0000000000e+00	0.0000000000e+00
